                               Psi4 1.4a3.dev225

  ==> Input File <==

--------------------------------------------------------------------------
#psi4
#
memory 32 gb

molecule  {
1 1
  N       -2.8138210    -0.0000810     0.0131690
  C       -1.3233890    -0.0000370    -0.0148680
  C        0.7280520     1.2302730    -0.0129860
  C        0.7281180    -1.2302340    -0.0129780
  C       -0.6725800    -1.2264340    -0.0069900
  C       -0.6726490     1.2263940    -0.0069970
  C        1.3988940     0.0000390    -0.0107890
  C        1.4942690     2.5253230     0.0134310
  C        1.4944180    -2.5252350     0.0134270
  H       -1.2241800    -2.1659650    -0.0138510
  H       -1.2242990     2.1658960    -0.0138630
  H        2.4879510     0.0000680    -0.0240190
  H       -3.1956820     0.8285560    -0.4636260
  H       -3.1956410    -0.8285950    -0.4638730
  H       -3.1827690    -0.0002330     0.9749950
  H        0.8779320     3.3605910    -0.3276200
  H        1.8358100     2.7495590     1.0289260
  H        2.3924286     2.4665211    -0.6407737
  H        2.3762540    -2.4675350    -0.6292720
  H        0.8780380    -3.3605930    -0.3273260
  H        1.8362550    -2.7492930     1.0288600
units angstrom
no_reorient  #important for SAPT in psi4, default
symmetry c1  #important for SAPT in psi4, default
}

set PROPERTIES_ORIGIN ["COM"]
properties('MP2/aug-cc-pvtz', properties = ['dipole'])
--------------------------------------------------------------------------

    Molecular point group: c1
  Charge       = 1
  Multiplicity = 1
  Basis Set: AUG-CC-PVTZ
    Blend: AUG-CC-PVTZ
  Basis Set: (AUG-CC-PVTZ AUX)
    Blend: AUG-CC-PVTZ-JKFIT

    Orbital Energies [Eh]
    ---------------------

    Doubly Occupied:

       1A    -15.888745     2A    -11.458960     3A    -11.394947
       4A    -11.394846     5A    -11.393607     6A    -11.393537
       7A    -11.371553     8A    -11.347248     9A    -11.344986
      10A     -1.502585    11A     -1.309273    12A     -1.204746
      13A     -1.181958    14A     -1.082601    15A     -1.069693
      16A     -0.988765    17A     -0.965792    18A     -0.949699
      19A     -0.907710    20A     -0.855799    21A     -0.820460
      22A     -0.794698    23A     -0.724159    24A     -0.715346
      25A     -0.710331    26A     -0.689676    27A     -0.678327
      28A     -0.655641    29A     -0.640512    30A     -0.634417
      31A     -0.628535    32A     -0.486380    33A     -0.475009

  @DF-RHF Final Energy:  -364.29383731531777

   => Energetics <=

    Nuclear Repulsion Energy =            432.2527114976379607
    One-Electron Energy =               -1337.7720155779982179
    Two-Electron Energy =                 541.2254667650424835
    Total Energy =                       -364.2938373153177736
  Basis Set: (AUG-CC-PVTZ AUX)
    Blend: AUG-CC-PVTZ-RI
    Molecular point group: c1

    Geometry (in Angstrom), charge = 1, multiplicity = 1:

       Center              X                  Y                   Z               Mass
    ------------   -----------------  -----------------  -----------------  -----------------
         N           -2.808634391844    -0.000072014083     0.014405969664    14.003074004430
         C           -1.318202391844    -0.000028014083    -0.013631030336    12.000000000000
         C            0.733238608156     1.230281985917    -0.011749030336    12.000000000000
         C            0.733304608156    -1.230225014083    -0.011741030336    12.000000000000
         C           -0.667393391844    -1.226425014083    -0.005753030336    12.000000000000
         C           -0.667462391844     1.226402985917    -0.005760030336    12.000000000000
         C            1.404080608156     0.000047985917    -0.009552030336    12.000000000000
         C            1.499455608156     2.525331985917     0.014667969664    12.000000000000
         C            1.499604608156    -2.525226014083     0.014663969664    12.000000000000
         H           -1.218993391844    -2.165956014083    -0.012614030336     1.007825032230
         H           -1.219112391844     2.165904985917    -0.012626030336     1.007825032230
         H            2.493137608156     0.000076985917    -0.022782030336     1.007825032230
         H           -3.190495391844     0.828564985917    -0.462389030336     1.007825032230
         H           -3.190454391844    -0.828586014083    -0.462636030336     1.007825032230
         H           -3.177582391844    -0.000224014083     0.976231969664     1.007825032230
         H            0.883118608156     3.360599985917    -0.326383030336     1.007825032230
         H            1.840996608156     2.749567985917     1.030162969664     1.007825032230
         H            2.397615208156     2.466530085917    -0.639536730336     1.007825032230
         H            2.381440608156    -2.467526014083    -0.628035030336     1.007825032230
         H            0.883224608156    -3.360584014083    -0.326089030336     1.007825032230
         H            1.841441608156    -2.749284014083     1.030096969664     1.007825032230

  Basis Set: AUG-CC-PVTZ
    Blend: AUG-CC-PVTZ
  Basis Set: (AUG-CC-PVTZ AUX)
    Blend: AUG-CC-PVTZ-JKFIT
	 Reference Energy          =    -364.2938373153177736 [Eh]
	 Singles Energy            =      -0.0000000000000000 [Eh]
	 Same-Spin Energy          =      -0.3971648882967516 [Eh]
	 Opposite-Spin Energy      =      -1.3054455482116327 [Eh]
	 Correlation Energy        =      -1.7026104365083843 [Eh]
	 Total Energy              =    -365.9964477518261674 [Eh]

	 ================> DF-SCS-MP2 Energies <==================
	-----------------------------------------------------------
	 SCS Same-Spin Scale       =       0.3333333333333333 [-]
	 SCS Opposite-Spin Scale   =       1.2000000000000000 [-]
	 SCS Same-Spin Energy      =      -0.1323882960989172 [Eh]
	 SCS Opposite-Spin Energy  =      -1.5665346578539592 [Eh]
	 SCS Correlation Energy    =      -1.6989229539528763 [Eh]
	 SCS Total Energy          =    -365.9927602692706614 [Eh]
	-----------------------------------------------------------

  Dipole Moment: [D]
     X:    -8.3703      Y:    -0.0017      Z:     0.1721     Total:     8.3720

*** Psi4 exiting successfully. Buy a developer a beer!
