                               Psi4 1.4a3.dev225

  ==> Input File <==

--------------------------------------------------------------------------
#psi4
#
memory 32 gb

molecule  {
1 1
  N       -2.8138210    -0.0000810     0.0131690
  C       -1.3233890    -0.0000370    -0.0148680
  C        0.7280520     1.2302730    -0.0129860
  C        0.7281180    -1.2302340    -0.0129780
  C       -0.6725800    -1.2264340    -0.0069900
  C       -0.6726490     1.2263940    -0.0069970
  C        1.3988940     0.0000390    -0.0107890
  C        1.4942690     2.5253230     0.0134310
  C        1.4944180    -2.5252350     0.0134270
  H       -1.2241800    -2.1659650    -0.0138510
  H       -1.2242990     2.1658960    -0.0138630
  H        2.4879510     0.0000680    -0.0240190
  H       -3.1956820     0.8285560    -0.4636260
  H       -3.1956410    -0.8285950    -0.4638730
  H       -3.1827690    -0.0002330     0.9749950
  H        0.8779320     3.3605910    -0.3276200
  H        1.8046078     2.7290735     0.9361533
  H        2.3762850     2.4675780    -0.6290150
  H        2.3762540    -2.4675350    -0.6292720
  H        0.8780380    -3.3605930    -0.3273260
  H        1.8362550    -2.7492930     1.0288600
units angstrom
no_reorient  #important for SAPT in psi4, default
symmetry c1  #important for SAPT in psi4, default
}

set PROPERTIES_ORIGIN ["COM"]
properties('MP2/aug-cc-pvtz', properties = ['dipole'])
--------------------------------------------------------------------------

    Molecular point group: c1
  Charge       = 1
  Multiplicity = 1
  Basis Set: AUG-CC-PVTZ
    Blend: AUG-CC-PVTZ
  Basis Set: (AUG-CC-PVTZ AUX)
    Blend: AUG-CC-PVTZ-JKFIT

    Orbital Energies [Eh]
    ---------------------

    Doubly Occupied:

       1A    -15.888646     2A    -11.458821     3A    -11.394785
       4A    -11.394459     5A    -11.393454     6A    -11.393244
       7A    -11.371469     8A    -11.344952     9A    -11.333243
      10A     -1.502490    11A     -1.309276    12A     -1.205885
      13A     -1.182715    14A     -1.087375    15A     -1.073760
      16A     -0.989256    17A     -0.967547    18A     -0.949611
      19A     -0.908858    20A     -0.856857    21A     -0.820451
      22A     -0.794842    23A     -0.726579    24A     -0.720690
      25A     -0.713987    26A     -0.696684    27A     -0.678742
      28A     -0.657167    29A     -0.641203    30A     -0.637377
      31A     -0.628251    32A     -0.486917    33A     -0.475529

  @DF-RHF Final Energy:  -364.28837087395419

   => Energetics <=

    Nuclear Repulsion Energy =            432.7995112907963744
    One-Electron Energy =               -1338.8055257494120269
    Two-Electron Energy =                 541.7176435846614595
    Total Energy =                       -364.2883708739542499
  Basis Set: (AUG-CC-PVTZ AUX)
    Blend: AUG-CC-PVTZ-RI
    Molecular point group: c1

    Geometry (in Angstrom), charge = 1, multiplicity = 1:

       Center              X                  Y                   Z               Mass
    ------------   -----------------  -----------------  -----------------  -----------------
         N           -2.808243585416     0.000088355406     0.015074683509    14.003074004430
         C           -1.317811585416     0.000132355406    -0.012962316491    12.000000000000
         C            0.733629414584     1.230442355406    -0.011080316491    12.000000000000
         C            0.733695414584    -1.230064644594    -0.011072316491    12.000000000000
         C           -0.667002585416    -1.226264644594    -0.005084316491    12.000000000000
         C           -0.667071585416     1.226563355406    -0.005091316491    12.000000000000
         C            1.404471414584     0.000208355406    -0.008883316491    12.000000000000
         C            1.499846414584     2.525492355406     0.015336683509    12.000000000000
         C            1.499995414584    -2.525065644594     0.015332683509    12.000000000000
         H           -1.218602585416    -2.165795644594    -0.011945316491     1.007825032230
         H           -1.218721585416     2.166065355406    -0.011957316491     1.007825032230
         H            2.493528414584     0.000237355406    -0.022113316491     1.007825032230
         H           -3.190104585416     0.828725355406    -0.461720316491     1.007825032230
         H           -3.190063585416    -0.828425644594    -0.461967316491     1.007825032230
         H           -3.177191585416    -0.000063644594     0.976900683509     1.007825032230
         H            0.883509414584     3.360760355406    -0.325714316491     1.007825032230
         H            1.810185214584     2.729242855406     0.938058983509     1.007825032230
         H            2.381862414584     2.467747355406    -0.627109316491     1.007825032230
         H            2.381831414584    -2.467365644594    -0.627366316491     1.007825032230
         H            0.883615414584    -3.360423644594    -0.325420316491     1.007825032230
         H            1.841832414584    -2.749123644594     1.030765683509     1.007825032230

  Basis Set: AUG-CC-PVTZ
    Blend: AUG-CC-PVTZ
  Basis Set: (AUG-CC-PVTZ AUX)
    Blend: AUG-CC-PVTZ-JKFIT
	 Reference Energy          =    -364.2883708739541930 [Eh]
	 Singles Energy            =      -0.0000000000000000 [Eh]
	 Same-Spin Energy          =      -0.3971624565982821 [Eh]
	 Opposite-Spin Energy      =      -1.3048301109409886 [Eh]
	 Correlation Energy        =      -1.7019925675392706 [Eh]
	 Total Energy              =    -365.9903634414934572 [Eh]

	 ================> DF-SCS-MP2 Energies <==================
	-----------------------------------------------------------
	 SCS Same-Spin Scale       =       0.3333333333333333 [-]
	 SCS Opposite-Spin Scale   =       1.2000000000000000 [-]
	 SCS Same-Spin Energy      =      -0.1323874855327607 [Eh]
	 SCS Opposite-Spin Energy  =      -1.5657961331291863 [Eh]
	 SCS Correlation Energy    =      -1.6981836186619470 [Eh]
	 SCS Total Energy          =    -365.9865544926161647 [Eh]
	-----------------------------------------------------------

  Dipole Moment: [D]
     X:    -8.3641      Y:     0.0011      Z:     0.1781     Total:     8.3660

*** Psi4 exiting successfully. Buy a developer a beer!
