                               Psi4 1.4a3.dev225

  ==> Input File <==

--------------------------------------------------------------------------
#psi4
#
memory 32 gb

molecule  {
1 1
  N       -2.8138210    -0.0000810     0.0131690
  C       -1.3233890    -0.0000370    -0.0148680
  C        0.7280520     1.2302730    -0.0129860
  C        0.7281180    -1.2302340    -0.0129780
  C       -0.6725800    -1.2264340    -0.0069900
  C       -0.6726490     1.2263940    -0.0069970
  C        1.3988940     0.0000390    -0.0107890
  C        1.4840865     2.5081127     0.0130799
  C        1.4944180    -2.5252350     0.0134270
  H       -1.2241800    -2.1659650    -0.0138510
  H       -1.2242990     2.1658960    -0.0138630
  H        2.4879510     0.0000680    -0.0240190
  H       -3.1956820     0.8285560    -0.4636260
  H       -3.1956410    -0.8285950    -0.4638730
  H       -3.1827690    -0.0002330     0.9749950
  H        0.8779320     3.3605910    -0.3276200
  H        1.8358100     2.7495590     1.0289260
  H        2.3762850     2.4675780    -0.6290150
  H        2.3762540    -2.4675350    -0.6292720
  H        0.8780380    -3.3605930    -0.3273260
  H        1.8362550    -2.7492930     1.0288600
units angstrom
no_reorient  #important for SAPT in psi4, default
symmetry c1  #important for SAPT in psi4, default
}

set PROPERTIES_ORIGIN ["COM"]
properties('MP2/aug-cc-pvtz', properties = ['dipole'])
--------------------------------------------------------------------------

    Molecular point group: c1
  Charge       = 1
  Multiplicity = 1
  Basis Set: AUG-CC-PVTZ
    Blend: AUG-CC-PVTZ
  Basis Set: (AUG-CC-PVTZ AUX)
    Blend: AUG-CC-PVTZ-JKFIT

    Orbital Energies [Eh]
    ---------------------

    Doubly Occupied:

       1A    -15.888759     2A    -11.458988     3A    -11.394876
       4A    -11.394442     5A    -11.393538     6A    -11.393255
       7A    -11.371550     8A    -11.345416     9A    -11.345016
      10A     -1.502602    11A     -1.309820    12A     -1.206380
      13A     -1.182788    14A     -1.083373    15A     -1.070421
      16A     -0.989001    17A     -0.965713    18A     -0.949714
      19A     -0.907842    20A     -0.856119    21A     -0.820703
      22A     -0.795327    23A     -0.724974    24A     -0.717667
      25A     -0.710434    26A     -0.689114    27A     -0.678317
      28A     -0.655896    29A     -0.641308    30A     -0.633584
      31A     -0.629339    32A     -0.486190    33A     -0.474642

  @DF-RHF Final Energy:  -364.29366539808638

   => Energetics <=

    Nuclear Repulsion Energy =            432.6782212897869044
    One-Electron Energy =               -1338.6095561290399019
    Two-Electron Energy =                 541.6376694411666222
    Total Energy =                       -364.2936653980863184
  Basis Set: (AUG-CC-PVTZ AUX)
    Blend: AUG-CC-PVTZ-RI
    Molecular point group: c1

    Geometry (in Angstrom), charge = 1, multiplicity = 1:

       Center              X                  Y                   Z               Mass
    ------------   -----------------  -----------------  -----------------  -----------------
         N           -2.807500375831     0.001610733837     0.014343416827    14.003074004430
         C           -1.317068375831     0.001654733837    -0.013693583173    12.000000000000
         C            0.734372624169     1.231964733837    -0.011811583173    12.000000000000
         C            0.734438624169    -1.228542266163    -0.011803583173    12.000000000000
         C           -0.666259375831    -1.224742266163    -0.005815583173    12.000000000000
         C           -0.666328375831     1.228085733837    -0.005822583173    12.000000000000
         C            1.405214624169     0.001730733837    -0.009614583173    12.000000000000
         C            1.490407124169     2.509804433837     0.014254316827    12.000000000000
         C            1.500738624169    -2.523543266163     0.014601416827    12.000000000000
         H           -1.217859375831    -2.164273266163    -0.012676583173     1.007825032230
         H           -1.217978375831     2.167587733837    -0.012688583173     1.007825032230
         H            2.494271624169     0.001759733837    -0.022844583173     1.007825032230
         H           -3.189361375831     0.830247733837    -0.462451583173     1.007825032230
         H           -3.189320375831    -0.826903266163    -0.462698583173     1.007825032230
         H           -3.176448375831     0.001458733837     0.976169416827     1.007825032230
         H            0.884252624169     3.362282733837    -0.326445583173     1.007825032230
         H            1.842130624169     2.751250733837     1.030100416827     1.007825032230
         H            2.382605624169     2.469269733837    -0.627840583173     1.007825032230
         H            2.382574624169    -2.465843266163    -0.628097583173     1.007825032230
         H            0.884358624169    -3.358901266163    -0.326151583173     1.007825032230
         H            1.842575624169    -2.747601266163     1.030034416827     1.007825032230

  Basis Set: AUG-CC-PVTZ
    Blend: AUG-CC-PVTZ
  Basis Set: (AUG-CC-PVTZ AUX)
    Blend: AUG-CC-PVTZ-JKFIT
	 Reference Energy          =    -364.2936653980863753 [Eh]
	 Singles Energy            =      -0.0000000000000000 [Eh]
	 Same-Spin Energy          =      -0.3973590546941855 [Eh]
	 Opposite-Spin Energy      =      -1.3054980862795258 [Eh]
	 Correlation Energy        =      -1.7028571409737112 [Eh]
	 Total Energy              =    -365.9965225390600949 [Eh]

	 ================> DF-SCS-MP2 Energies <==================
	-----------------------------------------------------------
	 SCS Same-Spin Scale       =       0.3333333333333333 [-]
	 SCS Opposite-Spin Scale   =       1.2000000000000000 [-]
	 SCS Same-Spin Energy      =      -0.1324530182313952 [Eh]
	 SCS Opposite-Spin Energy  =      -1.5665977035354308 [Eh]
	 SCS Correlation Energy    =      -1.6990507217668260 [Eh]
	 SCS Total Energy          =    -365.9927161198531849 [Eh]
	-----------------------------------------------------------

  Dipole Moment: [D]
     X:    -8.3568      Y:     0.0136      Z:     0.1718     Total:     8.3586

*** Psi4 exiting successfully. Buy a developer a beer!
