                               Psi4 1.4a3.dev225

  ==> Input File <==

--------------------------------------------------------------------------
#psi4
#
memory 32 gb

molecule  {
1 1
  N       -2.8138210    -0.0000810     0.0131690
  C       -1.3233890    -0.0000370    -0.0148680
  C        0.7280520     1.2302730    -0.0129860
  C        0.7281180    -1.2302340    -0.0129780
  C       -0.6725800    -1.2264340    -0.0069900
  C       -0.6726490     1.2263940    -0.0069970
  C        1.3988940     0.0000390    -0.0107890
  C        1.4942690     2.5253230     0.0134310
  C        1.4944180    -2.5252350     0.0134270
  H       -1.2241800    -2.1659650    -0.0138510
  H       -1.2242990     2.1658960    -0.0138630
  H        2.4879510     0.0000680    -0.0240190
  H       -3.2465252     0.8512094    -0.3713597
  H       -3.1956410    -0.8285950    -0.4638730
  H       -3.1827690    -0.0002330     0.9749950
  H        0.8779320     3.3605910    -0.3276200
  H        1.8358100     2.7495590     1.0289260
  H        2.3762850     2.4675780    -0.6290150
  H        2.3762540    -2.4675350    -0.6292720
  H        0.8780380    -3.3605930    -0.3273260
  H        1.8362550    -2.7492930     1.0288600
units angstrom
no_reorient  #important for SAPT in psi4, default
symmetry c1  #important for SAPT in psi4, default
}

set PROPERTIES_ORIGIN ["COM"]
properties('MP2/aug-cc-pvtz', properties = ['dipole'])
--------------------------------------------------------------------------

    Molecular point group: c1
  Charge       = 1
  Multiplicity = 1
  Basis Set: AUG-CC-PVTZ
    Blend: AUG-CC-PVTZ
  Basis Set: (AUG-CC-PVTZ AUX)
    Blend: AUG-CC-PVTZ-JKFIT

    Orbital Energies [Eh]
    ---------------------

    Doubly Occupied:

       1A    -15.888848     2A    -11.459546     3A    -11.394896
       4A    -11.394627     5A    -11.393638     6A    -11.393320
       7A    -11.371389     8A    -11.344940     9A    -11.344839
      10A     -1.502720    11A     -1.309434    12A     -1.204753
      13A     -1.182709    14A     -1.083087    15A     -1.070315
      16A     -0.990910    17A     -0.968952    18A     -0.940096
      19A     -0.909002    20A     -0.856844    21A     -0.821023
      22A     -0.795281    23A     -0.724040    24A     -0.715319
      25A     -0.710571    26A     -0.690235    27A     -0.679002
      28A     -0.656853    29A     -0.641120    30A     -0.634329
      31A     -0.628408    32A     -0.486159    33A     -0.474890

  @DF-RHF Final Energy:  -364.29302566967857

   => Energetics <=

    Nuclear Repulsion Energy =            432.2552117060175192
    One-Electron Energy =               -1337.7722798177596815
    Two-Electron Energy =                 541.2240424420637055
    Total Energy =                       -364.2930256696785136
  Basis Set: (AUG-CC-PVTZ AUX)
    Blend: AUG-CC-PVTZ-RI
    Molecular point group: c1

    Geometry (in Angstrom), charge = 1, multiplicity = 1:

       Center              X                  Y                   Z               Mass
    ------------   -----------------  -----------------  -----------------  -----------------
         N           -2.808081462714    -0.000267726008     0.013547316127    14.003074004430
         C           -1.317649462714    -0.000223726008    -0.014489683873    12.000000000000
         C            0.733791537286     1.230086273992    -0.012607683873    12.000000000000
         C            0.733857537286    -1.230420726008    -0.012599683873    12.000000000000
         C           -0.666840462714    -1.226620726008    -0.006611683873    12.000000000000
         C           -0.666909462714     1.226207273992    -0.006618683873    12.000000000000
         C            1.404633537286    -0.000147726008    -0.010410683873    12.000000000000
         C            1.500008537286     2.525136273992     0.013809316127    12.000000000000
         C            1.500157537286    -2.525421726008     0.013805316127    12.000000000000
         H           -1.218440462714    -2.166151726008    -0.013472683873     1.007825032230
         H           -1.218559462714     2.165709273992    -0.013484683873     1.007825032230
         H            2.493690537286    -0.000118726008    -0.023640683873     1.007825032230
         H           -3.240785662714     0.851022673992    -0.370981383873     1.007825032230
         H           -3.189901462714    -0.828781726008    -0.463494683873     1.007825032230
         H           -3.177029462714    -0.000419726008     0.975373316127     1.007825032230
         H            0.883671537286     3.360404273992    -0.327241683873     1.007825032230
         H            1.841549537286     2.749372273992     1.029304316127     1.007825032230
         H            2.382024537286     2.467391273992    -0.628636683873     1.007825032230
         H            2.381993537286    -2.467721726008    -0.628893683873     1.007825032230
         H            0.883777537286    -3.360779726008    -0.326947683873     1.007825032230
         H            1.841994537286    -2.749479726008     1.029238316127     1.007825032230

  Basis Set: AUG-CC-PVTZ
    Blend: AUG-CC-PVTZ
  Basis Set: (AUG-CC-PVTZ AUX)
    Blend: AUG-CC-PVTZ-JKFIT
	 Reference Energy          =    -364.2930256696785705 [Eh]
	 Singles Energy            =      -0.0000000000000000 [Eh]
	 Same-Spin Energy          =      -0.3971859898886247 [Eh]
	 Opposite-Spin Energy      =      -1.3052949220120924 [Eh]
	 Correlation Energy        =      -1.7024809119007172 [Eh]
	 Total Energy              =    -365.9955065815792636 [Eh]

	 ================> DF-SCS-MP2 Energies <==================
	-----------------------------------------------------------
	 SCS Same-Spin Scale       =       0.3333333333333333 [-]
	 SCS Opposite-Spin Scale   =       1.2000000000000000 [-]
	 SCS Same-Spin Energy      =      -0.1323953299628749 [Eh]
	 SCS Opposite-Spin Energy  =      -1.5663539064145109 [Eh]
	 SCS Correlation Energy    =      -1.6987492363773857 [Eh]
	 SCS Total Energy          =    -365.9917749060559800 [Eh]
	-----------------------------------------------------------

  Dipole Moment: [D]
     X:    -8.4198      Y:     0.0295      Z:     0.2618     Total:     8.4240

*** Psi4 exiting successfully. Buy a developer a beer!
