                               Psi4 1.4a3.dev225

  ==> Input File <==

--------------------------------------------------------------------------
#psi4
#
memory 32 gb

molecule  {
1 1
  N       -2.8138210    -0.0000810     0.0131690
  C       -1.3233890    -0.0000370    -0.0148680
  C        0.6268435     1.2976913     0.0871478
  C        0.7281180    -1.2302340    -0.0129780
  C       -0.6725800    -1.2264340    -0.0069900
  C       -0.6726490     1.2263940    -0.0069970
  C        1.3988940     0.0000390    -0.0107890
  C        1.4942690     2.5253230     0.0134310
  C        1.4944180    -2.5252350     0.0134270
  H       -1.2241800    -2.1659650    -0.0138510
  H       -1.2242990     2.1658960    -0.0138630
  H        2.4879510     0.0000680    -0.0240190
  H       -3.1956820     0.8285560    -0.4636260
  H       -3.1956410    -0.8285950    -0.4638730
  H       -3.1827690    -0.0002330     0.9749950
  H        0.8779320     3.3605910    -0.3276200
  H        1.8358100     2.7495590     1.0289260
  H        2.3762850     2.4675780    -0.6290150
  H        2.3762540    -2.4675350    -0.6292720
  H        0.8780380    -3.3605930    -0.3273260
  H        1.8362550    -2.7492930     1.0288600
units angstrom
no_reorient  #important for SAPT in psi4, default
symmetry c1  #important for SAPT in psi4, default
}

set PROPERTIES_ORIGIN ["COM"]
properties('MP2/aug-cc-pvtz', properties = ['dipole'])
--------------------------------------------------------------------------

    Molecular point group: c1
  Charge       = 1
  Multiplicity = 1
  Basis Set: AUG-CC-PVTZ
    Blend: AUG-CC-PVTZ
  Basis Set: (AUG-CC-PVTZ AUX)
    Blend: AUG-CC-PVTZ-JKFIT

    Orbital Energies [Eh]
    ---------------------

    Doubly Occupied:

       1A    -15.888985     2A    -11.457657     3A    -11.400418
       4A    -11.393309     5A    -11.389183     6A    -11.382836
       7A    -11.382209     8A    -11.345790     9A    -11.343469
      10A     -1.502470    11A     -1.310938    12A     -1.214219
      13A     -1.174164    14A     -1.085944    15A     -1.062314
      16A     -0.998746    17A     -0.965443    18A     -0.949651
      19A     -0.897733    20A     -0.860712    21A     -0.821010
      22A     -0.793919    23A     -0.729759    24A     -0.711487
      25A     -0.704629    26A     -0.690873    27A     -0.679630
      28A     -0.669562    29A     -0.648481    30A     -0.635598
      31A     -0.603044    32A     -0.489385    33A     -0.472498

  @DF-RHF Final Energy:  -364.27323681614058

   => Energetics <=

    Nuclear Repulsion Energy =            432.2520633525511471
    One-Electron Energy =               -1337.7384711938316286
    Two-Electron Energy =                 541.2131710251397863
    Total Energy =                       -364.2732368161406384
  Basis Set: (AUG-CC-PVTZ AUX)
    Blend: AUG-CC-PVTZ-RI
    Molecular point group: c1

    Geometry (in Angstrom), charge = 1, multiplicity = 1:

       Center              X                  Y                   Z               Mass
    ------------   -----------------  -----------------  -----------------  -----------------
         N           -2.798554109918    -0.006706779395     0.004467506256    14.003074004430
         C           -1.308122109918    -0.006662779395    -0.023569493744    12.000000000000
         C            0.642110390082     1.291065520605     0.078446306256    12.000000000000
         C            0.743384890082    -1.236859779395    -0.021679493744    12.000000000000
         C           -0.657313109918    -1.233059779395    -0.015691493744    12.000000000000
         C           -0.657382109918     1.219768220605    -0.015698493744    12.000000000000
         C            1.414160890082    -0.006586779395    -0.019490493744    12.000000000000
         C            1.509535890082     2.518697220605     0.004729506256    12.000000000000
         C            1.509684890082    -2.531860779395     0.004725506256    12.000000000000
         H           -1.208913109918    -2.172590779395    -0.022552493744     1.007825032230
         H           -1.209032109918     2.159270220605    -0.022564493744     1.007825032230
         H            2.503217890082    -0.006557779395    -0.032720493744     1.007825032230
         H           -3.180415109918     0.821930220605    -0.472327493744     1.007825032230
         H           -3.180374109918    -0.835220779395    -0.472574493744     1.007825032230
         H           -3.167502109918    -0.006858779395     0.966293506256     1.007825032230
         H            0.893198890082     3.353965220605    -0.336321493744     1.007825032230
         H            1.851076890082     2.742933220605     1.020224506256     1.007825032230
         H            2.391551890082     2.460952220605    -0.637716493744     1.007825032230
         H            2.391520890082    -2.474160779395    -0.637973493744     1.007825032230
         H            0.893304890082    -3.367218779395    -0.336027493744     1.007825032230
         H            1.851521890082    -2.755918779395     1.020158506256     1.007825032230

  Basis Set: AUG-CC-PVTZ
    Blend: AUG-CC-PVTZ
  Basis Set: (AUG-CC-PVTZ AUX)
    Blend: AUG-CC-PVTZ-JKFIT
	 Reference Energy          =    -364.2732368161405816 [Eh]
	 Singles Energy            =      -0.0000000000000000 [Eh]
	 Same-Spin Energy          =      -0.3969308663546264 [Eh]
	 Opposite-Spin Energy      =      -1.3065442518240031 [Eh]
	 Correlation Energy        =      -1.7034751181786296 [Eh]
	 Total Energy              =    -365.9767119343192121 [Eh]

	 ================> DF-SCS-MP2 Energies <==================
	-----------------------------------------------------------
	 SCS Same-Spin Scale       =       0.3333333333333333 [-]
	 SCS Opposite-Spin Scale   =       1.2000000000000000 [-]
	 SCS Same-Spin Energy      =      -0.1323102887848754 [Eh]
	 SCS Opposite-Spin Energy  =      -1.5678531021888038 [Eh]
	 SCS Correlation Energy    =      -1.7001633909736793 [Eh]
	 SCS Total Energy          =    -365.9734002071142527 [Eh]
	-----------------------------------------------------------

  Dipole Moment: [D]
     X:    -8.3064      Y:    -0.0331      Z:     0.0986     Total:     8.3070

*** Psi4 exiting successfully. Buy a developer a beer!
