                               Psi4 1.4a3.dev225

  ==> Input File <==

--------------------------------------------------------------------------
#psi4
#
memory 32 gb

molecule  {
1 1
  N       -2.8138210    -0.0000810     0.0131690
  C       -1.3233890    -0.0000370    -0.0148680
  C        0.7280520     1.2302730    -0.0129860
  C        0.7281180    -1.2302340    -0.0129780
  C       -0.6725800    -1.2264340    -0.0069900
  C       -0.6726490     1.2263940    -0.0069970
  C        1.3988940     0.0000390    -0.0107890
  C        1.4942690     2.5253230     0.0134310
  C        1.4944180    -2.5252350     0.0134270
  H       -1.2241800    -2.1659650    -0.0138510
  H       -1.2141724     2.1486497    -0.0137370
  H        2.4879510     0.0000680    -0.0240190
  H       -3.1956820     0.8285560    -0.4636260
  H       -3.1956410    -0.8285950    -0.4638730
  H       -3.1827690    -0.0002330     0.9749950
  H        0.8779320     3.3605910    -0.3276200
  H        1.8358100     2.7495590     1.0289260
  H        2.3762850     2.4675780    -0.6290150
  H        2.3762540    -2.4675350    -0.6292720
  H        0.8780380    -3.3605930    -0.3273260
  H        1.8362550    -2.7492930     1.0288600
units angstrom
no_reorient  #important for SAPT in psi4, default
symmetry c1  #important for SAPT in psi4, default
}

set PROPERTIES_ORIGIN ["COM"]
properties('MP2/aug-cc-pvtz', properties = ['dipole'])
--------------------------------------------------------------------------

    Molecular point group: c1
  Charge       = 1
  Multiplicity = 1
  Basis Set: AUG-CC-PVTZ
    Blend: AUG-CC-PVTZ
  Basis Set: (AUG-CC-PVTZ AUX)
    Blend: AUG-CC-PVTZ-JKFIT

    Orbital Energies [Eh]
    ---------------------

    Doubly Occupied:

       1A    -15.888773     2A    -11.458772     3A    -11.394768
       4A    -11.394426     5A    -11.393417     6A    -11.391491
       7A    -11.371407     8A    -11.344975     9A    -11.344941
      10A     -1.502618    11A     -1.309286    12A     -1.205160
      13A     -1.182107    14A     -1.083690    15A     -1.070420
      16A     -0.989142    17A     -0.966082    18A     -0.949732
      19A     -0.908411    20A     -0.857186    21A     -0.821710
      22A     -0.794807    23A     -0.725883    24A     -0.715610
      25A     -0.710677    26A     -0.690314    27A     -0.679231
      28A     -0.656922    29A     -0.641090    30A     -0.634545
      31A     -0.628598    32A     -0.486337    33A     -0.474943

  @DF-RHF Final Energy:  -364.29453215692200

   => Energetics <=

    Nuclear Repulsion Energy =            432.4418649006467490
    One-Electron Energy =               -1338.1378576732802230
    Two-Electron Energy =                 541.4014606157114713
    Total Energy =                       -364.2945321569219459
  Basis Set: (AUG-CC-PVTZ AUX)
    Blend: AUG-CC-PVTZ-RI
    Molecular point group: c1

    Geometry (in Angstrom), charge = 1, multiplicity = 1:

       Center              X                  Y                   Z               Mass
    ------------   -----------------  -----------------  -----------------  -----------------
         N           -2.808584725722     0.000061618078     0.014307869787    14.003074004430
         C           -1.318152725722     0.000105618078    -0.013729130213    12.000000000000
         C            0.733288274278     1.230415618078    -0.011847130213    12.000000000000
         C            0.733354274278    -1.230091381922    -0.011839130213    12.000000000000
         C           -0.667343725722    -1.226291381922    -0.005851130213    12.000000000000
         C           -0.667412725722     1.226536618078    -0.005858130213    12.000000000000
         C            1.404130274278     0.000181618078    -0.009650130213    12.000000000000
         C            1.499505274278     2.525465618078     0.014569869787    12.000000000000
         C            1.499654274278    -2.525092381922     0.014565869787    12.000000000000
         H           -1.218943725722    -2.165822381922    -0.012712130213     1.007825032230
         H           -1.208936125722     2.148792318078    -0.012598130213     1.007825032230
         H            2.493187274278     0.000210618078    -0.022880130213     1.007825032230
         H           -3.190445725722     0.828698618078    -0.462487130213     1.007825032230
         H           -3.190404725722    -0.828452381922    -0.462734130213     1.007825032230
         H           -3.177532725722    -0.000090381922     0.976133869787     1.007825032230
         H            0.883168274278     3.360733618078    -0.326481130213     1.007825032230
         H            1.841046274278     2.749701618078     1.030064869787     1.007825032230
         H            2.381521274278     2.467720618078    -0.627876130213     1.007825032230
         H            2.381490274278    -2.467392381922    -0.628133130213     1.007825032230
         H            0.883274274278    -3.360450381922    -0.326187130213     1.007825032230
         H            1.841491274278    -2.749150381922     1.029998869787     1.007825032230

  Basis Set: AUG-CC-PVTZ
    Blend: AUG-CC-PVTZ
  Basis Set: (AUG-CC-PVTZ AUX)
    Blend: AUG-CC-PVTZ-JKFIT
	 Reference Energy          =    -364.2945321569220027 [Eh]
	 Singles Energy            =      -0.0000000000000000 [Eh]
	 Same-Spin Energy          =      -0.3971048064167317 [Eh]
	 Opposite-Spin Energy      =      -1.3051600034895618 [Eh]
	 Correlation Energy        =      -1.7022648099062936 [Eh]
	 Total Energy              =    -365.9967969668282990 [Eh]

	 ================> DF-SCS-MP2 Energies <==================
	-----------------------------------------------------------
	 SCS Same-Spin Scale       =       0.3333333333333333 [-]
	 SCS Opposite-Spin Scale   =       1.2000000000000000 [-]
	 SCS Same-Spin Energy      =      -0.1323682688055772 [Eh]
	 SCS Opposite-Spin Energy  =      -1.5661920041874742 [Eh]
	 SCS Correlation Energy    =      -1.6985602729930513 [Eh]
	 SCS Total Energy          =    -365.9930924299150661 [Eh]
	-----------------------------------------------------------

  Dipole Moment: [D]
     X:    -8.3707      Y:    -0.0001      Z:     0.1700     Total:     8.3724

*** Psi4 exiting successfully. Buy a developer a beer!
