                               Psi4 1.4a3.dev225

  ==> Input File <==

--------------------------------------------------------------------------
#psi4
#
memory 32 gb

molecule  {
1 1
  N       -2.8138210    -0.0000810     0.0131690
  C       -1.3233890    -0.0000370    -0.0148680
  C        0.7280520     1.2302730    -0.0129860
  C        0.7281180    -1.2302340    -0.0129780
  C       -0.6725800    -1.2264340    -0.0069900
  C       -0.6726490     1.2263940    -0.0069970
  C        1.3988940     0.0000390    -0.0107890
  C        1.4942690     2.5253230     0.0134310
  C        1.4944180    -2.5252350     0.0134270
  H       -1.2241800    -2.1659650    -0.0138510
  H       -1.2242990     2.1658960    -0.0138630
  H        2.4879510     0.0000680    -0.0240190
  H       -3.1956820     0.8285560    -0.4636260
  H       -3.1956410    -0.8285950    -0.4638730
  H       -3.1469544    -0.0002182     0.8816284
  H        0.8779320     3.3605910    -0.3276200
  H        1.8358100     2.7495590     1.0289260
  H        2.3762850     2.4675780    -0.6290150
  H        2.3762540    -2.4675350    -0.6292720
  H        0.8780380    -3.3605930    -0.3273260
  H        1.8362550    -2.7492930     1.0288600
units angstrom
no_reorient  #important for SAPT in psi4, default
symmetry c1  #important for SAPT in psi4, default
}

set PROPERTIES_ORIGIN ["COM"]
properties('MP2/aug-cc-pvtz', properties = ['dipole'])
--------------------------------------------------------------------------

    Molecular point group: c1
  Charge       = 1
  Multiplicity = 1
  Basis Set: AUG-CC-PVTZ
    Blend: AUG-CC-PVTZ
  Basis Set: (AUG-CC-PVTZ AUX)
    Blend: AUG-CC-PVTZ-JKFIT

    Orbital Energies [Eh]
    ---------------------

    Doubly Occupied:

       1A    -15.881897     2A    -11.459881     3A    -11.395541
       4A    -11.395524     5A    -11.394317     6A    -11.394308
       7A    -11.372256     8A    -11.345392     9A    -11.345392
      10A     -1.520747    11A     -1.311297    12A     -1.205502
      13A     -1.185121    14A     -1.083868    15A     -1.070997
      16A     -0.995829    17A     -0.977159    18A     -0.968256
      19A     -0.909447    20A     -0.857724    21A     -0.821883
      22A     -0.795785    23A     -0.724836    24A     -0.715982
      25A     -0.711400    26A     -0.690736    27A     -0.679589
      28A     -0.657382    29A     -0.641846    30A     -0.635958
      31A     -0.629041    32A     -0.487564    33A     -0.475612

  @DF-RHF Final Energy:  -364.28863610468403

   => Energetics <=

    Nuclear Repulsion Energy =            432.9045341512401137
    One-Electron Energy =               -1338.9102060611999150
    Two-Electron Energy =                 541.7170358052758274
    Total Energy =                       -364.2886361046839738
  Basis Set: (AUG-CC-PVTZ AUX)
    Blend: AUG-CC-PVTZ-RI
    Molecular point group: c1

    Geometry (in Angstrom), charge = 1, multiplicity = 1:

       Center              X                  Y                   Z               Mass
    ------------   -----------------  -----------------  -----------------  -----------------
         N           -2.808796762176    -0.000080860217     0.015079585738    14.003074004430
         C           -1.318364762176    -0.000036860217    -0.012957414262    12.000000000000
         C            0.733076237824     1.230273139783    -0.011075414262    12.000000000000
         C            0.733142237824    -1.230233860217    -0.011067414262    12.000000000000
         C           -0.667555762176    -1.226433860217    -0.005079414262    12.000000000000
         C           -0.667624762176     1.226394139783    -0.005086414262    12.000000000000
         C            1.403918237824     0.000039139783    -0.008878414262    12.000000000000
         C            1.499293237824     2.525323139783     0.015341585738    12.000000000000
         C            1.499442237824    -2.525234860217     0.015337585738    12.000000000000
         H           -1.219155762176    -2.165964860217    -0.011940414262     1.007825032230
         H           -1.219274762176     2.165896139783    -0.011952414262     1.007825032230
         H            2.492975237824     0.000068139783    -0.022108414262     1.007825032230
         H           -3.190657762176     0.828556139783    -0.461715414262     1.007825032230
         H           -3.190616762176    -0.828594860217    -0.461962414262     1.007825032230
         H           -3.141930162176    -0.000218060217     0.883538985738     1.007825032230
         H            0.882956237824     3.360591139783    -0.325709414262     1.007825032230
         H            1.840834237824     2.749559139783     1.030836585738     1.007825032230
         H            2.381309237824     2.467578139783    -0.627104414262     1.007825032230
         H            2.381278237824    -2.467534860217    -0.627361414262     1.007825032230
         H            0.883062237824    -3.360592860217    -0.325415414262     1.007825032230
         H            1.841279237824    -2.749292860217     1.030770585738     1.007825032230

  Basis Set: AUG-CC-PVTZ
    Blend: AUG-CC-PVTZ
  Basis Set: (AUG-CC-PVTZ AUX)
    Blend: AUG-CC-PVTZ-JKFIT
	 Reference Energy          =    -364.2886361046840307 [Eh]
	 Singles Energy            =      -0.0000000000000000 [Eh]
	 Same-Spin Energy          =      -0.3966419620390721 [Eh]
	 Opposite-Spin Energy      =      -1.3038254717413016 [Eh]
	 Correlation Energy        =      -1.7004674337803738 [Eh]
	 Total Energy              =    -365.9891035384644056 [Eh]

	 ================> DF-SCS-MP2 Energies <==================
	-----------------------------------------------------------
	 SCS Same-Spin Scale       =       0.3333333333333333 [-]
	 SCS Opposite-Spin Scale   =       1.2000000000000000 [-]
	 SCS Same-Spin Energy      =      -0.1322139873463574 [Eh]
	 SCS Opposite-Spin Energy  =      -1.5645905660895618 [Eh]
	 SCS Correlation Energy    =      -1.6968045534359193 [Eh]
	 SCS Total Energy          =    -365.9854406581199555 [Eh]
	-----------------------------------------------------------

  Dipole Moment: [D]
     X:    -8.2915      Y:    -0.0002      Z:     0.0332     Total:     8.2916

*** Psi4 exiting successfully. Buy a developer a beer!
