                               Psi4 1.4a3.dev225

  ==> Input File <==

--------------------------------------------------------------------------
#psi4
#
memory 32 gb

molecule  {
1 1
  N       -2.8138210    -0.0000810     0.0131690
  C       -1.3233890    -0.0000370    -0.0148680
  C        0.7280520     1.2302730    -0.0129860
  C        0.7281180    -1.2302340    -0.0129780
  C       -0.6725800    -1.2264340    -0.0069900
  C       -0.6726490     1.2263940    -0.0069970
  C        1.3988940     0.0000390    -0.0107890
  C        1.4942690     2.5253230     0.0134310
  C        1.4944180    -2.5252350     0.0134270
  H       -1.2241800    -2.1659650    -0.0138510
  H       -1.2242990     2.1658960    -0.0138630
  H        2.4879510     0.0000680    -0.0240190
  H       -3.1956820     0.8285560    -0.4636260
  H       -3.1956410    -0.8285950    -0.4638730
  H       -3.1648617    -0.0002256     0.9283117
  H        0.8779320     3.3605910    -0.3276200
  H        1.8358100     2.7495590     1.0289260
  H        2.3762850     2.4675780    -0.6290150
  H        2.3762540    -2.4675350    -0.6292720
  H        0.8780380    -3.3605930    -0.3273260
  H        1.8362550    -2.7492930     1.0288600
units angstrom
no_reorient  #important for SAPT in psi4, default
symmetry c1  #important for SAPT in psi4, default
}

set PROPERTIES_ORIGIN ["COM"]
properties('MP2/aug-cc-pvtz', properties = ['dipole'])
--------------------------------------------------------------------------

    Molecular point group: c1
  Charge       = 1
  Multiplicity = 1
  Basis Set: AUG-CC-PVTZ
    Blend: AUG-CC-PVTZ
  Basis Set: (AUG-CC-PVTZ AUX)
    Blend: AUG-CC-PVTZ-JKFIT

    Orbital Energies [Eh]
    ---------------------

    Doubly Occupied:

       1A    -15.885515     2A    -11.459399     3A    -11.395181
       4A    -11.395168     5A    -11.393912     6A    -11.393906
       7A    -11.371888     8A    -11.345184     9A    -11.345184
      10A     -1.511006    11A     -1.310237    12A     -1.205176
      13A     -1.183507    14A     -1.083482    15A     -1.070679
      16A     -0.991115    17A     -0.967136    18A     -0.964555
      19A     -0.908627    20A     -0.856861    21A     -0.821196
      22A     -0.795322    23A     -0.724471    24A     -0.715679
      25A     -0.711064    26A     -0.690532    27A     -0.679342
      28A     -0.657122    29A     -0.641486    30A     -0.635302
      31A     -0.628765    32A     -0.486996    33A     -0.475309

  @DF-RHF Final Energy:  -364.29406009082044

   => Energetics <=

    Nuclear Repulsion Energy =            432.6106026934409670
    One-Electron Energy =               -1338.4087203992589821
    Two-Electron Energy =                 541.5040576149974640
    Total Energy =                       -364.2940600908204942
  Basis Set: (AUG-CC-PVTZ AUX)
    Blend: AUG-CC-PVTZ-RI
    Molecular point group: c1

    Geometry (in Angstrom), charge = 1, multiplicity = 1:

       Center              X                  Y                   Z               Mass
    ------------   -----------------  -----------------  -----------------  -----------------
         N           -2.808648949953    -0.000080799135     0.014694247783    14.003074004430
         C           -1.318216949953    -0.000036799135    -0.013342752217    12.000000000000
         C            0.733224050047     1.230273200865    -0.011460752217    12.000000000000
         C            0.733290050047    -1.230233799135    -0.011452752217    12.000000000000
         C           -0.667407949953    -1.226433799135    -0.005464752217    12.000000000000
         C           -0.667476949953     1.226394200865    -0.005471752217    12.000000000000
         C            1.404066050047     0.000039200865    -0.009263752217    12.000000000000
         C            1.499441050047     2.525323200865     0.014956247783    12.000000000000
         C            1.499590050047    -2.525234799135     0.014952247783    12.000000000000
         H           -1.219007949953    -2.165964799135    -0.012325752217     1.007825032230
         H           -1.219126949953     2.165896200865    -0.012337752217     1.007825032230
         H            2.493123050047     0.000068200865    -0.022493752217     1.007825032230
         H           -3.190509949953     0.828556200865    -0.462100752217     1.007825032230
         H           -3.190468949953    -0.828594799135    -0.462347752217     1.007825032230
         H           -3.159689649953    -0.000225399135     0.929836947783     1.007825032230
         H            0.883104050047     3.360591200865    -0.326094752217     1.007825032230
         H            1.840982050047     2.749559200865     1.030451247783     1.007825032230
         H            2.381457050047     2.467578200865    -0.627489752217     1.007825032230
         H            2.381426050047    -2.467534799135    -0.627746752217     1.007825032230
         H            0.883210050047    -3.360592799135    -0.325800752217     1.007825032230
         H            1.841427050047    -2.749292799135     1.030385247783     1.007825032230

  Basis Set: AUG-CC-PVTZ
    Blend: AUG-CC-PVTZ
  Basis Set: (AUG-CC-PVTZ AUX)
    Blend: AUG-CC-PVTZ-JKFIT
	 Reference Energy          =    -364.2940600908204374 [Eh]
	 Singles Energy            =      -0.0000000000000000 [Eh]
	 Same-Spin Energy          =      -0.3968878607291544 [Eh]
	 Opposite-Spin Energy      =      -1.3045286430650416 [Eh]
	 Correlation Energy        =      -1.7014165037941960 [Eh]
	 Total Energy              =    -365.9954765946146154 [Eh]

	 ================> DF-SCS-MP2 Energies <==================
	-----------------------------------------------------------
	 SCS Same-Spin Scale       =       0.3333333333333333 [-]
	 SCS Opposite-Spin Scale   =       1.2000000000000000 [-]
	 SCS Same-Spin Energy      =      -0.1322959535763848 [Eh]
	 SCS Opposite-Spin Energy  =      -1.5654343716780499 [Eh]
	 SCS Correlation Energy    =      -1.6977303252544347 [Eh]
	 SCS Total Energy          =    -365.9917904160748776 [Eh]
	-----------------------------------------------------------

  Dipole Moment: [D]
     X:    -8.3300      Y:    -0.0002      Z:     0.1008     Total:     8.3306

*** Psi4 exiting successfully. Buy a developer a beer!
