                               Psi4 1.4a3.dev225

  ==> Input File <==

--------------------------------------------------------------------------
#psi4
#
memory 32 gb

molecule  {
1 1
  N       -2.8138210    -0.0000810     0.0131690
  C       -1.3233890    -0.0000370    -0.0148680
  C        0.7280520     1.2302730    -0.0129860
  C        0.7281180    -1.2302340    -0.0129780
  C       -0.6725800    -1.2264340    -0.0069900
  C       -0.6726490     1.2263940    -0.0069970
  C        1.4228312    -0.0438586    -0.0107106
  C        1.4942690     2.5253230     0.0134310
  C        1.4944180    -2.5252350     0.0134270
  H       -1.2241800    -2.1659650    -0.0138510
  H       -1.2242990     2.1658960    -0.0138630
  H        2.4879510     0.0000680    -0.0240190
  H       -3.1956820     0.8285560    -0.4636260
  H       -3.1956410    -0.8285950    -0.4638730
  H       -3.1827690    -0.0002330     0.9749950
  H        0.8779320     3.3605910    -0.3276200
  H        1.8358100     2.7495590     1.0289260
  H        2.3762850     2.4675780    -0.6290150
  H        2.3762540    -2.4675350    -0.6292720
  H        0.8780380    -3.3605930    -0.3273260
  H        1.8362550    -2.7492930     1.0288600
units angstrom
no_reorient  #important for SAPT in psi4, default
symmetry c1  #important for SAPT in psi4, default
}

set PROPERTIES_ORIGIN ["COM"]
properties('MP2/aug-cc-pvtz', properties = ['dipole'])
--------------------------------------------------------------------------

    Molecular point group: c1
  Charge       = 1
  Multiplicity = 1
  Basis Set: AUG-CC-PVTZ
    Blend: AUG-CC-PVTZ
  Basis Set: (AUG-CC-PVTZ AUX)
    Blend: AUG-CC-PVTZ-JKFIT

    Orbital Energies [Eh]
    ---------------------

    Doubly Occupied:

       1A    -15.888867     2A    -11.459464     3A    -11.400845
       4A    -11.395244     5A    -11.392469     6A    -11.390154
       7A    -11.372059     8A    -11.346081     9A    -11.342952
      10A     -1.502732    11A     -1.307461    12A     -1.204600
      13A     -1.181576    14A     -1.083341    15A     -1.068853
      16A     -0.990484    17A     -0.965126    18A     -0.949826
      19A     -0.905487    20A     -0.855915    21A     -0.824515
      22A     -0.793926    23A     -0.724306    24A     -0.715036
      25A     -0.710010    26A     -0.690157    27A     -0.682731
      28A     -0.656766    29A     -0.645993    30A     -0.634029
      31A     -0.621502    32A     -0.486640    33A     -0.473115

  @DF-RHF Final Energy:  -364.29121301273102

   => Energetics <=

    Nuclear Repulsion Energy =            431.9643529634867036
    One-Electron Energy =               -1337.1866143783213374
    Two-Electron Energy =                 540.9310484021036700
    Total Energy =                       -364.2912130127309638
  Basis Set: (AUG-CC-PVTZ AUX)
    Blend: AUG-CC-PVTZ-RI
    Molecular point group: c1

    Geometry (in Angstrom), charge = 1, multiplicity = 1:

       Center              X                  Y                   Z               Mass
    ------------   -----------------  -----------------  -----------------  -----------------
         N           -2.810853746396     0.004233629298     0.014301204478    14.003074004430
         C           -1.320421746396     0.004277629298    -0.013735795522    12.000000000000
         C            0.731019253604     1.234587629298    -0.011853795522    12.000000000000
         C            0.731085253604    -1.225919370702    -0.011845795522    12.000000000000
         C           -0.669612746396    -1.222119370702    -0.005857795522    12.000000000000
         C           -0.669681746396     1.230708629298    -0.005864795522    12.000000000000
         C            1.425798453604    -0.039543970702    -0.009578395522    12.000000000000
         C            1.497236253604     2.529637629298     0.014563204478    12.000000000000
         C            1.497385253604    -2.520920370702     0.014559204478    12.000000000000
         H           -1.221212746396    -2.161650370702    -0.012718795522     1.007825032230
         H           -1.221331746396     2.170210629298    -0.012730795522     1.007825032230
         H            2.490918253604     0.004382629298    -0.022886795522     1.007825032230
         H           -3.192714746396     0.832870629298    -0.462493795522     1.007825032230
         H           -3.192673746396    -0.824280370702    -0.462740795522     1.007825032230
         H           -3.179801746396     0.004081629298     0.976127204478     1.007825032230
         H            0.880899253604     3.364905629298    -0.326487795522     1.007825032230
         H            1.838777253604     2.753873629298     1.030058204478     1.007825032230
         H            2.379252253604     2.471892629298    -0.627882795522     1.007825032230
         H            2.379221253604    -2.463220370702    -0.628139795522     1.007825032230
         H            0.881005253604    -3.356278370702    -0.326193795522     1.007825032230
         H            1.839222253604    -2.744978370702     1.029992204478     1.007825032230

  Basis Set: AUG-CC-PVTZ
    Blend: AUG-CC-PVTZ
  Basis Set: (AUG-CC-PVTZ AUX)
    Blend: AUG-CC-PVTZ-JKFIT
	 Reference Energy          =    -364.2912130127310206 [Eh]
	 Singles Energy            =      -0.0000000000000000 [Eh]
	 Same-Spin Energy          =      -0.3970654955554854 [Eh]
	 Opposite-Spin Energy      =      -1.3054577904920008 [Eh]
	 Correlation Energy        =      -1.7025232860474864 [Eh]
	 Total Energy              =    -365.9937362987785150 [Eh]

	 ================> DF-SCS-MP2 Energies <==================
	-----------------------------------------------------------
	 SCS Same-Spin Scale       =       0.3333333333333333 [-]
	 SCS Opposite-Spin Scale   =       1.2000000000000000 [-]
	 SCS Same-Spin Energy      =      -0.1323551651851618 [Eh]
	 SCS Opposite-Spin Energy  =      -1.5665493485904010 [Eh]
	 SCS Correlation Energy    =      -1.6989045137755627 [Eh]
	 SCS Total Energy          =    -365.9901175265065945 [Eh]
	-----------------------------------------------------------

  Dipole Moment: [D]
     X:    -8.3691      Y:     0.0839      Z:     0.1703     Total:     8.3713

*** Psi4 exiting successfully. Buy a developer a beer!
