                               Psi4 1.4a3.dev225

  ==> Input File <==

--------------------------------------------------------------------------
#psi4
#
memory 32 gb

molecule  {
1 1
  N       -2.8138210    -0.0000810     0.0131690
  C       -1.3233890    -0.0000370    -0.0148680
  C        0.7280520     1.2302730    -0.0129860
  C        0.7281180    -1.2302340    -0.0129780
  C       -0.6725800    -1.2264340    -0.0069900
  C       -0.6726490     1.2263940    -0.0069970
  C        1.3749568     0.0439366    -0.0108674
  C        1.4942690     2.5253230     0.0134310
  C        1.4944180    -2.5252350     0.0134270
  H       -1.2241800    -2.1659650    -0.0138510
  H       -1.2242990     2.1658960    -0.0138630
  H        2.4879510     0.0000680    -0.0240190
  H       -3.1956820     0.8285560    -0.4636260
  H       -3.1956410    -0.8285950    -0.4638730
  H       -3.1827690    -0.0002330     0.9749950
  H        0.8779320     3.3605910    -0.3276200
  H        1.8358100     2.7495590     1.0289260
  H        2.3762850     2.4675780    -0.6290150
  H        2.3762540    -2.4675350    -0.6292720
  H        0.8780380    -3.3605930    -0.3273260
  H        1.8362550    -2.7492930     1.0288600
units angstrom
no_reorient  #important for SAPT in psi4, default
symmetry c1  #important for SAPT in psi4, default
}

set PROPERTIES_ORIGIN ["COM"]
properties('MP2/aug-cc-pvtz', properties = ['dipole'])
--------------------------------------------------------------------------

    Molecular point group: c1
  Charge       = 1
  Multiplicity = 1
  Basis Set: AUG-CC-PVTZ
    Blend: AUG-CC-PVTZ
  Basis Set: (AUG-CC-PVTZ AUX)
    Blend: AUG-CC-PVTZ-JKFIT

    Orbital Energies [Eh]
    ---------------------

    Doubly Occupied:

       1A    -15.888622     2A    -11.458548     3A    -11.398726
       4A    -11.395321     5A    -11.392499     6A    -11.387170
       7A    -11.370653     8A    -11.347023     9A    -11.343826
      10A     -1.502446    11A     -1.311683    12A     -1.206498
      13A     -1.181992    14A     -1.083404    15A     -1.071426
      16A     -0.987668    17A     -0.966822    18A     -0.949574
      19A     -0.909907    20A     -0.856055    21A     -0.816639
      22A     -0.795980    23A     -0.723988    24A     -0.715750
      25A     -0.711639    26A     -0.690667    27A     -0.676602
      28A     -0.656934    29A     -0.641589    30A     -0.635400
      31A     -0.625980    32A     -0.490467    33A     -0.473832

  @DF-RHF Final Energy:  -364.29129390816809

   => Energetics <=

    Nuclear Repulsion Energy =            432.7507300086521127
    One-Electron Energy =               -1338.7533941092488021
    Two-Electron Energy =                 541.7113701924286033
    Total Energy =                       -364.2912939081680861
  Basis Set: (AUG-CC-PVTZ AUX)
    Blend: AUG-CC-PVTZ-RI
    Molecular point group: c1

    Geometry (in Angstrom), charge = 1, multiplicity = 1:

       Center              X                  Y                   Z               Mass
    ------------   -----------------  -----------------  -----------------  -----------------
         N           -2.806148529064    -0.004395105404     0.014316615180    14.003074004430
         C           -1.315716529064    -0.004351105404    -0.013720384820    12.000000000000
         C            0.735724470936     1.225958894596    -0.011838384820    12.000000000000
         C            0.735790470936    -1.234548105404    -0.011830384820    12.000000000000
         C           -0.664907529064    -1.230748105404    -0.005842384820    12.000000000000
         C           -0.664976529064     1.222079894596    -0.005849384820    12.000000000000
         C            1.382629270936     0.039622494596    -0.009719784820    12.000000000000
         C            1.501941470936     2.521008894596     0.014578615180    12.000000000000
         C            1.502090470936    -2.529549105404     0.014574615180    12.000000000000
         H           -1.216507529064    -2.170279105404    -0.012703384820     1.007825032230
         H           -1.216626529064     2.161581894596    -0.012715384820     1.007825032230
         H            2.495623470936    -0.004246105404    -0.022871384820     1.007825032230
         H           -3.188009529064     0.824241894596    -0.462478384820     1.007825032230
         H           -3.187968529064    -0.832909105404    -0.462725384820     1.007825032230
         H           -3.175096529064    -0.004547105404     0.976142615180     1.007825032230
         H            0.885604470936     3.356276894596    -0.326472384820     1.007825032230
         H            1.843482470936     2.745244894596     1.030073615180     1.007825032230
         H            2.383957470936     2.463263894596    -0.627867384820     1.007825032230
         H            2.383926470936    -2.471849105404    -0.628124384820     1.007825032230
         H            0.885710470936    -3.364907105404    -0.326178384820     1.007825032230
         H            1.843927470936    -2.753607105404     1.030007615180     1.007825032230

  Basis Set: AUG-CC-PVTZ
    Blend: AUG-CC-PVTZ
  Basis Set: (AUG-CC-PVTZ AUX)
    Blend: AUG-CC-PVTZ-JKFIT
	 Reference Energy          =    -364.2912939081680861 [Eh]
	 Singles Energy            =      -0.0000000000000000 [Eh]
	 Same-Spin Energy          =      -0.3971686459083318 [Eh]
	 Opposite-Spin Energy      =      -1.3053835400562783 [Eh]
	 Correlation Energy        =      -1.7025521859646102 [Eh]
	 Total Energy              =    -365.9938460941327207 [Eh]

	 ================> DF-SCS-MP2 Energies <==================
	-----------------------------------------------------------
	 SCS Same-Spin Scale       =       0.3333333333333333 [-]
	 SCS Opposite-Spin Scale   =       1.2000000000000000 [-]
	 SCS Same-Spin Energy      =      -0.1323895486361106 [Eh]
	 SCS Opposite-Spin Energy  =      -1.5664602480675340 [Eh]
	 SCS Correlation Energy    =      -1.6988497967036447 [Eh]
	 SCS Total Energy          =    -365.9901437048717412 [Eh]
	-----------------------------------------------------------

  Dipole Moment: [D]
     X:    -8.3718      Y:    -0.0884      Z:     0.1701     Total:     8.3740

*** Psi4 exiting successfully. Buy a developer a beer!
