                               Psi4 1.4a3.dev225

  ==> Input File <==

--------------------------------------------------------------------------
#psi4
#
memory 32 gb

molecule  {
1 1
  N       -2.8138210    -0.0000810     0.0131690
  C       -1.3233890    -0.0000370    -0.0148680
  C        0.7280520     1.2302730    -0.0129860
  C        0.7281180    -1.2302340    -0.0129780
  C       -0.6725800    -1.2264340    -0.0069900
  C       -0.6726490     1.2263940    -0.0069970
  C        1.3988940     0.0000390    -0.0107890
  C        1.4942690     2.5253230     0.0134310
  C        1.4944180    -2.5252350     0.0134270
  H       -1.2241800    -2.1659650    -0.0138510
  H       -1.2242990     2.1658960    -0.0138630
  H        2.4879510     0.0000680    -0.0240190
  H       -3.1956820     0.8285560    -0.4636260
  H       -3.2141856    -0.8688352    -0.4870425
  H       -3.1827690    -0.0002330     0.9749950
  H        0.8779320     3.3605910    -0.3276200
  H        1.8358100     2.7495590     1.0289260
  H        2.3762850     2.4675780    -0.6290150
  H        2.3762540    -2.4675350    -0.6292720
  H        0.8780380    -3.3605930    -0.3273260
  H        1.8362550    -2.7492930     1.0288600
units angstrom
no_reorient  #important for SAPT in psi4, default
symmetry c1  #important for SAPT in psi4, default
}

set PROPERTIES_ORIGIN ["COM"]
properties('MP2/aug-cc-pvtz', properties = ['dipole'])
--------------------------------------------------------------------------

    Molecular point group: c1
  Charge       = 1
  Multiplicity = 1
  Basis Set: AUG-CC-PVTZ
    Blend: AUG-CC-PVTZ
  Basis Set: (AUG-CC-PVTZ AUX)
    Blend: AUG-CC-PVTZ-JKFIT

    Orbital Energies [Eh]
    ---------------------

    Doubly Occupied:

       1A    -15.891425     2A    -11.458471     3A    -11.394558
       4A    -11.394519     5A    -11.393202     6A    -11.393121
       7A    -11.371219     8A    -11.344830     9A    -11.344780
      10A     -1.495127    11A     -1.308368    12A     -1.204551
      13A     -1.180821    14A     -1.082434    15A     -1.070131
      16A     -0.987480    17A     -0.960858    18A     -0.943987
      19A     -0.902341    20A     -0.854878    21A     -0.819867
      22A     -0.793640    23A     -0.723813    24A     -0.715110
      25A     -0.710462    26A     -0.690153    27A     -0.678899
      28A     -0.656591    29A     -0.640846    30A     -0.634159
      31A     -0.628259    32A     -0.485998    33A     -0.474735

  @DF-RHF Final Energy:  -364.29085594982962

   => Energetics <=

    Nuclear Repulsion Energy =            432.0869664944850683
    One-Electron Energy =               -1337.4963769652517840
    Two-Electron Energy =                 541.1185545209370957
    Total Energy =                       -364.2908559498296199
  Basis Set: (AUG-CC-PVTZ AUX)
    Blend: AUG-CC-PVTZ-RI
    Molecular point group: c1

    Geometry (in Angstrom), charge = 1, multiplicity = 1:

       Center              X                  Y                   Z               Mass
    ------------   -----------------  -----------------  -----------------  -----------------
         N           -2.808348065042     0.000251416622     0.014500157829    14.003074004430
         C           -1.317916065042     0.000295416622    -0.013536842171    12.000000000000
         C            0.733524934958     1.230605416622    -0.011654842171    12.000000000000
         C            0.733590934958    -1.229901583378    -0.011646842171    12.000000000000
         C           -0.667107065042    -1.226101583378    -0.005658842171    12.000000000000
         C           -0.667176065042     1.226726416622    -0.005665842171    12.000000000000
         C            1.404366934958     0.000371416622    -0.009457842171    12.000000000000
         C            1.499741934958     2.525655416622     0.014762157829    12.000000000000
         C            1.499890934958    -2.524902583378     0.014758157829    12.000000000000
         H           -1.218707065042    -2.165632583378    -0.012519842171     1.007825032230
         H           -1.218826065042     2.166228416622    -0.012531842171     1.007825032230
         H            2.493423934958     0.000400416622    -0.022687842171     1.007825032230
         H           -3.190209065042     0.828888416622    -0.462294842171     1.007825032230
         H           -3.208712665042    -0.868502783378    -0.485711342171     1.007825032230
         H           -3.177296065042     0.000099416622     0.976326157829     1.007825032230
         H            0.883404934958     3.360923416622    -0.326288842171     1.007825032230
         H            1.841282934958     2.749891416622     1.030257157829     1.007825032230
         H            2.381757934958     2.467910416622    -0.627683842171     1.007825032230
         H            2.381726934958    -2.467202583378    -0.627940842171     1.007825032230
         H            0.883510934958    -3.360260583378    -0.325994842171     1.007825032230
         H            1.841727934958    -2.748960583378     1.030191157829     1.007825032230

  Basis Set: AUG-CC-PVTZ
    Blend: AUG-CC-PVTZ
  Basis Set: (AUG-CC-PVTZ AUX)
    Blend: AUG-CC-PVTZ-JKFIT
	 Reference Energy          =    -364.2908559498296199 [Eh]
	 Singles Energy            =      -0.0000000000000000 [Eh]
	 Same-Spin Energy          =      -0.3974650754073173 [Eh]
	 Opposite-Spin Energy      =      -1.3062217035977164 [Eh]
	 Correlation Energy        =      -1.7036867790050336 [Eh]
	 Total Energy              =    -365.9945427288346309 [Eh]

	 ================> DF-SCS-MP2 Energies <==================
	-----------------------------------------------------------
	 SCS Same-Spin Scale       =       0.3333333333333333 [-]
	 SCS Opposite-Spin Scale   =       1.2000000000000000 [-]
	 SCS Same-Spin Energy      =      -0.1324883584691058 [Eh]
	 SCS Opposite-Spin Energy  =      -1.5674660443172597 [Eh]
	 SCS Correlation Energy    =      -1.6999544027863653 [Eh]
	 SCS Total Energy          =    -365.9908103526159948 [Eh]
	-----------------------------------------------------------

  Dipole Moment: [D]
     X:    -8.4011      Y:    -0.0527      Z:     0.1359     Total:     8.4023

*** Psi4 exiting successfully. Buy a developer a beer!
