                               Psi4 1.4a3.dev225

  ==> Input File <==

--------------------------------------------------------------------------
#psi4
#
memory 32 gb

molecule  {
1 1
  N       -2.8138210    -0.0000810     0.0131690
  C       -1.3233890    -0.0000370    -0.0148680
  C        0.7280520     1.2302730    -0.0129860
  C        0.7281180    -1.2302340    -0.0129780
  C       -0.5886225    -1.1780451    -0.0059742
  C       -0.6726490     1.2263940    -0.0069970
  C        1.3988940     0.0000390    -0.0107890
  C        1.4942690     2.5253230     0.0134310
  C        1.4944180    -2.5252350     0.0134270
  H       -1.2241800    -2.1659650    -0.0138510
  H       -1.2242990     2.1658960    -0.0138630
  H        2.4879510     0.0000680    -0.0240190
  H       -3.1956820     0.8285560    -0.4636260
  H       -3.1956410    -0.8285950    -0.4638730
  H       -3.1827690    -0.0002330     0.9749950
  H        0.8779320     3.3605910    -0.3276200
  H        1.8358100     2.7495590     1.0289260
  H        2.3762850     2.4675780    -0.6290150
  H        2.3762540    -2.4675350    -0.6292720
  H        0.8780380    -3.3605930    -0.3273260
  H        1.8362550    -2.7492930     1.0288600
units angstrom
no_reorient  #important for SAPT in psi4, default
symmetry c1  #important for SAPT in psi4, default
}

set PROPERTIES_ORIGIN ["COM"]
properties('MP2/aug-cc-pvtz', properties = ['dipole'])
--------------------------------------------------------------------------

    Molecular point group: c1
  Charge       = 1
  Multiplicity = 1
  Basis Set: AUG-CC-PVTZ
    Blend: AUG-CC-PVTZ
  Basis Set: (AUG-CC-PVTZ AUX)
    Blend: AUG-CC-PVTZ-JKFIT

    Orbital Energies [Eh]
    ---------------------

    Doubly Occupied:

       1A    -15.892739     2A    -11.456703     3A    -11.396856
       4A    -11.392350     5A    -11.390845     6A    -11.382326
       7A    -11.373363     8A    -11.344943     9A    -11.343935
      10A     -1.504209    11A     -1.318544    12A     -1.210994
      13A     -1.181266    14A     -1.080262    15A     -1.069598
      16A     -0.995839    17A     -0.969048    18A     -0.952039
      19A     -0.906969    20A     -0.858934    21A     -0.817780
      22A     -0.797353    23A     -0.722331    24A     -0.713389
      25A     -0.701416    26A     -0.690296    27A     -0.677483
      28A     -0.656956    29A     -0.644835    30A     -0.637895
      31A     -0.620818    32A     -0.488037    33A     -0.479928

  @DF-RHF Final Energy:  -364.28251134556990

   => Energetics <=

    Nuclear Repulsion Energy =            433.7567844800171315
    One-Electron Energy =               -1340.7380362416627122
    Two-Electron Energy =                 542.6987404160756796
    Total Energy =                       -364.2825113455699011
  Basis Set: (AUG-CC-PVTZ AUX)
    Blend: AUG-CC-PVTZ-RI
    Molecular point group: c1

    Geometry (in Angstrom), charge = 1, multiplicity = 1:

       Center              X                  Y                   Z               Mass
    ------------   -----------------  -----------------  -----------------  -----------------
         N           -2.816752693553    -0.004836521748     0.014209074431    14.003074004430
         C           -1.326320693553    -0.004792521748    -0.013827925569    12.000000000000
         C            0.725120306447     1.225517478252    -0.011945925569    12.000000000000
         C            0.725186306447    -1.234989521748    -0.011937925569    12.000000000000
         C           -0.591554193553    -1.182800621748    -0.004934125569    12.000000000000
         C           -0.675580693553     1.221638478252    -0.005956925569    12.000000000000
         C            1.395962306447    -0.004716521748    -0.009748925569    12.000000000000
         C            1.491337306447     2.520567478252     0.014471074431    12.000000000000
         C            1.491486306447    -2.529990521748     0.014467074431    12.000000000000
         H           -1.227111693553    -2.170720521748    -0.012810925569     1.007825032230
         H           -1.227230693553     2.161140478252    -0.012822925569     1.007825032230
         H            2.485019306447    -0.004687521748    -0.022978925569     1.007825032230
         H           -3.198613693553     0.823800478252    -0.462585925569     1.007825032230
         H           -3.198572693553    -0.833350521748    -0.462832925569     1.007825032230
         H           -3.185700693553    -0.004988521748     0.976035074431     1.007825032230
         H            0.875000306447     3.355835478252    -0.326579925569     1.007825032230
         H            1.832878306447     2.744803478252     1.029966074431     1.007825032230
         H            2.373353306447     2.462822478252    -0.627974925569     1.007825032230
         H            2.373322306447    -2.472290521748    -0.628231925569     1.007825032230
         H            0.875106306447    -3.365348521748    -0.326285925569     1.007825032230
         H            1.833323306447    -2.754048521748     1.029900074431     1.007825032230

  Basis Set: AUG-CC-PVTZ
    Blend: AUG-CC-PVTZ
  Basis Set: (AUG-CC-PVTZ AUX)
    Blend: AUG-CC-PVTZ-JKFIT
	 Reference Energy          =    -364.2825113455699011 [Eh]
	 Singles Energy            =      -0.0000000000000000 [Eh]
	 Same-Spin Energy          =      -0.3973950936978169 [Eh]
	 Opposite-Spin Energy      =      -1.3057473940371991 [Eh]
	 Correlation Energy        =      -1.7031424877350161 [Eh]
	 Total Energy              =    -365.9856538333049230 [Eh]

	 ================> DF-SCS-MP2 Energies <==================
	-----------------------------------------------------------
	 SCS Same-Spin Scale       =       0.3333333333333333 [-]
	 SCS Opposite-Spin Scale   =       1.2000000000000000 [-]
	 SCS Same-Spin Energy      =      -0.1324650312326056 [Eh]
	 SCS Opposite-Spin Energy  =      -1.5668968728446389 [Eh]
	 SCS Correlation Energy    =      -1.6993619040772445 [Eh]
	 SCS Total Energy          =    -365.9818732496471512 [Eh]
	-----------------------------------------------------------

  Dipole Moment: [D]
     X:    -8.4618      Y:     0.0261      Z:     0.1683     Total:     8.4635

*** Psi4 exiting successfully. Buy a developer a beer!
