                               Psi4 1.4a3.dev225

  ==> Input File <==

--------------------------------------------------------------------------
#psi4
#
memory 32 gb

molecule  {
1 1
  N       -2.8138210    -0.0000810     0.0131690
  C       -1.3233890    -0.0000370    -0.0148680
  C        0.7280520     1.2302730    -0.0129860
  C        0.7281180    -1.2302340    -0.0129780
  C       -0.6725800    -1.2264340    -0.0069900
  C       -0.6726490     1.2263940    -0.0069970
  C        1.3988940     0.0000390    -0.0107890
  C        1.4942690     2.5253230     0.0134310
  C        1.4944180    -2.5252350     0.0134270
  H       -1.2241800    -2.1659650    -0.0138510
  H       -1.2242990     2.1658960    -0.0138630
  H        2.4879510     0.0000680    -0.0240190
  H       -3.1956820     0.8285560    -0.4636260
  H       -3.1956410    -0.8285950    -0.4638730
  H       -3.1827690    -0.0002330     0.9749950
  H        0.8779320     3.3605910    -0.3276200
  H        1.8358100     2.7495590     1.0289260
  H        2.3762850     2.4675780    -0.6290150
  H        2.3762540    -2.4675350    -0.6292720
  H        0.8780380    -3.3605930    -0.3273260
  H        1.8050257    -2.7288237     0.9360929
units angstrom
no_reorient  #important for SAPT in psi4, default
symmetry c1  #important for SAPT in psi4, default
}

set PROPERTIES_ORIGIN ["COM"]
properties('MP2/aug-cc-pvtz', properties = ['dipole'])
--------------------------------------------------------------------------

    Molecular point group: c1
  Charge       = 1
  Multiplicity = 1
  Basis Set: AUG-CC-PVTZ
    Blend: AUG-CC-PVTZ
  Basis Set: (AUG-CC-PVTZ AUX)
    Blend: AUG-CC-PVTZ-JKFIT

    Orbital Energies [Eh]
    ---------------------

    Doubly Occupied:

       1A    -15.888646     2A    -11.458821     3A    -11.394786
       4A    -11.394459     5A    -11.393455     6A    -11.393243
       7A    -11.371469     8A    -11.344952     9A    -11.333243
      10A     -1.502490    11A     -1.309276    12A     -1.205885
      13A     -1.182715    14A     -1.087375    15A     -1.073760
      16A     -0.989256    17A     -0.967547    18A     -0.949611
      19A     -0.908858    20A     -0.856857    21A     -0.820451
      22A     -0.794842    23A     -0.726577    24A     -0.720690
      25A     -0.713987    26A     -0.696684    27A     -0.678742
      28A     -0.657168    29A     -0.641203    30A     -0.637376
      31A     -0.628251    32A     -0.486917    33A     -0.475529

  @DF-RHF Final Energy:  -364.28837069370900

   => Energetics <=

    Nuclear Repulsion Energy =            432.7995112510195099
    One-Electron Energy =               -1338.8055248418411338
    Two-Electron Energy =                 541.7176428971125688
    Total Energy =                       -364.2883706937089983
  Basis Set: (AUG-CC-PVTZ AUX)
    Blend: AUG-CC-PVTZ-RI
    Molecular point group: c1

    Geometry (in Angstrom), charge = 1, multiplicity = 1:

       Center              X                  Y                   Z               Mass
    ------------   -----------------  -----------------  -----------------  -----------------
         N           -2.808243361725    -0.000249697792     0.015074637285    14.003074004430
         C           -1.317811361725    -0.000205697792    -0.012962362715    12.000000000000
         C            0.733629638275     1.230104302208    -0.011080362715    12.000000000000
         C            0.733695638275    -1.230402697792    -0.011072362715    12.000000000000
         C           -0.667002361725    -1.226602697792    -0.005084362715    12.000000000000
         C           -0.667071361725     1.226225302208    -0.005091362715    12.000000000000
         C            1.404471638275    -0.000129697792    -0.008883362715    12.000000000000
         C            1.499846638275     2.525154302208     0.015336637285    12.000000000000
         C            1.499995638275    -2.525403697792     0.015332637285    12.000000000000
         H           -1.218602361725    -2.166133697792    -0.011945362715     1.007825032230
         H           -1.218721361725     2.165727302208    -0.011957362715     1.007825032230
         H            2.493528638275    -0.000100697792    -0.022113362715     1.007825032230
         H           -3.190104361725     0.828387302208    -0.461720362715     1.007825032230
         H           -3.190063361725    -0.828763697792    -0.461967362715     1.007825032230
         H           -3.177191361725    -0.000401697792     0.976900637285     1.007825032230
         H            0.883509638275     3.360422302208    -0.325714362715     1.007825032230
         H            1.841387638275     2.749390302208     1.030831637285     1.007825032230
         H            2.381862638275     2.467409302208    -0.627109362715     1.007825032230
         H            2.381831638275    -2.467703697792    -0.627366362715     1.007825032230
         H            0.883615638275    -3.360761697792    -0.325420362715     1.007825032230
         H            1.810603338275    -2.728992397792     0.937998537285     1.007825032230

  Basis Set: AUG-CC-PVTZ
    Blend: AUG-CC-PVTZ
  Basis Set: (AUG-CC-PVTZ AUX)
    Blend: AUG-CC-PVTZ-JKFIT
	 Reference Energy          =    -364.2883706937089983 [Eh]
	 Singles Energy            =      -0.0000000000000000 [Eh]
	 Same-Spin Energy          =      -0.3971624527172642 [Eh]
	 Opposite-Spin Energy      =      -1.3048301046598514 [Eh]
	 Correlation Energy        =      -1.7019925573771157 [Eh]
	 Total Energy              =    -365.9903632510861371 [Eh]

	 ================> DF-SCS-MP2 Energies <==================
	-----------------------------------------------------------
	 SCS Same-Spin Scale       =       0.3333333333333333 [-]
	 SCS Opposite-Spin Scale   =       1.2000000000000000 [-]
	 SCS Same-Spin Energy      =      -0.1323874842390881 [Eh]
	 SCS Opposite-Spin Energy  =      -1.5657961255918216 [Eh]
	 SCS Correlation Energy    =      -1.6981836098309095 [Eh]
	 SCS Total Energy          =    -365.9865543035398900 [Eh]
	-----------------------------------------------------------

  Dipole Moment: [D]
     X:    -8.3641      Y:    -0.0016      Z:     0.1781     Total:     8.3660

*** Psi4 exiting successfully. Buy a developer a beer!
