                               Psi4 1.4a3.dev225

  ==> Input File <==

--------------------------------------------------------------------------
#psi4
#
memory 32 gb

molecule  {
1 1
  N       -2.8138210    -0.0000810     0.0131690
  C       -1.3233890    -0.0000370    -0.0148680
  C        0.7280520     1.2302730    -0.0129860
  C        0.7281180    -1.2302340    -0.0129780
  C       -0.6725800    -1.2264340    -0.0069900
  C       -0.6726490     1.2263940    -0.0069970
  C        1.3988940     0.0000390    -0.0107890
  C        1.4942690     2.5253230     0.0134310
  C        1.4944180    -2.5252350     0.0134270
  H       -1.2241800    -2.1659650    -0.0138510
  H       -1.2242990     2.1658960    -0.0138630
  H        2.4879510     0.0000680    -0.0240190
  H       -3.1956820     0.8285560    -0.4636260
  H       -3.2698196    -0.9895557    -0.5565510
  H       -3.1827690    -0.0002330     0.9749950
  H        0.8779320     3.3605910    -0.3276200
  H        1.8358100     2.7495590     1.0289260
  H        2.3762850     2.4675780    -0.6290150
  H        2.3762540    -2.4675350    -0.6292720
  H        0.8780380    -3.3605930    -0.3273260
  H        1.8362550    -2.7492930     1.0288600
units angstrom
no_reorient  #important for SAPT in psi4, default
symmetry c1  #important for SAPT in psi4, default
}

set PROPERTIES_ORIGIN ["COM"]
properties('MP2/aug-cc-pvtz', properties = ['dipole'])
--------------------------------------------------------------------------

    Molecular point group: c1
  Charge       = 1
  Multiplicity = 1
  Basis Set: AUG-CC-PVTZ
    Blend: AUG-CC-PVTZ
  Basis Set: (AUG-CC-PVTZ AUX)
    Blend: AUG-CC-PVTZ-JKFIT

    Orbital Energies [Eh]
    ---------------------

    Doubly Occupied:

       1A    -15.896848     2A    -11.457105     3A    -11.393727
       4A    -11.393589     5A    -11.392295     6A    -11.391909
       7A    -11.370254     8A    -11.344374     9A    -11.344164
      10A     -1.477951    11A     -1.306020    12A     -1.203632
      13A     -1.177689    14A     -1.080748    15A     -1.069389
      16A     -0.984438    17A     -0.953862    18A     -0.930092
      19A     -0.878819    20A     -0.849973    21A     -0.817705
      22A     -0.788423    23A     -0.722866    24A     -0.714262
      25A     -0.709627    26A     -0.689605    27A     -0.678278
      28A     -0.655715    29A     -0.639960    30A     -0.632667
      31A     -0.627529    32A     -0.484667    33A     -0.473886

  @DF-RHF Final Energy:  -364.26672621685395

   => Energetics <=

    Nuclear Repulsion Energy =            431.4227043392748442
    One-Electron Energy =               -1336.3147226518647130
    Two-Electron Energy =                 540.6252920957359720
    Total Energy =                       -364.2667262168539537
  Basis Set: (AUG-CC-PVTZ AUX)
    Blend: AUG-CC-PVTZ-RI
    Molecular point group: c1

    Geometry (in Angstrom), charge = 1, multiplicity = 1:

       Center              X                  Y                   Z               Mass
    ------------   -----------------  -----------------  -----------------  -----------------
         N           -2.807888845326     0.001247879822     0.015073901827    14.003074004430
         C           -1.317456845326     0.001291879822    -0.012963098173    12.000000000000
         C            0.733984154674     1.231601879822    -0.011081098173    12.000000000000
         C            0.734050154674    -1.228905120178    -0.011073098173    12.000000000000
         C           -0.666647845326    -1.225105120178    -0.005085098173    12.000000000000
         C           -0.666716845326     1.227722879822    -0.005092098173    12.000000000000
         C            1.404826154674     0.001367879822    -0.008884098173    12.000000000000
         C            1.500201154674     2.526651879822     0.015335901827    12.000000000000
         C            1.500350154674    -2.523906120178     0.015331901827    12.000000000000
         H           -1.218247845326    -2.164636120178    -0.011946098173     1.007825032230
         H           -1.218366845326     2.167224879822    -0.011958098173     1.007825032230
         H            2.493883154674     0.001396879822    -0.022114098173     1.007825032230
         H           -3.189749845326     0.829884879822    -0.461721098173     1.007825032230
         H           -3.263887445326    -0.988226820178    -0.554646098173     1.007825032230
         H           -3.176836845326     0.001095879822     0.976899901827     1.007825032230
         H            0.883864154674     3.361919879822    -0.325715098173     1.007825032230
         H            1.841742154674     2.750887879822     1.030830901827     1.007825032230
         H            2.382217154674     2.468906879822    -0.627110098173     1.007825032230
         H            2.382186154674    -2.466206120178    -0.627367098173     1.007825032230
         H            0.883970154674    -3.359264120178    -0.325421098173     1.007825032230
         H            1.842187154674    -2.747964120178     1.030764901827     1.007825032230

  Basis Set: AUG-CC-PVTZ
    Blend: AUG-CC-PVTZ
  Basis Set: (AUG-CC-PVTZ AUX)
    Blend: AUG-CC-PVTZ-JKFIT
	 Reference Energy          =    -364.2667262168539537 [Eh]
	 Singles Energy            =      -0.0000000000000000 [Eh]
	 Same-Spin Energy          =      -0.3984536101859228 [Eh]
	 Opposite-Spin Energy      =      -1.3092963438997098 [Eh]
	 Correlation Energy        =      -1.7077499540856327 [Eh]
	 Total Energy              =    -365.9744761709395675 [Eh]

	 ================> DF-SCS-MP2 Energies <==================
	-----------------------------------------------------------
	 SCS Same-Spin Scale       =       0.3333333333333333 [-]
	 SCS Opposite-Spin Scale   =       1.2000000000000000 [-]
	 SCS Same-Spin Energy      =      -0.1328178700619743 [Eh]
	 SCS Opposite-Spin Energy  =      -1.5711556126796518 [Eh]
	 SCS Correlation Energy    =      -1.7039734827416260 [Eh]
	 SCS Total Energy          =    -365.9706996995955706 [Eh]
	-----------------------------------------------------------

  Dipole Moment: [D]
     X:    -8.5009      Y:    -0.2192      Z:     0.0277     Total:     8.5038

*** Psi4 exiting successfully. Buy a developer a beer!
