                               Psi4 1.4a3.dev225

  ==> Input File <==

--------------------------------------------------------------------------
#psi4
#
memory 32 gb

molecule  {
1 1
  N       -2.8138210    -0.0000810     0.0131690
  C       -1.3233890    -0.0000370    -0.0148680
  C        0.7280520     1.2302730    -0.0129860
  C        0.7281180    -1.2302340    -0.0129780
  C       -0.6725800    -1.2264340    -0.0069900
  C       -0.6726490     1.2263940    -0.0069970
  C        1.3988940     0.0000390    -0.0107890
  C        1.5197252     2.5683487     0.0143087
  C        1.4944180    -2.5252350     0.0134270
  H       -1.2241800    -2.1659650    -0.0138510
  H       -1.2242990     2.1658960    -0.0138630
  H        2.4879510     0.0000680    -0.0240190
  H       -3.1956820     0.8285560    -0.4636260
  H       -3.1956410    -0.8285950    -0.4638730
  H       -3.1827690    -0.0002330     0.9749950
  H        0.8779320     3.3605910    -0.3276200
  H        1.8358100     2.7495590     1.0289260
  H        2.3762850     2.4675780    -0.6290150
  H        2.3762540    -2.4675350    -0.6292720
  H        0.8780380    -3.3605930    -0.3273260
  H        1.8362550    -2.7492930     1.0288600
units angstrom
no_reorient  #important for SAPT in psi4, default
symmetry c1  #important for SAPT in psi4, default
}

set PROPERTIES_ORIGIN ["COM"]
properties('MP2/aug-cc-pvtz', properties = ['dipole'])
--------------------------------------------------------------------------

    Molecular point group: c1
  Charge       = 1
  Multiplicity = 1
  Basis Set: AUG-CC-PVTZ
    Blend: AUG-CC-PVTZ
  Basis Set: (AUG-CC-PVTZ AUX)
    Blend: AUG-CC-PVTZ-JKFIT

    Orbital Energies [Eh]
    ---------------------

    Doubly Occupied:

       1A    -15.888542     2A    -11.458685     3A    -11.395861
       4A    -11.394653     5A    -11.393644     6A    -11.393357
       7A    -11.371467     8A    -11.344845     9A    -11.344461
      10A     -1.502381    11A     -1.307964    12A     -1.201684
      13A     -1.180089    14A     -1.082515    15A     -1.070437
      16A     -0.988513    17A     -0.966711    18A     -0.949508
      19A     -0.907618    20A     -0.855547    21A     -0.819919
      22A     -0.793758    23A     -0.723102    24A     -0.712051
      25A     -0.709624    26A     -0.693456    27A     -0.683020
      28A     -0.658844    29A     -0.641778    30A     -0.636778
      31A     -0.621741    32A     -0.486917    33A     -0.475586

  @DF-RHF Final Energy:  -364.29287053629093

   => Energetics <=

    Nuclear Repulsion Energy =            431.5060487927393069
    One-Electron Energy =               -1336.2877293723631738
    Two-Electron Energy =                 540.4888100433329328
    Total Energy =                       -364.2928705362909341
  Basis Set: (AUG-CC-PVTZ AUX)
    Blend: AUG-CC-PVTZ-RI
    Molecular point group: c1

    Geometry (in Angstrom), charge = 1, multiplicity = 1:

       Center              X                  Y                   Z               Mass
    ------------   -----------------  -----------------  -----------------  -----------------
         N           -2.811003037564    -0.004309412863     0.014222647249    14.003074004430
         C           -1.320571037564    -0.004265412863    -0.013814352751    12.000000000000
         C            0.730869962436     1.226044587137    -0.011932352751    12.000000000000
         C            0.730935962436    -1.234462412863    -0.011924352751    12.000000000000
         C           -0.669762037564    -1.230662412863    -0.005936352751    12.000000000000
         C           -0.669831037564     1.222165587137    -0.005943352751    12.000000000000
         C            1.401711962436    -0.004189412863    -0.009735352751    12.000000000000
         C            1.522543162436     2.564120287137     0.015362347249    12.000000000000
         C            1.497235962436    -2.529463412863     0.014480647249    12.000000000000
         H           -1.221362037564    -2.170193412863    -0.012797352751     1.007825032230
         H           -1.221481037564     2.161667587137    -0.012809352751     1.007825032230
         H            2.490768962436    -0.004160412863    -0.022965352751     1.007825032230
         H           -3.192864037564     0.824327587137    -0.462572352751     1.007825032230
         H           -3.192823037564    -0.832823412863    -0.462819352751     1.007825032230
         H           -3.179951037564    -0.004461412863     0.976048647249     1.007825032230
         H            0.880749962436     3.356362587137    -0.326566352751     1.007825032230
         H            1.838627962436     2.745330587137     1.029979647249     1.007825032230
         H            2.379102962436     2.463349587137    -0.627961352751     1.007825032230
         H            2.379071962436    -2.471763412863    -0.628218352751     1.007825032230
         H            0.880855962436    -3.364821412863    -0.326272352751     1.007825032230
         H            1.839072962436    -2.753521412863     1.029913647249     1.007825032230

  Basis Set: AUG-CC-PVTZ
    Blend: AUG-CC-PVTZ
  Basis Set: (AUG-CC-PVTZ AUX)
    Blend: AUG-CC-PVTZ-JKFIT
	 Reference Energy          =    -364.2928705362909341 [Eh]
	 Singles Energy            =      -0.0000000000000000 [Eh]
	 Same-Spin Energy          =      -0.3967901646889649 [Eh]
	 Opposite-Spin Energy      =      -1.3050722461571855 [Eh]
	 Correlation Energy        =      -1.7018624108461504 [Eh]
	 Total Energy              =    -365.9947329471370949 [Eh]

	 ================> DF-SCS-MP2 Energies <==================
	-----------------------------------------------------------
	 SCS Same-Spin Scale       =       0.3333333333333333 [-]
	 SCS Opposite-Spin Scale   =       1.2000000000000000 [-]
	 SCS Same-Spin Energy      =      -0.1322633882296549 [Eh]
	 SCS Opposite-Spin Energy  =      -1.5660866953886226 [Eh]
	 SCS Correlation Energy    =      -1.6983500836182774 [Eh]
	 SCS Total Energy          =    -365.9912206199091997 [Eh]
	-----------------------------------------------------------

  Dipole Moment: [D]
     X:    -8.3857      Y:    -0.0290      Z:     0.1668     Total:     8.3874

*** Psi4 exiting successfully. Buy a developer a beer!
