                               Psi4 1.4a3.dev225

  ==> Input File <==

--------------------------------------------------------------------------
#psi4
#
memory 32 gb

molecule  {
1 1
  N       -2.8138210    -0.0000810     0.0131690
  C       -1.3233890    -0.0000370    -0.0148680
  C        0.7280520     1.2302730    -0.0129860
  C        0.7281180    -1.2302340    -0.0129780
  C       -0.6725800    -1.2264340    -0.0069900
  C       -0.6726490     1.2263940    -0.0069970
  C        1.3988940     0.0000390    -0.0107890
  C        1.4942690     2.5253230     0.0134310
  C        1.4944180    -2.5252350     0.0134270
  H       -1.2241800    -2.1659650    -0.0138510
  H       -1.2242990     2.1658960    -0.0138630
  H        2.4879510     0.0000680    -0.0240190
  H       -3.1956820     0.8285560    -0.4636260
  H       -3.1956410    -0.8285950    -0.4638730
  H       -3.1827690    -0.0002330     0.9749950
  H        0.8779320     3.3605910    -0.3276200
  H        1.8358100     2.7495590     1.0289260
  H        2.3762850     2.4675780    -0.6290150
  H        2.4569554    -2.4622546    -0.6880887
  H        0.8780380    -3.3605930    -0.3273260
  H        1.8362550    -2.7492930     1.0288600
units angstrom
no_reorient  #important for SAPT in psi4, default
symmetry c1  #important for SAPT in psi4, default
}

set PROPERTIES_ORIGIN ["COM"]
properties('MP2/aug-cc-pvtz', properties = ['dipole'])
--------------------------------------------------------------------------

    Molecular point group: c1
  Charge       = 1
  Multiplicity = 1
  Basis Set: AUG-CC-PVTZ
    Blend: AUG-CC-PVTZ
  Basis Set: (AUG-CC-PVTZ AUX)
    Blend: AUG-CC-PVTZ-JKFIT

    Orbital Energies [Eh]
    ---------------------

    Doubly Occupied:

       1A    -15.888914     2A    -11.459167     3A    -11.395481
       4A    -11.394952     5A    -11.394073     6A    -11.393704
       7A    -11.371639     8A    -11.356004     9A    -11.345036
      10A     -1.502750    11A     -1.309424    12A     -1.204504
      13A     -1.181664    14A     -1.081368    15A     -1.067091
      16A     -0.988456    17A     -0.964946    18A     -0.949859
      19A     -0.907433    20A     -0.855298    21A     -0.820439
      22A     -0.794197    23A     -0.724425    24A     -0.715521
      25A     -0.709341    26A     -0.688439    27A     -0.675556
      28A     -0.651267    29A     -0.637967    30A     -0.631631
      31A     -0.627976    32A     -0.486212    33A     -0.475041

  @DF-RHF Final Energy:  -364.28770381441399

   => Energetics <=

    Nuclear Repulsion Energy =            431.9326000172380873
    One-Electron Energy =               -1337.1410581238155828
    Two-Electron Energy =                 540.9207542921635650
    Total Energy =                       -364.2877038144139306
  Basis Set: (AUG-CC-PVTZ AUX)
    Blend: AUG-CC-PVTZ-RI
    Molecular point group: c1

    Geometry (in Angstrom), charge = 1, multiplicity = 1:

       Center              X                  Y                   Z               Mass
    ------------   -----------------  -----------------  -----------------  -----------------
         N           -2.809167271280    -0.000124324058     0.014794400505    14.003074004430
         C           -1.318735271280    -0.000080324058    -0.013242599495    12.000000000000
         C            0.732705728720     1.230229675942    -0.011360599495    12.000000000000
         C            0.732771728720    -1.230277324058    -0.011352599495    12.000000000000
         C           -0.667926271280    -1.226477324058    -0.005364599495    12.000000000000
         C           -0.667995271280     1.226350675942    -0.005371599495    12.000000000000
         C            1.403547728720    -0.000004324058    -0.009163599495    12.000000000000
         C            1.498922728720     2.525279675942     0.015056400505    12.000000000000
         C            1.499071728720    -2.525278324058     0.015052400505    12.000000000000
         H           -1.219526271280    -2.166008324058    -0.012225599495     1.007825032230
         H           -1.219645271280     2.165852675942    -0.012237599495     1.007825032230
         H            2.492604728720     0.000024675942    -0.022393599495     1.007825032230
         H           -3.191028271280     0.828512675942    -0.462000599495     1.007825032230
         H           -3.190987271280    -0.828638324058    -0.462247599495     1.007825032230
         H           -3.178115271280    -0.000276324058     0.976620400505     1.007825032230
         H            0.882585728720     3.360547675942    -0.325994599495     1.007825032230
         H            1.840463728720     2.749515675942     1.030551400505     1.007825032230
         H            2.380938728720     2.467534675942    -0.627389599495     1.007825032230
         H            2.461609128720    -2.462297924058    -0.686463299495     1.007825032230
         H            0.882691728720    -3.360636324058    -0.325700599495     1.007825032230
         H            1.840908728720    -2.749336324058     1.030485400505     1.007825032230

  Basis Set: AUG-CC-PVTZ
    Blend: AUG-CC-PVTZ
  Basis Set: (AUG-CC-PVTZ AUX)
    Blend: AUG-CC-PVTZ-JKFIT
	 Reference Energy          =    -364.2877038144139874 [Eh]
	 Singles Energy            =      -0.0000000000000000 [Eh]
	 Same-Spin Energy          =      -0.3972059063224631 [Eh]
	 Opposite-Spin Energy      =      -1.3060712004500790 [Eh]
	 Correlation Energy        =      -1.7032771067725421 [Eh]
	 Total Energy              =    -365.9909809211865195 [Eh]

	 ================> DF-SCS-MP2 Energies <==================
	-----------------------------------------------------------
	 SCS Same-Spin Scale       =       0.3333333333333333 [-]
	 SCS Opposite-Spin Scale   =       1.2000000000000000 [-]
	 SCS Same-Spin Energy      =      -0.1324019687741544 [Eh]
	 SCS Opposite-Spin Energy  =      -1.5672854405400947 [Eh]
	 SCS Correlation Energy    =      -1.6996874093142491 [Eh]
	 SCS Total Energy          =    -365.9873912237282525 [Eh]
	-----------------------------------------------------------

  Dipole Moment: [D]
     X:    -8.3897      Y:     0.0089      Z:     0.1814     Total:     8.3917

*** Psi4 exiting successfully. Buy a developer a beer!
