                               Psi4 1.4a3.dev225

  ==> Input File <==

--------------------------------------------------------------------------
#psi4
#
memory 32 gb

molecule  {
1 1
  N       -2.8138210    -0.0000810     0.0131690
  C       -1.3250639    -0.0000524     0.0891676
  C        0.7280520     1.2302730    -0.0129860
  C        0.7281180    -1.2302340    -0.0129780
  C       -0.6725800    -1.2264340    -0.0069900
  C       -0.6726490     1.2263940    -0.0069970
  C        1.3988940     0.0000390    -0.0107890
  C        1.4942690     2.5253230     0.0134310
  C        1.4944180    -2.5252350     0.0134270
  H       -1.2241800    -2.1659650    -0.0138510
  H       -1.2242990     2.1658960    -0.0138630
  H        2.4879510     0.0000680    -0.0240190
  H       -3.1956820     0.8285560    -0.4636260
  H       -3.1956410    -0.8285950    -0.4638730
  H       -3.1827690    -0.0002330     0.9749950
  H        0.8779320     3.3605910    -0.3276200
  H        1.8358100     2.7495590     1.0289260
  H        2.3762850     2.4675780    -0.6290150
  H        2.3762540    -2.4675350    -0.6292720
  H        0.8780380    -3.3605930    -0.3273260
  H        1.8362550    -2.7492930     1.0288600
units angstrom
no_reorient  #important for SAPT in psi4, default
symmetry c1  #important for SAPT in psi4, default
}

set PROPERTIES_ORIGIN ["COM"]
properties('MP2/aug-cc-pvtz', properties = ['dipole'])
--------------------------------------------------------------------------

    Molecular point group: c1
  Charge       = 1
  Multiplicity = 1
  Basis Set: AUG-CC-PVTZ
    Blend: AUG-CC-PVTZ
  Basis Set: (AUG-CC-PVTZ AUX)
    Blend: AUG-CC-PVTZ-JKFIT

    Orbital Energies [Eh]
    ---------------------

    Doubly Occupied:

       1A    -15.888338     2A    -11.459502     3A    -11.395146
       4A    -11.395116     5A    -11.393890     6A    -11.393866
       7A    -11.371991     8A    -11.345006     9A    -11.345005
      10A     -1.502419    11A     -1.308701    12A     -1.204649
      13A     -1.181562    14A     -1.082366    15A     -1.070399
      16A     -0.989583    17A     -0.965608    18A     -0.949399
      19A     -0.907742    20A     -0.855178    21A     -0.820351
      22A     -0.794132    23A     -0.723853    24A     -0.715858
      25A     -0.710187    26A     -0.690269    27A     -0.679143
      28A     -0.656676    29A     -0.641286    30A     -0.633627
      31A     -0.628492    32A     -0.486356    33A     -0.474537

  @DF-RHF Final Energy:  -364.29123459952632

   => Energetics <=

    Nuclear Repulsion Energy =            432.2154059476461043
    One-Electron Energy =               -1337.6928152676507580
    Two-Electron Energy =                 541.1861747204783342
    Total Energy =                       -364.2912345995263195
  Basis Set: (AUG-CC-PVTZ AUX)
    Blend: AUG-CC-PVTZ-RI
    Molecular point group: c1

    Geometry (in Angstrom), charge = 1, multiplicity = 1:

       Center              X                  Y                   Z               Mass
    ------------   -----------------  -----------------  -----------------  -----------------
         N           -2.808336524314    -0.000079224502     0.004084027466    14.003074004430
         C           -1.319579424314    -0.000050624502     0.080082627466    12.000000000000
         C            0.733536475686     1.230274775498    -0.022070972534    12.000000000000
         C            0.733602475686    -1.230232224502    -0.022062972534    12.000000000000
         C           -0.667095524314    -1.226432224502    -0.016074972534    12.000000000000
         C           -0.667164524314     1.226395775498    -0.016081972534    12.000000000000
         C            1.404378475686     0.000040775498    -0.019873972534    12.000000000000
         C            1.499753475686     2.525324775498     0.004346027466    12.000000000000
         C            1.499902475686    -2.525233224502     0.004342027466    12.000000000000
         H           -1.218695524314    -2.165963224502    -0.022935972534     1.007825032230
         H           -1.218814524314     2.165897775498    -0.022947972534     1.007825032230
         H            2.493435475686     0.000069775498    -0.033103972534     1.007825032230
         H           -3.190197524314     0.828557775498    -0.472710972534     1.007825032230
         H           -3.190156524314    -0.828593224502    -0.472957972534     1.007825032230
         H           -3.177284524314    -0.000231224502     0.965910027466     1.007825032230
         H            0.883416475686     3.360592775498    -0.336704972534     1.007825032230
         H            1.841294475686     2.749560775498     1.019841027466     1.007825032230
         H            2.381769475686     2.467579775498    -0.638099972534     1.007825032230
         H            2.381738475686    -2.467533224502    -0.638356972534     1.007825032230
         H            0.883522475686    -3.360591224502    -0.336410972534     1.007825032230
         H            1.841739475686    -2.749291224502     1.019775027466     1.007825032230

  Basis Set: AUG-CC-PVTZ
    Blend: AUG-CC-PVTZ
  Basis Set: (AUG-CC-PVTZ AUX)
    Blend: AUG-CC-PVTZ-JKFIT
	 Reference Energy          =    -364.2912345995263195 [Eh]
	 Singles Energy            =      -0.0000000000000000 [Eh]
	 Same-Spin Energy          =      -0.3972915205132694 [Eh]
	 Opposite-Spin Energy      =      -1.3057446117395108 [Eh]
	 Correlation Energy        =      -1.7030361322527803 [Eh]
	 Total Energy              =    -365.9942707317791246 [Eh]

	 ================> DF-SCS-MP2 Energies <==================
	-----------------------------------------------------------
	 SCS Same-Spin Scale       =       0.3333333333333333 [-]
	 SCS Opposite-Spin Scale   =       1.2000000000000000 [-]
	 SCS Same-Spin Energy      =      -0.1324305068377565 [Eh]
	 SCS Opposite-Spin Energy  =      -1.5668935340874131 [Eh]
	 SCS Correlation Energy    =      -1.6993240409251695 [Eh]
	 SCS Total Energy          =    -365.9905586404514679 [Eh]
	-----------------------------------------------------------

  Dipole Moment: [D]
     X:    -8.3643      Y:    -0.0002      Z:     0.0793     Total:     8.3646

*** Psi4 exiting successfully. Buy a developer a beer!
