                               Psi4 1.4a3.dev225

  ==> Input File <==

--------------------------------------------------------------------------
#psi4
#
memory 32 gb

molecule  {
1 1
  N       -2.8138210    -0.0000810     0.0131690
  C       -1.3233890    -0.0000370    -0.0148680
  C        0.7280520     1.2302730    -0.0129860
  C        0.7281180    -1.2302340    -0.0129780
  C       -0.6725800    -1.2264340    -0.0069900
  C       -0.6726490     1.2263940    -0.0069970
  C        1.3988940     0.0000390    -0.0107890
  C        1.4942690     2.5253230     0.0134310
  C        1.4944180    -2.5252350     0.0134270
  H       -1.2241800    -2.1659650    -0.0138510
  H       -1.2242990     2.1658960    -0.0138630
  H        2.4879510     0.0000680    -0.0240190
  H       -3.1956820     0.8285560    -0.4636260
  H       -3.1956410    -0.8285950    -0.4638730
  H       -3.1827690    -0.0002330     0.9749950
  H        0.8779320     3.3605910    -0.3276200
  H        1.8358100     2.7495590     1.0289260
  H        2.3762850     2.4675780    -0.6290150
  H        2.4383280    -2.4904685    -0.5359828
  H        0.8780380    -3.3605930    -0.3273260
  H        1.8362550    -2.7492930     1.0288600
units angstrom
no_reorient  #important for SAPT in psi4, default
symmetry c1  #important for SAPT in psi4, default
}

set PROPERTIES_ORIGIN ["COM"]
properties('MP2/aug-cc-pvtz', properties = ['dipole'])
--------------------------------------------------------------------------

    Molecular point group: c1
  Charge       = 1
  Multiplicity = 1
  Basis Set: AUG-CC-PVTZ
    Blend: AUG-CC-PVTZ
  Basis Set: (AUG-CC-PVTZ AUX)
    Blend: AUG-CC-PVTZ-JKFIT

    Orbital Energies [Eh]
    ---------------------

    Doubly Occupied:

       1A    -15.888828     2A    -11.459149     3A    -11.395610
       4A    -11.394853     5A    -11.393976     6A    -11.393514
       7A    -11.371610     8A    -11.344996     9A    -11.344922
      10A     -1.502658    11A     -1.309350    12A     -1.204832
      13A     -1.182047    14A     -1.083195    15A     -1.070489
      16A     -0.989121    17A     -0.966440    18A     -0.949764
      19A     -0.908142    20A     -0.856579    21A     -0.820717
      22A     -0.795421    23A     -0.724420    24A     -0.716417
      25A     -0.708332    26A     -0.685951    27A     -0.679403
      28A     -0.661476    29A     -0.642999    30A     -0.632569
      31A     -0.628066    32A     -0.486184    33A     -0.474646

  @DF-RHF Final Energy:  -364.29317660361534

   => Energetics <=

    Nuclear Repulsion Energy =            432.2609832868093349
    One-Electron Energy =               -1337.7749660430088170
    Two-Electron Energy =                 541.2208061525841458
    Total Energy =                       -364.2931766036153931
  Basis Set: (AUG-CC-PVTZ AUX)
    Blend: AUG-CC-PVTZ-RI
    Molecular point group: c1

    Geometry (in Angstrom), charge = 1, multiplicity = 1:

       Center              X                  Y                   Z               Mass
    ------------   -----------------  -----------------  -----------------  -----------------
         N           -2.809013515136     0.000108561932     0.013538872803    14.003074004430
         C           -1.318581515136     0.000152561932    -0.014498127197    12.000000000000
         C            0.732859484864     1.230462561932    -0.012616127197    12.000000000000
         C            0.732925484864    -1.230044438068    -0.012608127197    12.000000000000
         C           -0.667772515136    -1.226244438068    -0.006620127197    12.000000000000
         C           -0.667841515136     1.226583561932    -0.006627127197    12.000000000000
         C            1.403701484864     0.000228561932    -0.010419127197    12.000000000000
         C            1.499076484864     2.525512561932     0.013800872803    12.000000000000
         C            1.499225484864    -2.525045438068     0.013796872803    12.000000000000
         H           -1.219372515136    -2.165775438068    -0.013481127197     1.007825032230
         H           -1.219491515136     2.166085561932    -0.013493127197     1.007825032230
         H            2.492758484864     0.000257561932    -0.023649127197     1.007825032230
         H           -3.190874515136     0.828745561932    -0.463256127197     1.007825032230
         H           -3.190833515136    -0.828405438068    -0.463503127197     1.007825032230
         H           -3.177961515136    -0.000043438068     0.975364872803     1.007825032230
         H            0.882739484864     3.360780561932    -0.327250127197     1.007825032230
         H            1.840617484864     2.749748561932     1.029295872803     1.007825032230
         H            2.381092484864     2.467767561932    -0.628645127197     1.007825032230
         H            2.443135484864    -2.490278938068    -0.535612927197     1.007825032230
         H            0.882845484864    -3.360403438068    -0.326956127197     1.007825032230
         H            1.841062484864    -2.749103438068     1.029229872803     1.007825032230

  Basis Set: AUG-CC-PVTZ
    Blend: AUG-CC-PVTZ
  Basis Set: (AUG-CC-PVTZ AUX)
    Blend: AUG-CC-PVTZ-JKFIT
	 Reference Energy          =    -364.2931766036153363 [Eh]
	 Singles Energy            =      -0.0000000000000000 [Eh]
	 Same-Spin Energy          =      -0.3972172770051769 [Eh]
	 Opposite-Spin Energy      =      -1.3053129597217030 [Eh]
	 Correlation Energy        =      -1.7025302367268800 [Eh]
	 Total Energy              =    -365.9957068403422227 [Eh]

	 ================> DF-SCS-MP2 Energies <==================
	-----------------------------------------------------------
	 SCS Same-Spin Scale       =       0.3333333333333333 [-]
	 SCS Opposite-Spin Scale   =       1.2000000000000000 [-]
	 SCS Same-Spin Energy      =      -0.1324057590017256 [Eh]
	 SCS Opposite-Spin Energy  =      -1.5663755516660436 [Eh]
	 SCS Correlation Energy    =      -1.6987813106677692 [Eh]
	 SCS Total Energy          =    -365.9919579142830912 [Eh]
	-----------------------------------------------------------

  Dipole Moment: [D]
     X:    -8.3343      Y:    -0.0050      Z:     0.2020     Total:     8.3368

*** Psi4 exiting successfully. Buy a developer a beer!
