                               Psi4 1.4a3.dev225

  ==> Input File <==

--------------------------------------------------------------------------
#psi4
#
memory 32 gb

molecule  {
1 1
  N       -2.8138210    -0.0000810     0.0131690
  C       -1.3233890    -0.0000370    -0.0148680
  C        0.7280520     1.2302730    -0.0129860
  C        0.7281180    -1.2302340    -0.0129780
  C       -0.6512771    -1.2148882    -0.0067323
  C       -0.6726490     1.2263940    -0.0069970
  C        1.3988940     0.0000390    -0.0107890
  C        1.4942690     2.5253230     0.0134310
  C        1.4944180    -2.5252350     0.0134270
  H       -1.2241800    -2.1659650    -0.0138510
  H       -1.2242990     2.1658960    -0.0138630
  H        2.4879510     0.0000680    -0.0240190
  H       -3.1956820     0.8285560    -0.4636260
  H       -3.1956410    -0.8285950    -0.4638730
  H       -3.1827690    -0.0002330     0.9749950
  H        0.8779320     3.3605910    -0.3276200
  H        1.8358100     2.7495590     1.0289260
  H        2.3762850     2.4675780    -0.6290150
  H        2.3762540    -2.4675350    -0.6292720
  H        0.8780380    -3.3605930    -0.3273260
  H        1.8362550    -2.7492930     1.0288600
units angstrom
no_reorient  #important for SAPT in psi4, default
symmetry c1  #important for SAPT in psi4, default
}

set PROPERTIES_ORIGIN ["COM"]
properties('MP2/aug-cc-pvtz', properties = ['dipole'])
--------------------------------------------------------------------------

    Molecular point group: c1
  Charge       = 1
  Multiplicity = 1
  Basis Set: AUG-CC-PVTZ
    Blend: AUG-CC-PVTZ
  Basis Set: (AUG-CC-PVTZ AUX)
    Blend: AUG-CC-PVTZ-JKFIT

    Orbital Energies [Eh]
    ---------------------

    Doubly Occupied:

       1A    -15.889742     2A    -11.458223     3A    -11.394818
       4A    -11.393631     5A    -11.393244     6A    -11.391267
       7A    -11.371924     8A    -11.344910     9A    -11.344677
      10A     -1.502967    11A     -1.311315    12A     -1.206214
      13A     -1.181857    14A     -1.082167    15A     -1.070240
      16A     -0.990337    17A     -0.966944    18A     -0.950276
      19A     -0.907472    20A     -0.855996    21A     -0.819927
      22A     -0.795706    23A     -0.722077    24A     -0.713274
      25A     -0.711233    26A     -0.690289    27A     -0.678727
      28A     -0.656851    29A     -0.642493    30A     -0.635350
      31A     -0.627091    32A     -0.485975    33A     -0.476853

  @DF-RHF Final Energy:  -364.29379216933114

   => Energetics <=

    Nuclear Repulsion Energy =            432.6795370213370688
    One-Electron Energy =               -1338.6185249188185935
    Two-Electron Energy =                 541.6451957281503837
    Total Energy =                       -364.2937921693311409
  Basis Set: (AUG-CC-PVTZ AUX)
    Blend: AUG-CC-PVTZ-RI
    Molecular point group: c1

    Geometry (in Angstrom), charge = 1, multiplicity = 1:

       Center              X                  Y                   Z               Mass
    ------------   -----------------  -----------------  -----------------  -----------------
         N           -2.810594840717    -0.001215488531     0.014283582420    14.003074004430
         C           -1.320162840717    -0.001171488531    -0.013753417580    12.000000000000
         C            0.731278159283     1.229138511469    -0.011871417580    12.000000000000
         C            0.731344159283    -1.231368488531    -0.011863417580    12.000000000000
         C           -0.648050940717    -1.216022688531    -0.005617717580    12.000000000000
         C           -0.669422840717     1.225259511469    -0.005882417580    12.000000000000
         C            1.402120159283    -0.001095488531    -0.009674417580    12.000000000000
         C            1.497495159283     2.524188511469     0.014545582420    12.000000000000
         C            1.497644159283    -2.526369488531     0.014541582420    12.000000000000
         H           -1.220953840717    -2.167099488531    -0.012736417580     1.007825032230
         H           -1.221072840717     2.164761511469    -0.012748417580     1.007825032230
         H            2.491177159283    -0.001066488531    -0.022904417580     1.007825032230
         H           -3.192455840717     0.827421511469    -0.462511417580     1.007825032230
         H           -3.192414840717    -0.829729488531    -0.462758417580     1.007825032230
         H           -3.179542840717    -0.001367488531     0.976109582420     1.007825032230
         H            0.881158159283     3.359456511469    -0.326505417580     1.007825032230
         H            1.839036159283     2.748424511469     1.030040582420     1.007825032230
         H            2.379511159283     2.466443511469    -0.627900417580     1.007825032230
         H            2.379480159283    -2.468669488531    -0.628157417580     1.007825032230
         H            0.881264159283    -3.361727488531    -0.326211417580     1.007825032230
         H            1.839481159283    -2.750427488531     1.029974582420     1.007825032230

  Basis Set: AUG-CC-PVTZ
    Blend: AUG-CC-PVTZ
  Basis Set: (AUG-CC-PVTZ AUX)
    Blend: AUG-CC-PVTZ-JKFIT
	 Reference Energy          =    -364.2937921693311409 [Eh]
	 Singles Energy            =      -0.0000000000000000 [Eh]
	 Same-Spin Energy          =      -0.3971960744722673 [Eh]
	 Opposite-Spin Energy      =      -1.3053096267940358 [Eh]
	 Correlation Energy        =      -1.7025057012663032 [Eh]
	 Total Energy              =    -365.9962978705974592 [Eh]

	 ================> DF-SCS-MP2 Energies <==================
	-----------------------------------------------------------
	 SCS Same-Spin Scale       =       0.3333333333333333 [-]
	 SCS Opposite-Spin Scale   =       1.2000000000000000 [-]
	 SCS Same-Spin Energy      =      -0.1323986914907558 [Eh]
	 SCS Opposite-Spin Energy  =      -1.5663715521528430 [Eh]
	 SCS Correlation Energy    =      -1.6987702436435987 [Eh]
	 SCS Total Energy          =    -365.9925624129747348 [Eh]
	-----------------------------------------------------------

  Dipole Moment: [D]
     X:    -8.3948      Y:     0.0019      Z:     0.1696     Total:     8.3965

*** Psi4 exiting successfully. Buy a developer a beer!
