                               Psi4 1.4a3.dev225

  ==> Input File <==

--------------------------------------------------------------------------
#psi4
#
memory 32 gb

molecule  {
1 1
  N       -2.8138210    -0.0000810     0.0131690
  C       -1.3233890    -0.0000370    -0.0148680
  C        0.7280520     1.2302730    -0.0129860
  C        0.7281180    -1.2302340    -0.0129780
  C       -0.6725800    -1.2264340    -0.0069900
  C       -0.6726490     1.2263940    -0.0069970
  C        1.3988940     0.0000390    -0.0107890
  C        1.4942690     2.5253230     0.0134310
  C        1.4944180    -2.5252350     0.0134270
  H       -1.2241800    -2.1659650    -0.0138510
  H       -1.2242990     2.1658960    -0.0138630
  H        2.4879510     0.0000680    -0.0240190
  H       -3.1956820     0.8285560    -0.4636260
  H       -3.1956410    -0.8285950    -0.4638730
  H       -3.1827690    -0.0002330     0.9749950
  H        0.8779320     3.3605910    -0.3276200
  H        1.8295696     2.7454619     1.0103715
  H        2.3762850     2.4675780    -0.6290150
  H        2.3762540    -2.4675350    -0.6292720
  H        0.8780380    -3.3605930    -0.3273260
  H        1.8362550    -2.7492930     1.0288600
units angstrom
no_reorient  #important for SAPT in psi4, default
symmetry c1  #important for SAPT in psi4, default
}

set PROPERTIES_ORIGIN ["COM"]
properties('MP2/aug-cc-pvtz', properties = ['dipole'])
--------------------------------------------------------------------------

    Molecular point group: c1
  Charge       = 1
  Multiplicity = 1
  Basis Set: AUG-CC-PVTZ
    Blend: AUG-CC-PVTZ
  Basis Set: (AUG-CC-PVTZ AUX)
    Blend: AUG-CC-PVTZ-JKFIT

    Orbital Energies [Eh]
    ---------------------

    Doubly Occupied:

       1A    -15.888691     2A    -11.458891     3A    -11.394813
       4A    -11.394741     5A    -11.393484     6A    -11.393444
       7A    -11.371516     8A    -11.344968     9A    -11.342676
      10A     -1.502533    11A     -1.309242    12A     -1.205006
      13A     -1.182165    14A     -1.083667    15A     -1.071128
      16A     -0.988926    17A     -0.966312    18A     -0.949650
      19A     -0.907989    20A     -0.856114    21A     -0.820463
      22A     -0.794844    23A     -0.724208    24A     -0.715661
      25A     -0.711920    26A     -0.692044    27A     -0.679014
      28A     -0.656933    29A     -0.641117    30A     -0.635326
      31A     -0.628445    32A     -0.486519    33A     -0.475115

  @DF-RHF Final Energy:  -364.29440711136692

   => Energetics <=

    Nuclear Repulsion Energy =            432.4252446850650813
    One-Electron Energy =               -1338.1041760689486182
    Two-Electron Energy =                 541.3845242725166145
    Total Energy =                       -364.2944071113669224
  Basis Set: (AUG-CC-PVTZ AUX)
    Blend: AUG-CC-PVTZ-RI
    Molecular point group: c1

    Geometry (in Angstrom), charge = 1, multiplicity = 1:

       Center              X                  Y                   Z               Mass
    ------------   -----------------  -----------------  -----------------  -----------------
         N           -2.808449627597    -0.000046919361     0.014462064235    14.003074004430
         C           -1.318017627597    -0.000002919361    -0.013574935765    12.000000000000
         C            0.733423372403     1.230307080639    -0.011692935765    12.000000000000
         C            0.733489372403    -1.230199919361    -0.011684935765    12.000000000000
         C           -0.667208627597    -1.226399919361    -0.005696935765    12.000000000000
         C           -0.667277627597     1.226428080639    -0.005703935765    12.000000000000
         C            1.404265372403     0.000073080639    -0.009495935765    12.000000000000
         C            1.499640372403     2.525357080639     0.014724064235    12.000000000000
         C            1.499789372403    -2.525200919361     0.014720064235    12.000000000000
         H           -1.218808627597    -2.165930919361    -0.012557935765     1.007825032230
         H           -1.218927627597     2.165930080639    -0.012569935765     1.007825032230
         H            2.493322372403     0.000102080639    -0.022725935765     1.007825032230
         H           -3.190310627597     0.828590080639    -0.462332935765     1.007825032230
         H           -3.190269627597    -0.828560919361    -0.462579935765     1.007825032230
         H           -3.177397627597    -0.000198919361     0.976288064235     1.007825032230
         H            0.883303372403     3.360625080639    -0.326326935765     1.007825032230
         H            1.834940972403     2.745495980639     1.011664564235     1.007825032230
         H            2.381656372403     2.467612080639    -0.627721935765     1.007825032230
         H            2.381625372403    -2.467500919361    -0.627978935765     1.007825032230
         H            0.883409372403    -3.360558919361    -0.326032935765     1.007825032230
         H            1.841626372403    -2.749258919361     1.030153064235     1.007825032230

  Basis Set: AUG-CC-PVTZ
    Blend: AUG-CC-PVTZ
  Basis Set: (AUG-CC-PVTZ AUX)
    Blend: AUG-CC-PVTZ-JKFIT
	 Reference Energy          =    -364.2944071113669224 [Eh]
	 Singles Energy            =      -0.0000000000000000 [Eh]
	 Same-Spin Energy          =      -0.3971542534360956 [Eh]
	 Opposite-Spin Energy      =      -1.3051921647993563 [Eh]
	 Correlation Energy        =      -1.7023464182354520 [Eh]
	 Total Energy              =    -365.9967535296023584 [Eh]

	 ================> DF-SCS-MP2 Energies <==================
	-----------------------------------------------------------
	 SCS Same-Spin Scale       =       0.3333333333333333 [-]
	 SCS Opposite-Spin Scale   =       1.2000000000000000 [-]
	 SCS Same-Spin Energy      =      -0.1323847511453652 [Eh]
	 SCS Opposite-Spin Energy  =      -1.5662305977592275 [Eh]
	 SCS Correlation Energy    =      -1.6986153489045928 [Eh]
	 SCS Total Energy          =    -365.9930224602715043 [Eh]
	-----------------------------------------------------------

  Dipole Moment: [D]
     X:    -8.3653      Y:     0.0008      Z:     0.1724     Total:     8.3671

*** Psi4 exiting successfully. Buy a developer a beer!
