                               Psi4 1.4a3.dev225

  ==> Input File <==

--------------------------------------------------------------------------
#psi4
#
memory 32 gb

molecule  {
1 1
  N       -2.8138210    -0.0000810     0.0131690
  C       -1.3233890    -0.0000370    -0.0148680
  C        0.7280520     1.2302730    -0.0129860
  C        0.7281180    -1.2302340    -0.0129780
  C       -0.6725800    -1.2264340    -0.0069900
  C       -0.6726490     1.2263940    -0.0069970
  C        1.3988940     0.0000390    -0.0107890
  C        1.4942690     2.5253230     0.0134310
  C        1.4944180    -2.5252350     0.0134270
  H       -1.2241800    -2.1659650    -0.0138510
  H       -1.2242990     2.1658960    -0.0138630
  H        2.4879510     0.0000680    -0.0240190
  H       -3.1956820     0.8285560    -0.4636260
  H       -3.1956410    -0.8285950    -0.4638730
  H       -3.1827690    -0.0002330     0.9749950
  H        0.8779320     3.3605910    -0.3276200
  H        1.8358100     2.7495590     1.0289260
  H        2.3359260     2.4702203    -0.5996182
  H        2.3762540    -2.4675350    -0.6292720
  H        0.8780380    -3.3605930    -0.3273260
  H        1.8362550    -2.7492930     1.0288600
units angstrom
no_reorient  #important for SAPT in psi4, default
symmetry c1  #important for SAPT in psi4, default
}

set PROPERTIES_ORIGIN ["COM"]
properties('MP2/aug-cc-pvtz', properties = ['dipole'])
--------------------------------------------------------------------------

    Molecular point group: c1
  Charge       = 1
  Multiplicity = 1
  Basis Set: AUG-CC-PVTZ
    Blend: AUG-CC-PVTZ
  Basis Set: (AUG-CC-PVTZ AUX)
    Blend: AUG-CC-PVTZ-JKFIT

    Orbital Energies [Eh]
    ---------------------

    Doubly Occupied:

       1A    -15.888633     2A    -11.458822     3A    -11.394800
       4A    -11.394564     5A    -11.393438     6A    -11.393277
       7A    -11.371536     8A    -11.344964     9A    -11.339187
      10A     -1.502477    11A     -1.309218    12A     -1.205221
      13A     -1.182392    14A     -1.084847    15A     -1.072040
      16A     -0.989171    17A     -0.966728    18A     -0.949596
      19A     -0.908109    20A     -0.856460    21A     -0.820546
      22A     -0.795349    23A     -0.724030    24A     -0.715824
      25A     -0.711958    26A     -0.692717    27A     -0.680783
      28A     -0.659587    29A     -0.642271    30A     -0.634840
      31A     -0.628360    32A     -0.486542    33A     -0.475001

  @DF-RHF Final Energy:  -364.29342308187915

   => Energetics <=

    Nuclear Repulsion Energy =            432.5588499554679629
    One-Electron Energy =               -1338.3579729638963727
    Two-Electron Energy =                 541.5056999265492550
    Total Energy =                       -364.2934230818791548
  Basis Set: (AUG-CC-PVTZ AUX)
    Blend: AUG-CC-PVTZ-RI
    Molecular point group: c1

    Geometry (in Angstrom), charge = 1, multiplicity = 1:

       Center              X                  Y                   Z               Mass
    ------------   -----------------  -----------------  -----------------  -----------------
         N           -2.808168002444    -0.000102548389     0.014066259829    14.003074004430
         C           -1.317736002444    -0.000058548389    -0.013970740171    12.000000000000
         C            0.733704997556     1.230251451611    -0.012088740171    12.000000000000
         C            0.733770997556    -1.230255548389    -0.012080740171    12.000000000000
         C           -0.666927002444    -1.226455548389    -0.006092740171    12.000000000000
         C           -0.666996002444     1.226372451611    -0.006099740171    12.000000000000
         C            1.404546997556     0.000017451611    -0.009891740171    12.000000000000
         C            1.499921997556     2.525301451611     0.014328259829    12.000000000000
         C            1.500070997556    -2.525256548389     0.014324259829    12.000000000000
         H           -1.218527002444    -2.165986548389    -0.012953740171     1.007825032230
         H           -1.218646002444     2.165874451611    -0.012965740171     1.007825032230
         H            2.493603997556     0.000046451611    -0.023121740171     1.007825032230
         H           -3.190029002444     0.828534451611    -0.462728740171     1.007825032230
         H           -3.189988002444    -0.828616548389    -0.462975740171     1.007825032230
         H           -3.177116002444    -0.000254548389     0.975892259829     1.007825032230
         H            0.883584997556     3.360569451611    -0.326722740171     1.007825032230
         H            1.841462997556     2.749537451611     1.029823259829     1.007825032230
         H            2.341578997556     2.470198751611    -0.598720940171     1.007825032230
         H            2.381906997556    -2.467556548389    -0.628374740171     1.007825032230
         H            0.883690997556    -3.360614548389    -0.326428740171     1.007825032230
         H            1.841907997556    -2.749314548389     1.029757259829     1.007825032230

  Basis Set: AUG-CC-PVTZ
    Blend: AUG-CC-PVTZ
  Basis Set: (AUG-CC-PVTZ AUX)
    Blend: AUG-CC-PVTZ-JKFIT
	 Reference Energy          =    -364.2934230818791548 [Eh]
	 Singles Energy            =      -0.0000000000000000 [Eh]
	 Same-Spin Energy          =      -0.3971434990896344 [Eh]
	 Opposite-Spin Energy      =      -1.3050165873372217 [Eh]
	 Correlation Energy        =      -1.7021600864268560 [Eh]
	 Total Energy              =    -365.9955831683059841 [Eh]

	 ================> DF-SCS-MP2 Energies <==================
	-----------------------------------------------------------
	 SCS Same-Spin Scale       =       0.3333333333333333 [-]
	 SCS Opposite-Spin Scale   =       1.2000000000000000 [-]
	 SCS Same-Spin Energy      =      -0.1323811663632115 [Eh]
	 SCS Opposite-Spin Energy  =      -1.5660199048046659 [Eh]
	 SCS Correlation Energy    =      -1.6984010711678774 [Eh]
	 SCS Total Energy          =    -365.9918241530470482 [Eh]
	-----------------------------------------------------------

  Dipole Moment: [D]
     X:    -8.3578      Y:     0.0026      Z:     0.1663     Total:     8.3595

*** Psi4 exiting successfully. Buy a developer a beer!
