                               Psi4 1.4a3.dev225

  ==> Input File <==

--------------------------------------------------------------------------
#psi4
#
memory 32 gb

molecule  {
1 1
  N       -2.8138210    -0.0000810     0.0131690
  C       -1.3233890    -0.0000370    -0.0148680
  C        0.7280520     1.2302730    -0.0129860
  C        0.7281180    -1.2302340    -0.0129780
  C       -0.6725800    -1.2264340    -0.0069900
  C       -0.6726490     1.2263940    -0.0069970
  C        1.3988940     0.0000390    -0.0107890
  C        1.4942690     2.5253230     0.0134310
  C        1.4944180    -2.5252350     0.0134270
  H       -1.2241800    -2.1659650    -0.0138510
  H       -1.2242990     2.1658960    -0.0138630
  H        2.4879510     0.0000680    -0.0240190
  H       -3.1394606     0.8878690    -0.3933949
  H       -3.1956410    -0.8285950    -0.4638730
  H       -3.1827690    -0.0002330     0.9749950
  H        0.8779320     3.3605910    -0.3276200
  H        1.8358100     2.7495590     1.0289260
  H        2.3762850     2.4675780    -0.6290150
  H        2.3762540    -2.4675350    -0.6292720
  H        0.8780380    -3.3605930    -0.3273260
  H        1.8362550    -2.7492930     1.0288600
units angstrom
no_reorient  #important for SAPT in psi4, default
symmetry c1  #important for SAPT in psi4, default
}

set PROPERTIES_ORIGIN ["COM"]
properties('MP2/aug-cc-pvtz', properties = ['dipole'])
--------------------------------------------------------------------------

    Molecular point group: c1
  Charge       = 1
  Multiplicity = 1
  Basis Set: AUG-CC-PVTZ
    Blend: AUG-CC-PVTZ
  Basis Set: (AUG-CC-PVTZ AUX)
    Blend: AUG-CC-PVTZ-JKFIT

    Orbital Energies [Eh]
    ---------------------

    Doubly Occupied:

       1A    -15.888649     2A    -11.459023     3A    -11.395474
       4A    -11.395074     5A    -11.394199     6A    -11.393477
       7A    -11.371689     8A    -11.345388     9A    -11.345142
      10A     -1.502979    11A     -1.309347    12A     -1.205312
      13A     -1.181747    14A     -1.084205    15A     -1.070651
      16A     -0.987986    17A     -0.973277    18A     -0.942523
      19A     -0.911269    20A     -0.855057    21A     -0.820410
      22A     -0.795705    23A     -0.724689    24A     -0.715688
      25A     -0.710941    26A     -0.690613    27A     -0.679412
      28A     -0.657217    29A     -0.641424    30A     -0.634611
      31A     -0.628861    32A     -0.486459    33A     -0.475498

  @DF-RHF Final Energy:  -364.29311609874730

   => Energetics <=

    Nuclear Repulsion Energy =            432.4526518737644665
    One-Electron Energy =               -1338.1435470596029518
    Two-Electron Energy =                 541.3977790870911804
    Total Energy =                       -364.2931160987473049
  Basis Set: (AUG-CC-PVTZ AUX)
    Blend: AUG-CC-PVTZ-RI
    Molecular point group: c1

    Geometry (in Angstrom), charge = 1, multiplicity = 1:

       Center              X                  Y                   Z               Mass
    ------------   -----------------  -----------------  -----------------  -----------------
         N           -2.808965206021    -0.000570325337     0.013729201274    14.003074004430
         C           -1.318533206021    -0.000526325337    -0.014307798726    12.000000000000
         C            0.732907793979     1.229783674663    -0.012425798726    12.000000000000
         C            0.732973793979    -1.230723325337    -0.012417798726    12.000000000000
         C           -0.667724206021    -1.226923325337    -0.006429798726    12.000000000000
         C           -0.667793206021     1.225904674663    -0.006436798726    12.000000000000
         C            1.403749793979    -0.000450325337    -0.010228798726    12.000000000000
         C            1.499124793979     2.524833674663     0.013991201274    12.000000000000
         C            1.499273793979    -2.525724325337     0.013987201274    12.000000000000
         H           -1.219324206021    -2.166454325337    -0.013290798726     1.007825032230
         H           -1.219443206021     2.165406674663    -0.013302798726     1.007825032230
         H            2.492806793979    -0.000421325337    -0.023458798726     1.007825032230
         H           -3.134604806021     0.887379674663    -0.392834698726     1.007825032230
         H           -3.190785206021    -0.829084325337    -0.463312798726     1.007825032230
         H           -3.177913206021    -0.000722325337     0.975555201274     1.007825032230
         H            0.882787793979     3.360101674663    -0.327059798726     1.007825032230
         H            1.840665793979     2.749069674663     1.029486201274     1.007825032230
         H            2.381140793979     2.467088674663    -0.628454798726     1.007825032230
         H            2.381109793979    -2.468024325337    -0.628711798726     1.007825032230
         H            0.882893793979    -3.361082325337    -0.326765798726     1.007825032230
         H            1.841110793979    -2.749782325337     1.029420201274     1.007825032230

  Basis Set: AUG-CC-PVTZ
    Blend: AUG-CC-PVTZ
  Basis Set: (AUG-CC-PVTZ AUX)
    Blend: AUG-CC-PVTZ-JKFIT
	 Reference Energy          =    -364.2931160987473049 [Eh]
	 Singles Energy            =      -0.0000000000000000 [Eh]
	 Same-Spin Energy          =      -0.3972665672347735 [Eh]
	 Opposite-Spin Energy      =      -1.3054478197354040 [Eh]
	 Correlation Energy        =      -1.7027143869701775 [Eh]
	 Total Energy              =    -365.9958304857174767 [Eh]

	 ================> DF-SCS-MP2 Energies <==================
	-----------------------------------------------------------
	 SCS Same-Spin Scale       =       0.3333333333333333 [-]
	 SCS Opposite-Spin Scale   =       1.2000000000000000 [-]
	 SCS Same-Spin Energy      =      -0.1324221890782578 [Eh]
	 SCS Opposite-Spin Energy  =      -1.5665373836824847 [Eh]
	 SCS Correlation Energy    =      -1.6989595727607425 [Eh]
	 SCS Total Energy          =    -365.9920756715080756 [Eh]
	-----------------------------------------------------------

  Dipole Moment: [D]
     X:    -8.2915      Y:     0.0397      Z:     0.2506     Total:     8.2954

*** Psi4 exiting successfully. Buy a developer a beer!
