                               Psi4 1.4a3.dev225

  ==> Input File <==

--------------------------------------------------------------------------
#psi4
#
memory 32 gb

molecule  {
1 1
  N       -2.8138210    -0.0000810     0.0131690
  C       -1.3233890    -0.0000370    -0.0148680
  C        0.7280520     1.2302730    -0.0129860
  C        0.7281180    -1.2302340    -0.0129780
  C       -0.6725800    -1.2264340    -0.0069900
  C       -0.6726490     1.2263940    -0.0069970
  C        1.3988940     0.0000390    -0.0107890
  C        1.4942690     2.5253230     0.0134310
  C        1.4842344    -2.5080254     0.0130761
  H       -1.2241800    -2.1659650    -0.0138510
  H       -1.2242990     2.1658960    -0.0138630
  H        2.4879510     0.0000680    -0.0240190
  H       -3.1956820     0.8285560    -0.4636260
  H       -3.1956410    -0.8285950    -0.4638730
  H       -3.1827690    -0.0002330     0.9749950
  H        0.8779320     3.3605910    -0.3276200
  H        1.8358100     2.7495590     1.0289260
  H        2.3762850     2.4675780    -0.6290150
  H        2.3762540    -2.4675350    -0.6292720
  H        0.8780380    -3.3605930    -0.3273260
  H        1.8362550    -2.7492930     1.0288600
units angstrom
no_reorient  #important for SAPT in psi4, default
symmetry c1  #important for SAPT in psi4, default
}

set PROPERTIES_ORIGIN ["COM"]
properties('MP2/aug-cc-pvtz', properties = ['dipole'])
--------------------------------------------------------------------------

    Molecular point group: c1
  Charge       = 1
  Multiplicity = 1
  Basis Set: AUG-CC-PVTZ
    Blend: AUG-CC-PVTZ
  Basis Set: (AUG-CC-PVTZ AUX)
    Blend: AUG-CC-PVTZ-JKFIT

    Orbital Energies [Eh]
    ---------------------

    Doubly Occupied:

       1A    -15.888759     2A    -11.458988     3A    -11.394876
       4A    -11.394442     5A    -11.393539     6A    -11.393254
       7A    -11.371550     8A    -11.345416     9A    -11.345016
      10A     -1.502602    11A     -1.309820    12A     -1.206380
      13A     -1.182788    14A     -1.083373    15A     -1.070421
      16A     -0.989001    17A     -0.965713    18A     -0.949714
      19A     -0.907842    20A     -0.856119    21A     -0.820703
      22A     -0.795327    23A     -0.724974    24A     -0.717667
      25A     -0.710434    26A     -0.689114    27A     -0.678317
      28A     -0.655896    29A     -0.641308    30A     -0.633584
      31A     -0.629339    32A     -0.486190    33A     -0.474642

  @DF-RHF Final Energy:  -364.29366541145527

   => Energetics <=

    Nuclear Repulsion Energy =            432.6782205784481334
    One-Electron Energy =               -1338.6095547864294986
    Two-Electron Energy =                 541.6376687965259862
    Total Energy =                       -364.2936654114553221
  Basis Set: (AUG-CC-PVTZ AUX)
    Blend: AUG-CC-PVTZ-RI
    Molecular point group: c1

    Geometry (in Angstrom), charge = 1, multiplicity = 1:

       Center              X                  Y                   Z               Mass
    ------------   -----------------  -----------------  -----------------  -----------------
         N           -2.807500267720    -0.001772141145     0.014343397170    14.003074004430
         C           -1.317068267720    -0.001728141145    -0.013693602830    12.000000000000
         C            0.734372732280     1.228581858855    -0.011811602830    12.000000000000
         C            0.734438732280    -1.231925141145    -0.011803602830    12.000000000000
         C           -0.666259267720    -1.228125141145    -0.005815602830    12.000000000000
         C           -0.666328267720     1.224702858855    -0.005822602830    12.000000000000
         C            1.405214732280    -0.001652141145    -0.009614602830    12.000000000000
         C            1.500589732280     2.523631858855     0.014605397170    12.000000000000
         C            1.490555132280    -2.509716541145     0.014250497170    12.000000000000
         H           -1.217859267720    -2.167656141145    -0.012676602830     1.007825032230
         H           -1.217978267720     2.164204858855    -0.012688602830     1.007825032230
         H            2.494271732280    -0.001623141145    -0.022844602830     1.007825032230
         H           -3.189361267720     0.826864858855    -0.462451602830     1.007825032230
         H           -3.189320267720    -0.830286141145    -0.462698602830     1.007825032230
         H           -3.176448267720    -0.001924141145     0.976169397170     1.007825032230
         H            0.884252732280     3.358899858855    -0.326445602830     1.007825032230
         H            1.842130732280     2.747867858855     1.030100397170     1.007825032230
         H            2.382605732280     2.465886858855    -0.627840602830     1.007825032230
         H            2.382574732280    -2.469226141145    -0.628097602830     1.007825032230
         H            0.884358732280    -3.362284141145    -0.326151602830     1.007825032230
         H            1.842575732280    -2.750984141145     1.030034397170     1.007825032230

  Basis Set: AUG-CC-PVTZ
    Blend: AUG-CC-PVTZ
  Basis Set: (AUG-CC-PVTZ AUX)
    Blend: AUG-CC-PVTZ-JKFIT
	 Reference Energy          =    -364.2936654114552653 [Eh]
	 Singles Energy            =      -0.0000000000000000 [Eh]
	 Same-Spin Energy          =      -0.3973590539512115 [Eh]
	 Opposite-Spin Energy      =      -1.3054980910407716 [Eh]
	 Correlation Energy        =      -1.7028571449919832 [Eh]
	 Total Energy              =    -365.9965225564472462 [Eh]

	 ================> DF-SCS-MP2 Energies <==================
	-----------------------------------------------------------
	 SCS Same-Spin Scale       =       0.3333333333333333 [-]
	 SCS Opposite-Spin Scale   =       1.2000000000000000 [-]
	 SCS Same-Spin Energy      =      -0.1324530179837372 [Eh]
	 SCS Opposite-Spin Energy  =      -1.5665977092489258 [Eh]
	 SCS Correlation Energy    =      -1.6990507272326629 [Eh]
	 SCS Total Energy          =    -365.9927161386879106 [Eh]
	-----------------------------------------------------------

  Dipole Moment: [D]
     X:    -8.3568      Y:    -0.0141      Z:     0.1718     Total:     8.3586

*** Psi4 exiting successfully. Buy a developer a beer!
