                               Psi4 1.4a3.dev225

  ==> Input File <==

--------------------------------------------------------------------------
#psi4
#
memory 32 gb

molecule  {
1 1
  N       -2.8138210    -0.0000810     0.0131690
  C       -1.3233890    -0.0000370    -0.0148680
  C        0.7280520     1.2302730    -0.0129860
  C        0.7281180    -1.2302340    -0.0129780
  C       -0.6725800    -1.2264340    -0.0069900
  C       -0.6726490     1.2263940    -0.0069970
  C        1.3988940     0.0000390    -0.0107890
  C        1.4942690     2.5253230     0.0134310
  C        1.4944180    -2.5252350     0.0134270
  H       -1.2241800    -2.1659650    -0.0138510
  H       -1.2242990     2.1658960    -0.0138630
  H        2.4879510     0.0000680    -0.0240190
  H       -3.1771354     0.7883099    -0.4404685
  H       -3.1956410    -0.8285950    -0.4638730
  H       -3.1827690    -0.0002330     0.9749950
  H        0.8779320     3.3605910    -0.3276200
  H        1.8358100     2.7495590     1.0289260
  H        2.3762850     2.4675780    -0.6290150
  H        2.3762540    -2.4675350    -0.6292720
  H        0.8780380    -3.3605930    -0.3273260
  H        1.8362550    -2.7492930     1.0288600
units angstrom
no_reorient  #important for SAPT in psi4, default
symmetry c1  #important for SAPT in psi4, default
}

set PROPERTIES_ORIGIN ["COM"]
properties('MP2/aug-cc-pvtz', properties = ['dipole'])
--------------------------------------------------------------------------

    Molecular point group: c1
  Charge       = 1
  Multiplicity = 1
  Basis Set: AUG-CC-PVTZ
    Blend: AUG-CC-PVTZ
  Basis Set: (AUG-CC-PVTZ AUX)
    Blend: AUG-CC-PVTZ-JKFIT

    Orbital Energies [Eh]
    ---------------------

    Doubly Occupied:

       1A    -15.885547     2A    -11.459359     3A    -11.395140
       4A    -11.395098     5A    -11.393876     6A    -11.393808
       7A    -11.371867     8A    -11.345173     9A    -11.345123
      10A     -1.511095    11A     -1.310191    12A     -1.205155
      13A     -1.183441    14A     -1.083847    15A     -1.070636
      16A     -0.991012    17A     -0.973872    18A     -0.953867
      19A     -0.911822    20A     -0.856940    21A     -0.821053
      22A     -0.795924    23A     -0.724399    24A     -0.715642
      25A     -0.710976    26A     -0.690504    27A     -0.679298
      28A     -0.657127    29A     -0.641412    30A     -0.635065
      31A     -0.628722    32A     -0.486843    33A     -0.475267

  @DF-RHF Final Energy:  -364.29411631467423

   => Energetics <=

    Nuclear Repulsion Energy =            432.6060049142198523
    One-Electron Energy =               -1338.4020377155802635
    Two-Electron Energy =                 541.5019164866862411
    Total Energy =                       -364.2941163146741701
  Basis Set: (AUG-CC-PVTZ AUX)
    Blend: AUG-CC-PVTZ-RI
    Molecular point group: c1

    Geometry (in Angstrom), charge = 1, multiplicity = 1:

       Center              X                  Y                   Z               Mass
    ------------   -----------------  -----------------  -----------------  -----------------
         N           -2.808654226927     0.000251465323     0.014117760881    14.003074004430
         C           -1.318222226927     0.000295465323    -0.013919239119    12.000000000000
         C            0.733218773073     1.230605465323    -0.012037239119    12.000000000000
         C            0.733284773073    -1.229901534677    -0.012029239119    12.000000000000
         C           -0.667413226927    -1.226101534677    -0.006041239119    12.000000000000
         C           -0.667482226927     1.226726465323    -0.006048239119    12.000000000000
         C            1.404060773073     0.000371465323    -0.009840239119    12.000000000000
         C            1.499435773073     2.525655465323     0.014379760881    12.000000000000
         C            1.499584773073    -2.524902534677     0.014375760881    12.000000000000
         H           -1.219013226927    -2.165632534677    -0.012902239119     1.007825032230
         H           -1.219132226927     2.166228465323    -0.012914239119     1.007825032230
         H            2.493117773073     0.000400465323    -0.023070239119     1.007825032230
         H           -3.171968626927     0.788642365323    -0.439519739119     1.007825032230
         H           -3.190474226927    -0.828262534677    -0.462924239119     1.007825032230
         H           -3.177602226927     0.000099465323     0.975943760881     1.007825032230
         H            0.883098773073     3.360923465323    -0.326671239119     1.007825032230
         H            1.840976773073     2.749891465323     1.029874760881     1.007825032230
         H            2.381451773073     2.467910465323    -0.628066239119     1.007825032230
         H            2.381420773073    -2.467202534677    -0.628323239119     1.007825032230
         H            0.883204773073    -3.360260534677    -0.326377239119     1.007825032230
         H            1.841421773073    -2.748960534677     1.029808760881     1.007825032230

  Basis Set: AUG-CC-PVTZ
    Blend: AUG-CC-PVTZ
  Basis Set: (AUG-CC-PVTZ AUX)
    Blend: AUG-CC-PVTZ-JKFIT
	 Reference Energy          =    -364.2941163146742269 [Eh]
	 Singles Energy            =      -0.0000000000000000 [Eh]
	 Same-Spin Energy          =      -0.3968653262510193 [Eh]
	 Opposite-Spin Energy      =      -1.3044696277519230 [Eh]
	 Correlation Energy        =      -1.7013349540029423 [Eh]
	 Total Energy              =    -365.9954512686771864 [Eh]

	 ================> DF-SCS-MP2 Energies <==================
	-----------------------------------------------------------
	 SCS Same-Spin Scale       =       0.3333333333333333 [-]
	 SCS Opposite-Spin Scale   =       1.2000000000000000 [-]
	 SCS Same-Spin Energy      =      -0.1322884420836731 [Eh]
	 SCS Opposite-Spin Energy  =      -1.5653635533023076 [Eh]
	 SCS Correlation Energy    =      -1.6976519953859808 [Eh]
	 SCS Total Energy          =    -365.9917683100601948 [Eh]
	-----------------------------------------------------------

  Dipole Moment: [D]
     X:    -8.3312      Y:    -0.0510      Z:     0.2034     Total:     8.3339

*** Psi4 exiting successfully. Buy a developer a beer!
