                               Psi4 1.4a3.dev225

  ==> Input File <==

--------------------------------------------------------------------------
#psi4
#
memory 32 gb

molecule  {
1 1
  N       -2.8138210    -0.0000810     0.0131690
  C       -1.3233890    -0.0000370    -0.0148680
  C        0.7280520     1.2302730    -0.0129860
  C        0.7281180    -1.2302340    -0.0129780
  C       -0.6725800    -1.2264340    -0.0069900
  C       -0.6726490     1.2263940    -0.0069970
  C        1.3988940     0.0000390    -0.0107890
  C        1.4433566     2.4392716     0.0116757
  C        1.4944180    -2.5252350     0.0134270
  H       -1.2241800    -2.1659650    -0.0138510
  H       -1.2242990     2.1658960    -0.0138630
  H        2.4879510     0.0000680    -0.0240190
  H       -3.1956820     0.8285560    -0.4636260
  H       -3.1956410    -0.8285950    -0.4638730
  H       -3.1827690    -0.0002330     0.9749950
  H        0.8779320     3.3605910    -0.3276200
  H        1.8358100     2.7495590     1.0289260
  H        2.3762850     2.4675780    -0.6290150
  H        2.3762540    -2.4675350    -0.6292720
  H        0.8780380    -3.3605930    -0.3273260
  H        1.8362550    -2.7492930     1.0288600
units angstrom
no_reorient  #important for SAPT in psi4, default
symmetry c1  #important for SAPT in psi4, default
}

set PROPERTIES_ORIGIN ["COM"]
properties('MP2/aug-cc-pvtz', properties = ['dipole'])
--------------------------------------------------------------------------

    Molecular point group: c1
  Charge       = 1
  Multiplicity = 1
  Basis Set: AUG-CC-PVTZ
    Blend: AUG-CC-PVTZ
  Basis Set: (AUG-CC-PVTZ AUX)
    Blend: AUG-CC-PVTZ-JKFIT

    Orbital Energies [Eh]
    ---------------------

    Doubly Occupied:

       1A    -15.888868     2A    -11.459167     3A    -11.394935
       4A    -11.393854     5A    -11.393522     6A    -11.390322
       7A    -11.371464     8A    -11.348326     9A    -11.345084
      10A     -1.502713    11A     -1.312606    12A     -1.214241
      13A     -1.185200    14A     -1.084727    15A     -1.070931
      16A     -0.989521    17A     -0.964060    18A     -0.949814
      19A     -0.907658    20A     -0.856633    21A     -0.821649
      22A     -0.797333    23A     -0.735451    24A     -0.721820
      25A     -0.710171    26A     -0.685256    27A     -0.678076
      28A     -0.653430    29A     -0.644952    30A     -0.628489
      31A     -0.621168    32A     -0.485165    33A     -0.472178

  @DF-RHF Final Energy:  -364.28180347405709

   => Energetics <=

    Nuclear Repulsion Energy =            434.0963813347763107
    One-Electron Energy =               -1341.3988059072428314
    Two-Electron Energy =                 543.0206210984094923
    Total Energy =                       -364.2818034740570283
  Basis Set: (AUG-CC-PVTZ AUX)
    Blend: AUG-CC-PVTZ-RI
    Molecular point group: c1

    Geometry (in Angstrom), charge = 1, multiplicity = 1:

       Center              X                  Y                   Z               Mass
    ------------   -----------------  -----------------  -----------------  -----------------
         N           -2.803497338061     0.008376611567     0.014481425161    14.003074004430
         C           -1.313065338061     0.008420611567    -0.013555574839    12.000000000000
         C            0.738375661939     1.238730611567    -0.011673574839    12.000000000000
         C            0.738441661939    -1.221776388433    -0.011665574839    12.000000000000
         C           -0.662256338061    -1.217976388433    -0.005677574839    12.000000000000
         C           -0.662325338061     1.234851611567    -0.005684574839    12.000000000000
         C            1.409217661939     0.008496611567    -0.009476574839    12.000000000000
         C            1.453680261939     2.447729211567     0.012988125161    12.000000000000
         C            1.504741661939    -2.516777388433     0.014739425161    12.000000000000
         H           -1.213856338061    -2.157507388433    -0.012538574839     1.007825032230
         H           -1.213975338061     2.174353611567    -0.012550574839     1.007825032230
         H            2.498274661939     0.008525611567    -0.022706574839     1.007825032230
         H           -3.185358338061     0.837013611567    -0.462313574839     1.007825032230
         H           -3.185317338061    -0.820137388433    -0.462560574839     1.007825032230
         H           -3.172445338061     0.008224611567     0.976307425161     1.007825032230
         H            0.888255661939     3.369048611567    -0.326307574839     1.007825032230
         H            1.846133661939     2.758016611567     1.030238425161     1.007825032230
         H            2.386608661939     2.476035611567    -0.627702574839     1.007825032230
         H            2.386577661939    -2.459077388433    -0.627959574839     1.007825032230
         H            0.888361661939    -3.352135388433    -0.326013574839     1.007825032230
         H            1.846578661939    -2.740835388433     1.030172425161     1.007825032230

  Basis Set: AUG-CC-PVTZ
    Blend: AUG-CC-PVTZ
  Basis Set: (AUG-CC-PVTZ AUX)
    Blend: AUG-CC-PVTZ-JKFIT
	 Reference Energy          =    -364.2818034740570852 [Eh]
	 Singles Energy            =      -0.0000000000000000 [Eh]
	 Same-Spin Energy          =      -0.3985175073503635 [Eh]
	 Opposite-Spin Energy      =      -1.3068392329075602 [Eh]
	 Correlation Energy        =      -1.7053567402579237 [Eh]
	 Total Energy              =    -365.9871602143149971 [Eh]

	 ================> DF-SCS-MP2 Energies <==================
	-----------------------------------------------------------
	 SCS Same-Spin Scale       =       0.3333333333333333 [-]
	 SCS Opposite-Spin Scale   =       1.2000000000000000 [-]
	 SCS Same-Spin Energy      =      -0.1328391691167878 [Eh]
	 SCS Opposite-Spin Energy  =      -1.5682070794890721 [Eh]
	 SCS Correlation Energy    =      -1.7010462486058600 [Eh]
	 SCS Total Energy          =    -365.9828497226629338 [Eh]
	-----------------------------------------------------------

  Dipole Moment: [D]
     X:    -8.3089      Y:     0.0833      Z:     0.1801     Total:     8.3113

*** Psi4 exiting successfully. Buy a developer a beer!
