                               Psi4 1.4a3.dev225

  ==> Input File <==

--------------------------------------------------------------------------
#psi4
#
memory 32 gb

molecule  {
1 1
  N       -2.8138210    -0.0000810     0.0131690
  C       -1.3233890    -0.0000370    -0.0148680
  C        0.7280520     1.2302730    -0.0129860
  C        0.7281180    -1.2302340    -0.0129780
  C       -0.6725800    -1.2264340    -0.0069900
  C       -0.6726490     1.2263940    -0.0069970
  C        1.3988940     0.0000390    -0.0107890
  C        1.4942690     2.5253230     0.0134310
  C        1.4944180    -2.5252350     0.0134270
  H       -1.2241800    -2.1659650    -0.0138510
  H       -1.2242990     2.1658960    -0.0138630
  H        2.4879510     0.0000680    -0.0240190
  H       -3.1956820     0.8285560    -0.4636260
  H       -3.1956410    -0.8285950    -0.4638730
  H       -3.1899319    -0.0002360     0.9936683
  H        0.8779320     3.3605910    -0.3276200
  H        1.8358100     2.7495590     1.0289260
  H        2.3762850     2.4675780    -0.6290150
  H        2.3762540    -2.4675350    -0.6292720
  H        0.8780380    -3.3605930    -0.3273260
  H        1.8362550    -2.7492930     1.0288600
units angstrom
no_reorient  #important for SAPT in psi4, default
symmetry c1  #important for SAPT in psi4, default
}

set PROPERTIES_ORIGIN ["COM"]
properties('MP2/aug-cc-pvtz', properties = ['dipole'])
--------------------------------------------------------------------------

    Molecular point group: c1
  Charge       = 1
  Multiplicity = 1
  Basis Set: AUG-CC-PVTZ
    Blend: AUG-CC-PVTZ
  Basis Set: (AUG-CC-PVTZ AUX)
    Blend: AUG-CC-PVTZ-JKFIT

    Orbital Energies [Eh]
    ---------------------

    Doubly Occupied:

       1A    -15.889862     2A    -11.458723     3A    -11.394698
       4A    -11.394689     5A    -11.393345     6A    -11.393344
       7A    -11.371413     8A    -11.344897     9A    -11.344896
      10A     -1.499486    11A     -1.308875    12A     -1.204726
      13A     -1.181530    14A     -1.082946    15A     -1.070267
      16A     -0.988221    17A     -0.965610    18A     -0.943553
      19A     -0.907482    20A     -0.855594    21A     -0.820179
      22A     -0.794681    23A     -0.723968    24A     -0.715261
      25A     -0.710585    26A     -0.690251    27A     -0.679005
      28A     -0.656761    29A     -0.640991    30A     -0.634339
      31A     -0.628386    32A     -0.486196    33A     -0.474883

  @DF-RHF Final Energy:  -364.29339218682640

   => Energetics <=

    Nuclear Repulsion Energy =            432.2334550745526371
    One-Electron Energy =               -1337.7544079598078497
    Two-Electron Energy =                 541.2275606984287606
    Total Energy =                       -364.2933921868263951
  Basis Set: (AUG-CC-PVTZ AUX)
    Blend: AUG-CC-PVTZ-RI
    Molecular point group: c1

    Geometry (in Angstrom), charge = 1, multiplicity = 1:

       Center              X                  Y                   Z               Mass
    ------------   -----------------  -----------------  -----------------  -----------------
         N           -2.808442013006    -0.000080713290     0.014154774813    14.003074004430
         C           -1.318010013006    -0.000036713290    -0.013882225187    12.000000000000
         C            0.733430986994     1.230273286710    -0.012000225187    12.000000000000
         C            0.733496986994    -1.230233713290    -0.011992225187    12.000000000000
         C           -0.667201013006    -1.226433713290    -0.006004225187    12.000000000000
         C           -0.667270013006     1.226394286710    -0.006011225187    12.000000000000
         C            1.404272986994     0.000039286710    -0.009803225187    12.000000000000
         C            1.499647986994     2.525323286710     0.014416774813    12.000000000000
         C            1.499796986994    -2.525234713290     0.014412774813    12.000000000000
         H           -1.218801013006    -2.165964713290    -0.012865225187     1.007825032230
         H           -1.218920013006     2.165896286710    -0.012877225187     1.007825032230
         H            2.493329986994     0.000068286710    -0.023033225187     1.007825032230
         H           -3.190303013006     0.828556286710    -0.462640225187     1.007825032230
         H           -3.190262013006    -0.828594713290    -0.462887225187     1.007825032230
         H           -3.184552913006    -0.000235713290     0.994654074813     1.007825032230
         H            0.883310986994     3.360591286710    -0.326634225187     1.007825032230
         H            1.841188986994     2.749559286710     1.029911774813     1.007825032230
         H            2.381663986994     2.467578286710    -0.628029225187     1.007825032230
         H            2.381632986994    -2.467534713290    -0.628286225187     1.007825032230
         H            0.883416986994    -3.360592713290    -0.326340225187     1.007825032230
         H            1.841633986994    -2.749292713290     1.029845774813     1.007825032230

  Basis Set: AUG-CC-PVTZ
    Blend: AUG-CC-PVTZ
  Basis Set: (AUG-CC-PVTZ AUX)
    Blend: AUG-CC-PVTZ-JKFIT
	 Reference Energy          =    -364.2933921868263951 [Eh]
	 Singles Energy            =      -0.0000000000000000 [Eh]
	 Same-Spin Energy          =      -0.3972692902110018 [Eh]
	 Opposite-Spin Energy      =      -1.3056415737685954 [Eh]
	 Correlation Energy        =      -1.7029108639795971 [Eh]
	 Total Energy              =    -365.9963030508059774 [Eh]

	 ================> DF-SCS-MP2 Energies <==================
	-----------------------------------------------------------
	 SCS Same-Spin Scale       =       0.3333333333333333 [-]
	 SCS Opposite-Spin Scale   =       1.2000000000000000 [-]
	 SCS Same-Spin Energy      =      -0.1324230967370006 [Eh]
	 SCS Opposite-Spin Energy  =      -1.5667698885223145 [Eh]
	 SCS Correlation Energy    =      -1.6991929852593151 [Eh]
	 SCS Total Energy          =    -365.9925851720856826 [Eh]
	-----------------------------------------------------------

  Dipole Moment: [D]
     X:    -8.3800      Y:    -0.0002      Z:     0.1983     Total:     8.3824

*** Psi4 exiting successfully. Buy a developer a beer!
