                               Psi4 1.4a3.dev225

  ==> Input File <==

--------------------------------------------------------------------------
#psi4
#
memory 32 gb

molecule  {
1 1
  N       -2.8138210    -0.0000810     0.0131690
  C       -1.3233890    -0.0000370    -0.0148680
  C        0.7280520     1.2302730    -0.0129860
  C        0.7281180    -1.2302340    -0.0129780
  C       -0.6725800    -1.2264340    -0.0069900
  C       -0.6726490     1.2263940    -0.0069970
  C        1.3988940     0.0000390    -0.0107890
  C        1.4942690     2.5253230     0.0134310
  C        1.4944180    -2.5252350     0.0134270
  H       -1.2241800    -2.1659650    -0.0138510
  H       -1.2242990     2.1658960    -0.0138630
  H        2.4879510     0.0000680    -0.0240190
  H       -3.1956820     0.8285560    -0.4636260
  H       -3.1956410    -0.8285950    -0.4638730
  H       -3.1827690    -0.0002330     0.9749950
  H        0.8779320     3.3605910    -0.3276200
  H        1.8358100     2.7495590     1.0289260
  H        2.3762850     2.4675780    -0.6290150
  H        2.3045184    -2.4452337    -0.7155196
  H        0.8780380    -3.3605930    -0.3273260
  H        1.8362550    -2.7492930     1.0288600
units angstrom
no_reorient  #important for SAPT in psi4, default
symmetry c1  #important for SAPT in psi4, default
}

set PROPERTIES_ORIGIN ["COM"]
properties('MP2/aug-cc-pvtz', properties = ['dipole'])
--------------------------------------------------------------------------

    Molecular point group: c1
  Charge       = 1
  Multiplicity = 1
  Basis Set: AUG-CC-PVTZ
    Blend: AUG-CC-PVTZ
  Basis Set: (AUG-CC-PVTZ AUX)
    Blend: AUG-CC-PVTZ-JKFIT

    Orbital Energies [Eh]
    ---------------------

    Doubly Occupied:

       1A    -15.888571     2A    -11.458668     3A    -11.394771
       4A    -11.394175     5A    -11.393436     6A    -11.392964
       7A    -11.371402     8A    -11.345145     9A    -11.344939
      10A     -1.502422    11A     -1.309141    12A     -1.204940
      13A     -1.182102    14A     -1.083124    15A     -1.070468
      16A     -0.988602    17A     -0.965686    18A     -0.949548
      19A     -0.907513    20A     -0.855376    21A     -0.820197
      22A     -0.794296    23A     -0.723905    24A     -0.715466
      25A     -0.714491    26A     -0.694854    27A     -0.677847
      28A     -0.652502    29A     -0.637656    30A     -0.635549
      31A     -0.628612    32A     -0.486589    33A     -0.475203

  @DF-RHF Final Energy:  -364.29311208822639

   => Energetics <=

    Nuclear Repulsion Energy =            432.4259977127745174
    One-Electron Energy =               -1338.1178938036555337
    Two-Electron Energy =                 541.3987840026546792
    Total Energy =                       -364.2931120882263940
  Basis Set: (AUG-CC-PVTZ AUX)
    Blend: AUG-CC-PVTZ-RI
    Molecular point group: c1

    Geometry (in Angstrom), charge = 1, multiplicity = 1:

       Center              X                  Y                   Z               Mass
    ------------   -----------------  -----------------  -----------------  -----------------
         N           -2.807909010581    -0.000264819669     0.015020823377    14.003074004430
         C           -1.317477010581    -0.000220819669    -0.013016176623    12.000000000000
         C            0.733963989419     1.230089180331    -0.011134176623    12.000000000000
         C            0.734029989419    -1.230417819669    -0.011126176623    12.000000000000
         C           -0.666668010581    -1.226617819669    -0.005138176623    12.000000000000
         C           -0.666737010581     1.226210180331    -0.005145176623    12.000000000000
         C            1.404805989419    -0.000144819669    -0.008937176623    12.000000000000
         C            1.500180989419     2.525139180331     0.015282823377    12.000000000000
         C            1.500329989419    -2.525418819669     0.015278823377    12.000000000000
         H           -1.218268010581    -2.166148819669    -0.011999176623     1.007825032230
         H           -1.218387010581     2.165712180331    -0.012011176623     1.007825032230
         H            2.493862989419    -0.000115819669    -0.022167176623     1.007825032230
         H           -3.189770010581     0.828372180331    -0.461774176623     1.007825032230
         H           -3.189729010581    -0.828778819669    -0.462021176623     1.007825032230
         H           -3.176857010581    -0.000416819669     0.976846823377     1.007825032230
         H            0.883843989419     3.360407180331    -0.325768176623     1.007825032230
         H            1.841721989419     2.749375180331     1.030777823377     1.007825032230
         H            2.382196989419     2.467394180331    -0.627163176623     1.007825032230
         H            2.310430389419    -2.445417519669    -0.713667776623     1.007825032230
         H            0.883949989419    -3.360776819669    -0.325474176623     1.007825032230
         H            1.842166989419    -2.749476819669     1.030711823377     1.007825032230

  Basis Set: AUG-CC-PVTZ
    Blend: AUG-CC-PVTZ
  Basis Set: (AUG-CC-PVTZ AUX)
    Blend: AUG-CC-PVTZ-JKFIT
	 Reference Energy          =    -364.2931120882263940 [Eh]
	 Singles Energy            =      -0.0000000000000000 [Eh]
	 Same-Spin Energy          =      -0.3972151926144111 [Eh]
	 Opposite-Spin Energy      =      -1.3054668489622339 [Eh]
	 Correlation Energy        =      -1.7026820415766450 [Eh]
	 Total Energy              =    -365.9957941298030164 [Eh]

	 ================> DF-SCS-MP2 Energies <==================
	-----------------------------------------------------------
	 SCS Same-Spin Scale       =       0.3333333333333333 [-]
	 SCS Opposite-Spin Scale   =       1.2000000000000000 [-]
	 SCS Same-Spin Energy      =      -0.1324050642048037 [Eh]
	 SCS Opposite-Spin Energy  =      -1.5665602187546805 [Eh]
	 SCS Correlation Energy    =      -1.6989652829594841 [Eh]
	 SCS Total Energy          =    -365.9920773711858715 [Eh]
	-----------------------------------------------------------

  Dipole Moment: [D]
     X:    -8.3970      Y:    -0.0013      Z:     0.1455     Total:     8.3983

*** Psi4 exiting successfully. Buy a developer a beer!
