                               Psi4 1.4a3.dev225

  ==> Input File <==

--------------------------------------------------------------------------
#psi4
#
memory 32 gb

molecule  {
1 1
  N       -2.8138210    -0.0000810     0.0131690
  C       -1.3233890    -0.0000370    -0.0148680
  C        0.7280520     1.2302730    -0.0129860
  C        0.7281180    -1.2302340    -0.0129780
  C       -0.6725800    -1.2264340    -0.0069900
  C       -0.6726490     1.2263940    -0.0069970
  C        1.3988940     0.0000390    -0.0107890
  C        1.4942690     2.5253230     0.0134310
  C        1.4944180    -2.5252350     0.0134270
  H       -1.2241800    -2.1659650    -0.0138510
  H       -1.2242990     2.1658960    -0.0138630
  H        2.4879510     0.0000680    -0.0240190
  H       -3.1882633     0.8124575    -0.4543630
  H       -3.1956410    -0.8285950    -0.4638730
  H       -3.1827690    -0.0002330     0.9749950
  H        0.8779320     3.3605910    -0.3276200
  H        1.8358100     2.7495590     1.0289260
  H        2.3762850     2.4675780    -0.6290150
  H        2.3762540    -2.4675350    -0.6292720
  H        0.8780380    -3.3605930    -0.3273260
  H        1.8362550    -2.7492930     1.0288600
units angstrom
no_reorient  #important for SAPT in psi4, default
symmetry c1  #important for SAPT in psi4, default
}

set PROPERTIES_ORIGIN ["COM"]
properties('MP2/aug-cc-pvtz', properties = ['dipole'])
--------------------------------------------------------------------------

    Molecular point group: c1
  Charge       = 1
  Multiplicity = 1
  Basis Set: AUG-CC-PVTZ
    Blend: AUG-CC-PVTZ
  Basis Set: (AUG-CC-PVTZ AUX)
    Blend: AUG-CC-PVTZ-JKFIT

    Orbital Energies [Eh]
    ---------------------

    Doubly Occupied:

       1A    -15.887497     2A    -11.459094     3A    -11.394955
       4A    -11.394935     5A    -11.393656     6A    -11.393626
       7A    -11.371673     8A    -11.345056     9A    -11.345037
      10A     -1.505824    11A     -1.309619    12A     -1.204974
      13A     -1.182598    14A     -1.083386    15A     -1.070483
      16A     -0.989581    17A     -0.968914    18A     -0.951553
      19A     -0.909570    20A     -0.856366    21A     -0.820712
      22A     -0.795304    23A     -0.724227    24A     -0.715485
      25A     -0.710825    26A     -0.690400    27A     -0.679180
      28A     -0.656970    29A     -0.641244    30A     -0.634800
      31A     -0.628585    32A     -0.486593    33A     -0.475110

  @DF-RHF Final Energy:  -364.29479422553101

   => Energetics <=

    Nuclear Repulsion Energy =            432.4425980967996566
    One-Electron Energy =               -1338.1191259916879517
    Two-Electron Energy =                 541.3817336693573452
    Total Energy =                       -364.2947942255309499
  Basis Set: (AUG-CC-PVTZ AUX)
    Blend: AUG-CC-PVTZ-RI
    Molecular point group: c1

    Geometry (in Angstrom), charge = 1, multiplicity = 1:

       Center              X                  Y                   Z               Mass
    ------------   -----------------  -----------------  -----------------  -----------------
         N           -2.808562373904     0.000052143793     0.014232450250    14.003074004430
         C           -1.318130373904     0.000096143793    -0.013804549750    12.000000000000
         C            0.733310626096     1.230406143793    -0.011922549750    12.000000000000
         C            0.733376626096    -1.230100856207    -0.011914549750    12.000000000000
         C           -0.667321373904    -1.226300856207    -0.005926549750    12.000000000000
         C           -0.667390373904     1.226527143793    -0.005933549750    12.000000000000
         C            1.404152626096     0.000172143793    -0.009725549750    12.000000000000
         C            1.499527626096     2.525456143793     0.014494450250    12.000000000000
         C            1.499676626096    -2.525101856207     0.014490450250    12.000000000000
         H           -1.218921373904    -2.165831856207    -0.012787549750     1.007825032230
         H           -1.219040373904     2.166029143793    -0.012799549750     1.007825032230
         H            2.493209626096     0.000201143793    -0.022955549750     1.007825032230
         H           -3.183004673904     0.812590643793    -0.453299549750     1.007825032230
         H           -3.190382373904    -0.828461856207    -0.462809549750     1.007825032230
         H           -3.177510373904    -0.000099856207     0.976058450250     1.007825032230
         H            0.883190626096     3.360724143793    -0.326556549750     1.007825032230
         H            1.841068626096     2.749692143793     1.029989450250     1.007825032230
         H            2.381543626096     2.467711143793    -0.627951549750     1.007825032230
         H            2.381512626096    -2.467401856207    -0.628208549750     1.007825032230
         H            0.883296626096    -3.360459856207    -0.326262549750     1.007825032230
         H            1.841513626096    -2.749159856207     1.029923450250     1.007825032230

  Basis Set: AUG-CC-PVTZ
    Blend: AUG-CC-PVTZ
  Basis Set: (AUG-CC-PVTZ AUX)
    Blend: AUG-CC-PVTZ-JKFIT
	 Reference Energy          =    -364.2947942255310068 [Eh]
	 Singles Energy            =      -0.0000000000000000 [Eh]
	 Same-Spin Energy          =      -0.3970378717584936 [Eh]
	 Opposite-Spin Energy      =      -1.3049645629890729 [Eh]
	 Correlation Energy        =      -1.7020024347475666 [Eh]
	 Total Energy              =    -365.9967966602785623 [Eh]

	 ================> DF-SCS-MP2 Energies <==================
	-----------------------------------------------------------
	 SCS Same-Spin Scale       =       0.3333333333333333 [-]
	 SCS Opposite-Spin Scale   =       1.2000000000000000 [-]
	 SCS Same-Spin Energy      =      -0.1323459572528312 [Eh]
	 SCS Opposite-Spin Energy  =      -1.5659574755868875 [Eh]
	 SCS Correlation Energy    =      -1.6983034328397186 [Eh]
	 SCS Total Energy          =    -365.9930976583707434 [Eh]
	-----------------------------------------------------------

  Dipole Moment: [D]
     X:    -8.3523      Y:    -0.0207      Z:     0.1836     Total:     8.3543

*** Psi4 exiting successfully. Buy a developer a beer!
