                               Psi4 1.4a3.dev225

  ==> Input File <==

--------------------------------------------------------------------------
#psi4
#
memory 32 gb

molecule  {
1 1
  N       -2.8138210    -0.0000810     0.0131690
  C       -1.3233890    -0.0000370    -0.0148680
  C        0.7280520     1.2302730    -0.0129860
  C        0.7281180    -1.2302340    -0.0129780
  C       -0.6725800    -1.2264340    -0.0069900
  C       -0.6726490     1.2263940    -0.0069970
  C        1.3988940     0.0000390    -0.0107890
  C        1.4942690     2.5253230     0.0134310
  C        1.4944180    -2.5252350     0.0134270
  H       -1.2241800    -2.1659650    -0.0138510
  H       -1.2242990     2.1658960    -0.0138630
  H        2.4879510     0.0000680    -0.0240190
  H       -3.1956820     0.8285560    -0.4636260
  H       -3.1956410    -0.8285950    -0.4638730
  H       -3.1827690    -0.0002330     0.9749950
  H        0.8892136     3.3453020    -0.3213773
  H        1.8358100     2.7495590     1.0289260
  H        2.3762850     2.4675780    -0.6290150
  H        2.3762540    -2.4675350    -0.6292720
  H        0.8780380    -3.3605930    -0.3273260
  H        1.8362550    -2.7492930     1.0288600
units angstrom
no_reorient  #important for SAPT in psi4, default
symmetry c1  #important for SAPT in psi4, default
}

set PROPERTIES_ORIGIN ["COM"]
properties('MP2/aug-cc-pvtz', properties = ['dipole'])
--------------------------------------------------------------------------

    Molecular point group: c1
  Charge       = 1
  Multiplicity = 1
  Basis Set: AUG-CC-PVTZ
    Blend: AUG-CC-PVTZ
  Basis Set: (AUG-CC-PVTZ AUX)
    Blend: AUG-CC-PVTZ-JKFIT

    Orbital Energies [Eh]
    ---------------------

    Doubly Occupied:

       1A    -15.888695     2A    -11.458900     3A    -11.394771
       4A    -11.394722     5A    -11.393458     6A    -11.393452
       7A    -11.371424     8A    -11.344933     9A    -11.342615
      10A     -1.502535    11A     -1.309220    12A     -1.205017
      13A     -1.182098    14A     -1.083572    15A     -1.071232
      16A     -0.988842    17A     -0.966306    18A     -0.949652
      19A     -0.908141    20A     -0.856018    21A     -0.820428
      22A     -0.795016    23A     -0.724310    24A     -0.715693
      25A     -0.710819    26A     -0.690521    27A     -0.680571
      28A     -0.657594    29A     -0.641252    30A     -0.634680
      31A     -0.629008    32A     -0.486351    33A     -0.474993

  @DF-RHF Final Energy:  -364.29442404356377

   => Energetics <=

    Nuclear Repulsion Energy =            432.4237301552752228
    One-Electron Energy =               -1338.1026280610956292
    Two-Electron Energy =                 541.3844738622565274
    Total Energy =                       -364.2944240435638221
  Basis Set: (AUG-CC-PVTZ AUX)
    Blend: AUG-CC-PVTZ-RI
    Molecular point group: c1

    Geometry (in Angstrom), charge = 1, multiplicity = 1:

       Center              X                  Y                   Z               Mass
    ------------   -----------------  -----------------  -----------------  -----------------
         N           -2.808594259439     0.000045461937     0.014257380712    14.003074004430
         C           -1.318162259439     0.000089461937    -0.013779619288    12.000000000000
         C            0.733278740561     1.230399461937    -0.011897619288    12.000000000000
         C            0.733344740561    -1.230107538063    -0.011889619288    12.000000000000
         C           -0.667353259439    -1.226307538063    -0.005901619288    12.000000000000
         C           -0.667422259439     1.226520461937    -0.005908619288    12.000000000000
         C            1.404120740561     0.000165461937    -0.009700619288    12.000000000000
         C            1.499495740561     2.525449461937     0.014519380712    12.000000000000
         C            1.499644740561    -2.525108538063     0.014515380712    12.000000000000
         H           -1.218953259439    -2.165838538063    -0.012762619288     1.007825032230
         H           -1.219072259439     2.166022461937    -0.012774619288     1.007825032230
         H            2.493177740561     0.000194461937    -0.022930619288     1.007825032230
         H           -3.190455259439     0.828682461937    -0.462537619288     1.007825032230
         H           -3.190414259439    -0.828468538063    -0.462784619288     1.007825032230
         H           -3.177542259439    -0.000106538063     0.976083380712     1.007825032230
         H            0.894440340561     3.345428461937    -0.320288919288     1.007825032230
         H            1.841036740561     2.749685461937     1.030014380712     1.007825032230
         H            2.381511740561     2.467704461937    -0.627926619288     1.007825032230
         H            2.381480740561    -2.467408538063    -0.628183619288     1.007825032230
         H            0.883264740561    -3.360466538063    -0.326237619288     1.007825032230
         H            1.841481740561    -2.749166538063     1.029948380712     1.007825032230

  Basis Set: AUG-CC-PVTZ
    Blend: AUG-CC-PVTZ
  Basis Set: (AUG-CC-PVTZ AUX)
    Blend: AUG-CC-PVTZ-JKFIT
	 Reference Energy          =    -364.2944240435637653 [Eh]
	 Singles Energy            =      -0.0000000000000000 [Eh]
	 Same-Spin Energy          =      -0.3971512446568122 [Eh]
	 Opposite-Spin Energy      =      -1.3051782314040437 [Eh]
	 Correlation Energy        =      -1.7023294760608558 [Eh]
	 Total Energy              =    -365.9967535196246331 [Eh]

	 ================> DF-SCS-MP2 Energies <==================
	-----------------------------------------------------------
	 SCS Same-Spin Scale       =       0.3333333333333333 [-]
	 SCS Opposite-Spin Scale   =       1.2000000000000000 [-]
	 SCS Same-Spin Energy      =      -0.1323837482189374 [Eh]
	 SCS Opposite-Spin Energy  =      -1.5662138776848524 [Eh]
	 SCS Correlation Energy    =      -1.6985976259037898 [Eh]
	 SCS Total Energy          =    -365.9930216694675664 [Eh]
	-----------------------------------------------------------

  Dipole Moment: [D]
     X:    -8.3685      Y:     0.0070      Z:     0.1687     Total:     8.3702

*** Psi4 exiting successfully. Buy a developer a beer!
