                               Psi4 1.4a3.dev225

  ==> Input File <==

--------------------------------------------------------------------------
#psi4
#
memory 32 gb

molecule  {
1 1
  N       -2.8138210    -0.0000810     0.0131690
  C       -1.3233890    -0.0000370    -0.0148680
  C        0.7280520     1.2302730    -0.0129860
  C        0.7281180    -1.2302340    -0.0129780
  C       -0.6725800    -1.2264340    -0.0069900
  C       -0.6726490     1.2263940    -0.0069970
  C        1.3988940     0.0000390    -0.0107890
  C        1.4942690     2.5253230     0.0134310
  C        1.4944180    -2.5252350     0.0134270
  H       -1.2241800    -2.1659650    -0.0138510
  H       -1.2242990     2.1658960    -0.0138630
  H        2.4879510     0.0000680    -0.0240190
  H       -3.1956820     0.8285560    -0.4636260
  H       -3.1956410    -0.8285950    -0.4638730
  H       -3.1827690    -0.0002330     0.9749950
  H        0.7651158     3.5134810    -0.3900470
  H        1.8358100     2.7495590     1.0289260
  H        2.3762850     2.4675780    -0.6290150
  H        2.3762540    -2.4675350    -0.6292720
  H        0.8780380    -3.3605930    -0.3273260
  H        1.8362550    -2.7492930     1.0288600
units angstrom
no_reorient  #important for SAPT in psi4, default
symmetry c1  #important for SAPT in psi4, default
}

set PROPERTIES_ORIGIN ["COM"]
properties('MP2/aug-cc-pvtz', properties = ['dipole'])
--------------------------------------------------------------------------

    Molecular point group: c1
  Charge       = 1
  Multiplicity = 1
  Basis Set: AUG-CC-PVTZ
    Blend: AUG-CC-PVTZ
  Basis Set: (AUG-CC-PVTZ AUX)
    Blend: AUG-CC-PVTZ-JKFIT

    Orbital Energies [Eh]
    ---------------------

    Doubly Occupied:

       1A    -15.888955     2A    -11.459229     3A    -11.396479
       4A    -11.395625     5A    -11.394174     6A    -11.394068
       7A    -11.373097     8A    -11.366927     9A    -11.345584
      10A     -1.502807    11A     -1.309872    12A     -1.204257
      13A     -1.182328    14A     -1.081698    15A     -1.063513
      16A     -0.989377    17A     -0.964334    18A     -0.949903
      19A     -0.905513    20A     -0.855888    21A     -0.821186
      22A     -0.794062    23A     -0.723787    24A     -0.715338
      25A     -0.710460    26A     -0.691293    27A     -0.670659
      28A     -0.649361    29A     -0.640299    30A     -0.634754
      31A     -0.610669    32A     -0.487400    33A     -0.475279

  @DF-RHF Final Energy:  -364.27387246437064

   => Energetics <=

    Nuclear Repulsion Energy =            431.5753187200147636
    One-Electron Energy =               -1336.4020355037293939
    Two-Electron Energy =                 540.5528443193439898
    Total Energy =                       -364.2738724643705837
  Basis Set: (AUG-CC-PVTZ AUX)
    Blend: AUG-CC-PVTZ-RI
    Molecular point group: c1

    Geometry (in Angstrom), charge = 1, multiplicity = 1:

       Center              X                  Y                   Z               Mass
    ------------   -----------------  -----------------  -----------------  -----------------
         N           -2.807569918992    -0.001342737951     0.014824201003    14.003074004430
         C           -1.317137918992    -0.001298737951    -0.013212798997    12.000000000000
         C            0.734303081008     1.229011262049    -0.011330798997    12.000000000000
         C            0.734369081008    -1.231495737951    -0.011322798997    12.000000000000
         C           -0.666328918992    -1.227695737951    -0.005334798997    12.000000000000
         C           -0.666397918992     1.225132262049    -0.005341798997    12.000000000000
         C            1.405145081008    -0.001222737951    -0.009133798997    12.000000000000
         C            1.500520081008     2.524061262049     0.015086201003    12.000000000000
         C            1.500669081008    -2.526496737951     0.015082201003    12.000000000000
         H           -1.217928918992    -2.167226737951    -0.012195798997     1.007825032230
         H           -1.218047918992     2.164634262049    -0.012207798997     1.007825032230
         H            2.494202081008    -0.001193737951    -0.022363798997     1.007825032230
         H           -3.189430918992     0.827294262049    -0.461970798997     1.007825032230
         H           -3.189389918992    -0.829856737951    -0.462217798997     1.007825032230
         H           -3.176517918992    -0.001494737951     0.976650201003     1.007825032230
         H            0.771366881008     3.512219262049    -0.388391798997     1.007825032230
         H            1.842061081008     2.748297262049     1.030581201003     1.007825032230
         H            2.382536081008     2.466316262049    -0.627359798997     1.007825032230
         H            2.382505081008    -2.468796737951    -0.627616798997     1.007825032230
         H            0.884289081008    -3.361854737951    -0.325670798997     1.007825032230
         H            1.842506081008    -2.750554737951     1.030515201003     1.007825032230

  Basis Set: AUG-CC-PVTZ
    Blend: AUG-CC-PVTZ
  Basis Set: (AUG-CC-PVTZ AUX)
    Blend: AUG-CC-PVTZ-JKFIT
	 Reference Energy          =    -364.2738724643706405 [Eh]
	 Singles Energy            =      -0.0000000000000000 [Eh]
	 Same-Spin Energy          =      -0.3972508882896229 [Eh]
	 Opposite-Spin Energy      =      -1.3070682509671181 [Eh]
	 Correlation Energy        =      -1.7043191392567409 [Eh]
	 Total Energy              =    -365.9781916036274083 [Eh]

	 ================> DF-SCS-MP2 Energies <==================
	-----------------------------------------------------------
	 SCS Same-Spin Scale       =       0.3333333333333333 [-]
	 SCS Opposite-Spin Scale   =       1.2000000000000000 [-]
	 SCS Same-Spin Energy      =      -0.1324169627632076 [Eh]
	 SCS Opposite-Spin Energy  =      -1.5684819011605418 [Eh]
	 SCS Correlation Energy    =      -1.7008988639237494 [Eh]
	 SCS Total Energy          =    -365.9747713282943664 [Eh]
	-----------------------------------------------------------

  Dipole Moment: [D]
     X:    -8.3387      Y:    -0.0962      Z:     0.1914     Total:     8.3414

*** Psi4 exiting successfully. Buy a developer a beer!
