                               Psi4 1.4a3.dev225

  ==> Input File <==

--------------------------------------------------------------------------
#psi4
#
memory 32 gb

molecule  {
1 1
  N       -2.8138210    -0.0000810     0.0131690
  C       -1.3233890    -0.0000370    -0.0148680
  C        0.7280520     1.2302730    -0.0129860
  C        0.7281180    -1.2302340    -0.0129780
  C       -0.6725800    -1.2264340    -0.0069900
  C       -0.6726490     1.2263940    -0.0069970
  C        1.3988940     0.0000390    -0.0107890
  C        1.4942690     2.5253230     0.0134310
  C        1.4944180    -2.5252350     0.0134270
  H       -1.2241800    -2.1659650    -0.0138510
  H       -1.1989825     2.1227801    -0.0135479
  H        2.4879510     0.0000680    -0.0240190
  H       -3.1956820     0.8285560    -0.4636260
  H       -3.1956410    -0.8285950    -0.4638730
  H       -3.1827690    -0.0002330     0.9749950
  H        0.8779320     3.3605910    -0.3276200
  H        1.8358100     2.7495590     1.0289260
  H        2.3762850     2.4675780    -0.6290150
  H        2.3762540    -2.4675350    -0.6292720
  H        0.8780380    -3.3605930    -0.3273260
  H        1.8362550    -2.7492930     1.0288600
units angstrom
no_reorient  #important for SAPT in psi4, default
symmetry c1  #important for SAPT in psi4, default
}

set PROPERTIES_ORIGIN ["COM"]
properties('MP2/aug-cc-pvtz', properties = ['dipole'])
--------------------------------------------------------------------------

    Molecular point group: c1
  Charge       = 1
  Multiplicity = 1
  Basis Set: AUG-CC-PVTZ
    Blend: AUG-CC-PVTZ
  Basis Set: (AUG-CC-PVTZ AUX)
    Blend: AUG-CC-PVTZ-JKFIT

    Orbital Energies [Eh]
    ---------------------

    Doubly Occupied:

       1A    -15.888868     2A    -11.458574     3A    -11.394690
       4A    -11.394136     5A    -11.393293     6A    -11.388113
       7A    -11.371211     8A    -11.344972     9A    -11.344892
      10A     -1.502720    11A     -1.309373    12A     -1.205692
      13A     -1.182190    14A     -1.084687    15A     -1.070477
      16A     -0.989615    17A     -0.966144    18A     -0.949830
      19A     -0.909460    20A     -0.859227    21A     -0.823477
      22A     -0.794730    23A     -0.728561    24A     -0.715795
      25A     -0.710613    26A     -0.690292    27A     -0.679401
      28A     -0.657001    29A     -0.641028    30A     -0.634443
      31A     -0.628735    32A     -0.486213    33A     -0.474865

  @DF-RHF Final Energy:  -364.29367509733231

   => Energetics <=

    Nuclear Repulsion Energy =            432.6029774807614672
    One-Electron Energy =               -1338.4466674228883676
    Two-Electron Energy =                 541.5500148447946458
    Total Energy =                       -364.2936750973323115
  Basis Set: (AUG-CC-PVTZ AUX)
    Blend: AUG-CC-PVTZ-RI
    Molecular point group: c1

    Geometry (in Angstrom), charge = 1, multiplicity = 1:

       Center              X                  Y                   Z               Mass
    ------------   -----------------  -----------------  -----------------  -----------------
         N           -2.808710107711     0.000275153512     0.014306308899    14.003074004430
         C           -1.318278107711     0.000319153512    -0.013730691101    12.000000000000
         C            0.733162892289     1.230629153512    -0.011848691101    12.000000000000
         C            0.733228892289    -1.229877846488    -0.011840691101    12.000000000000
         C           -0.667469107711    -1.226077846488    -0.005852691101    12.000000000000
         C           -0.667538107711     1.226750153512    -0.005859691101    12.000000000000
         C            1.404004892289     0.000395153512    -0.009651691101    12.000000000000
         C            1.499379892289     2.525679153512     0.014568308899    12.000000000000
         C            1.499528892289    -2.524878846488     0.014564308899    12.000000000000
         H           -1.219069107711    -2.165608846488    -0.012713691101     1.007825032230
         H           -1.193871607711     2.123136253512    -0.012410591101     1.007825032230
         H            2.493061892289     0.000424153512    -0.022881691101     1.007825032230
         H           -3.190571107711     0.828912153512    -0.462488691101     1.007825032230
         H           -3.190530107711    -0.828238846488    -0.462735691101     1.007825032230
         H           -3.177658107711     0.000123153512     0.976132308899     1.007825032230
         H            0.883042892289     3.360947153512    -0.326482691101     1.007825032230
         H            1.840920892289     2.749915153512     1.030063308899     1.007825032230
         H            2.381395892289     2.467934153512    -0.627877691101     1.007825032230
         H            2.381364892289    -2.467178846488    -0.628134691101     1.007825032230
         H            0.883148892289    -3.360236846488    -0.326188691101     1.007825032230
         H            1.841365892289    -2.748936846488     1.029997308899     1.007825032230

  Basis Set: AUG-CC-PVTZ
    Blend: AUG-CC-PVTZ
  Basis Set: (AUG-CC-PVTZ AUX)
    Blend: AUG-CC-PVTZ-JKFIT
	 Reference Energy          =    -364.2936750973323115 [Eh]
	 Singles Energy            =      -0.0000000000000000 [Eh]
	 Same-Spin Energy          =      -0.3970332431076987 [Eh]
	 Opposite-Spin Energy      =      -1.3049673050622232 [Eh]
	 Correlation Energy        =      -1.7020005481699219 [Eh]
	 Total Energy              =    -365.9956756455022173 [Eh]

	 ================> DF-SCS-MP2 Energies <==================
	-----------------------------------------------------------
	 SCS Same-Spin Scale       =       0.3333333333333333 [-]
	 SCS Opposite-Spin Scale   =       1.2000000000000000 [-]
	 SCS Same-Spin Energy      =      -0.1323444143692329 [Eh]
	 SCS Opposite-Spin Energy  =      -1.5659607660746679 [Eh]
	 SCS Correlation Energy    =      -1.6983051804439009 [Eh]
	 SCS Total Energy          =    -365.9919802777762357 [Eh]
	-----------------------------------------------------------

  Dipole Moment: [D]
     X:    -8.3770      Y:    -0.0005      Z:     0.1696     Total:     8.3787

*** Psi4 exiting successfully. Buy a developer a beer!
