                               Psi4 1.4a3.dev225

  ==> Input File <==

--------------------------------------------------------------------------
#psi4
#
memory 32 gb

molecule  {
1 1
  N       -2.8138210    -0.0000810     0.0131690
  C       -1.3233890    -0.0000370    -0.0148680
  C        0.7280520     1.2302730    -0.0129860
  C        0.7281180    -1.2302340    -0.0129780
  C       -0.6725800    -1.2264340    -0.0069900
  C       -0.6726490     1.2263940    -0.0069970
  C        1.3988940     0.0000390    -0.0107890
  C        1.4942690     2.5253230     0.0134310
  C        1.4944180    -2.5252350     0.0134270
  H       -1.2241800    -2.1659650    -0.0138510
  H       -1.2242990     2.1658960    -0.0138630
  H        2.4879510     0.0000680    -0.0240190
  H       -3.1956820     0.8285560    -0.4636260
  H       -3.1882231    -0.8124989    -0.4546052
  H       -3.1827690    -0.0002330     0.9749950
  H        0.8779320     3.3605910    -0.3276200
  H        1.8358100     2.7495590     1.0289260
  H        2.3762850     2.4675780    -0.6290150
  H        2.3762540    -2.4675350    -0.6292720
  H        0.8780380    -3.3605930    -0.3273260
  H        1.8362550    -2.7492930     1.0288600
units angstrom
no_reorient  #important for SAPT in psi4, default
symmetry c1  #important for SAPT in psi4, default
}

set PROPERTIES_ORIGIN ["COM"]
properties('MP2/aug-cc-pvtz', properties = ['dipole'])
--------------------------------------------------------------------------

    Molecular point group: c1
  Charge       = 1
  Multiplicity = 1
  Basis Set: AUG-CC-PVTZ
    Blend: AUG-CC-PVTZ
  Basis Set: (AUG-CC-PVTZ AUX)
    Blend: AUG-CC-PVTZ-JKFIT

    Orbital Energies [Eh]
    ---------------------

    Doubly Occupied:

       1A    -15.887497     2A    -11.459094     3A    -11.394954
       4A    -11.394935     5A    -11.393655     6A    -11.393627
       7A    -11.371673     8A    -11.345057     9A    -11.345036
      10A     -1.505824    11A     -1.309619    12A     -1.204974
      13A     -1.182598    14A     -1.083386    15A     -1.070483
      16A     -0.989581    17A     -0.968913    18A     -0.951555
      19A     -0.909569    20A     -0.856366    21A     -0.820712
      22A     -0.795304    23A     -0.724227    24A     -0.715485
      25A     -0.710825    26A     -0.690400    27A     -0.679180
      28A     -0.656970    29A     -0.641244    30A     -0.634800
      31A     -0.628585    32A     -0.486593    33A     -0.475110

  @DF-RHF Final Energy:  -364.29479421659687

   => Energetics <=

    Nuclear Repulsion Energy =            432.4425989011019169
    One-Electron Energy =               -1338.1191271074230826
    Two-Electron Energy =                 541.3817339897242391
    Total Energy =                       -364.2947942165968698
  Basis Set: (AUG-CC-PVTZ AUX)
    Blend: AUG-CC-PVTZ-RI
    Molecular point group: c1

    Geometry (in Angstrom), charge = 1, multiplicity = 1:

       Center              X                  Y                   Z               Mass
    ------------   -----------------  -----------------  -----------------  -----------------
         N           -2.808562367300    -0.000213600088     0.014232410629    14.003074004430
         C           -1.318130367300    -0.000169600088    -0.013804589371    12.000000000000
         C            0.733310632699     1.230140399912    -0.011922589371    12.000000000000
         C            0.733376632700    -1.230366600088    -0.011914589371    12.000000000000
         C           -0.667321367301    -1.226566600088    -0.005926589371    12.000000000000
         C           -0.667390367300     1.226261399912    -0.005933589371    12.000000000000
         C            1.404152632700    -0.000093600088    -0.009725589371    12.000000000000
         C            1.499527632700     2.525190399912     0.014494410629    12.000000000000
         C            1.499676632700    -2.525367600088     0.014490410629    12.000000000000
         H           -1.218921367301    -2.166097600088    -0.012787589371     1.007825032230
         H           -1.219040367300     2.165763399912    -0.012799589371     1.007825032230
         H            2.493209632699    -0.000064600088    -0.022955589371     1.007825032230
         H           -3.190423367300     0.828423399912    -0.462562589371     1.007825032230
         H           -3.182964467300    -0.812631500088    -0.453541789371     1.007825032230
         H           -3.177510367301    -0.000365600088     0.976058410629     1.007825032230
         H            0.883190632699     3.360458399912    -0.326556589371     1.007825032230
         H            1.841068632700     2.749426399912     1.029989410629     1.007825032230
         H            2.381543632700     2.467445399912    -0.627951589371     1.007825032230
         H            2.381512632700    -2.467667600088    -0.628208589371     1.007825032230
         H            0.883296632699    -3.360725600088    -0.326262589371     1.007825032230
         H            1.841513632700    -2.749425600088     1.029923410629     1.007825032230

  Basis Set: AUG-CC-PVTZ
    Blend: AUG-CC-PVTZ
  Basis Set: (AUG-CC-PVTZ AUX)
    Blend: AUG-CC-PVTZ-JKFIT
	 Reference Energy          =    -364.2947942165968698 [Eh]
	 Singles Energy            =      -0.0000000000000000 [Eh]
	 Same-Spin Energy          =      -0.3970378766955229 [Eh]
	 Opposite-Spin Energy      =      -1.3049645764761555 [Eh]
	 Correlation Energy        =      -1.7020024531716784 [Eh]
	 Total Energy              =    -365.9967966697685711 [Eh]

	 ================> DF-SCS-MP2 Energies <==================
	-----------------------------------------------------------
	 SCS Same-Spin Scale       =       0.3333333333333333 [-]
	 SCS Opposite-Spin Scale   =       1.2000000000000000 [-]
	 SCS Same-Spin Energy      =      -0.1323459588985076 [Eh]
	 SCS Opposite-Spin Energy  =      -1.5659574917713865 [Eh]
	 SCS Correlation Energy    =      -1.6983034506698942 [Eh]
	 SCS Total Energy          =    -365.9930976672667384 [Eh]
	-----------------------------------------------------------

  Dipole Moment: [D]
     X:    -8.3523      Y:     0.0203      Z:     0.1836     Total:     8.3543

*** Psi4 exiting successfully. Buy a developer a beer!
