                               Psi4 1.4a3.dev225

  ==> Input File <==

--------------------------------------------------------------------------
#psi4
#
memory 32 gb

molecule  {
1 1
  N       -2.8138210    -0.0000810     0.0131690
  C       -1.3233890    -0.0000370    -0.0148680
  C        0.7280520     1.2302730    -0.0129860
  C        0.7281180    -1.2302340    -0.0129780
  C       -0.6725800    -1.2264340    -0.0069900
  C       -0.6726490     1.2263940    -0.0069970
  C        1.3988940     0.0000390    -0.0107890
  C        1.4942690     2.5253230     0.0134310
  C        1.4944180    -2.5252350     0.0134270
  H       -1.2241800    -2.1659650    -0.0138510
  H       -1.2242990     2.1658960    -0.0138630
  H        2.4879510     0.0000680    -0.0240190
  H       -3.2044621     0.8329700    -0.4485844
  H       -3.1956410    -0.8285950    -0.4638730
  H       -3.1827690    -0.0002330     0.9749950
  H        0.8779320     3.3605910    -0.3276200
  H        1.8358100     2.7495590     1.0289260
  H        2.3762850     2.4675780    -0.6290150
  H        2.3762540    -2.4675350    -0.6292720
  H        0.8780380    -3.3605930    -0.3273260
  H        1.8362550    -2.7492930     1.0288600
units angstrom
no_reorient  #important for SAPT in psi4, default
symmetry c1  #important for SAPT in psi4, default
}

set PROPERTIES_ORIGIN ["COM"]
properties('MP2/aug-cc-pvtz', properties = ['dipole'])
--------------------------------------------------------------------------

    Molecular point group: c1
  Charge       = 1
  Multiplicity = 1
  Basis Set: AUG-CC-PVTZ
    Blend: AUG-CC-PVTZ
  Basis Set: (AUG-CC-PVTZ AUX)
    Blend: AUG-CC-PVTZ-JKFIT

    Orbital Energies [Eh]
    ---------------------

    Doubly Occupied:

       1A    -15.888750     2A    -11.459015     3A    -11.394839
       4A    -11.394795     5A    -11.393528     6A    -11.393476
       7A    -11.371518     8A    -11.344971     9A    -11.344955
      10A     -1.502552    11A     -1.309278    12A     -1.204837
      13A     -1.182166    14A     -1.083096    15A     -1.070369
      16A     -0.989140    17A     -0.966472    18A     -0.948095
      19A     -0.908142    20A     -0.856123    21A     -0.820575
      22A     -0.794952    23A     -0.724100    24A     -0.715369
      25A     -0.710698    26A     -0.690314    27A     -0.679084
      28A     -0.656862    29A     -0.641129    30A     -0.634572
      31A     -0.628479    32A     -0.486381    33A     -0.474985

  @DF-RHF Final Energy:  -364.29433114601886

   => Energetics <=

    Nuclear Repulsion Energy =            432.3229383839464504
    One-Electron Energy =               -1337.9073080464966097
    Two-Electron Energy =                 541.2900385165313537
    Total Energy =                       -364.2943311460188625
  Basis Set: (AUG-CC-PVTZ AUX)
    Blend: AUG-CC-PVTZ-RI
    Molecular point group: c1

    Geometry (in Angstrom), charge = 1, multiplicity = 1:

       Center              X                  Y                   Z               Mass
    ------------   -----------------  -----------------  -----------------  -----------------
         N           -2.808428664152    -0.000117172532     0.014184751953    14.003074004430
         C           -1.317996664152    -0.000073172532    -0.013852248047    12.000000000000
         C            0.733444335848     1.230236827468    -0.011970248047    12.000000000000
         C            0.733510335848    -1.230270172532    -0.011962248047    12.000000000000
         C           -0.667187664152    -1.226470172532    -0.005974248047    12.000000000000
         C           -0.667256664152     1.226357827468    -0.005981248047    12.000000000000
         C            1.404286335848     0.000002827468    -0.009773248047    12.000000000000
         C            1.499661335848     2.525286827468     0.014446751953    12.000000000000
         C            1.499810335848    -2.525271172532     0.014442751953    12.000000000000
         H           -1.218787664152    -2.166001172532    -0.012835248047     1.007825032230
         H           -1.218906664152     2.165859827468    -0.012847248047     1.007825032230
         H            2.493343335848     0.000031827468    -0.023003248047     1.007825032230
         H           -3.199069764152     0.832933827468    -0.447568648047     1.007825032230
         H           -3.190248664152    -0.828631172532    -0.462857248047     1.007825032230
         H           -3.177376664152    -0.000269172532     0.976010751953     1.007825032230
         H            0.883324335848     3.360554827468    -0.326604248047     1.007825032230
         H            1.841202335848     2.749522827468     1.029941751953     1.007825032230
         H            2.381677335848     2.467541827468    -0.627999248047     1.007825032230
         H            2.381646335848    -2.467571172532    -0.628256248047     1.007825032230
         H            0.883430335848    -3.360629172532    -0.326310248047     1.007825032230
         H            1.841647335848    -2.749329172532     1.029875751953     1.007825032230

  Basis Set: AUG-CC-PVTZ
    Blend: AUG-CC-PVTZ
  Basis Set: (AUG-CC-PVTZ AUX)
    Blend: AUG-CC-PVTZ-JKFIT
	 Reference Energy          =    -364.2943311460188625 [Eh]
	 Singles Energy            =      -0.0000000000000000 [Eh]
	 Same-Spin Energy          =      -0.3971541525609880 [Eh]
	 Opposite-Spin Energy      =      -1.3052961908062461 [Eh]
	 Correlation Energy        =      -1.7024503433672342 [Eh]
	 Total Energy              =    -365.9967814893860805 [Eh]

	 ================> DF-SCS-MP2 Energies <==================
	-----------------------------------------------------------
	 SCS Same-Spin Scale       =       0.3333333333333333 [-]
	 SCS Opposite-Spin Scale   =       1.2000000000000000 [-]
	 SCS Same-Spin Energy      =      -0.1323847175203293 [Eh]
	 SCS Opposite-Spin Energy  =      -1.5663554289674952 [Eh]
	 SCS Correlation Energy    =      -1.6987401464878247 [Eh]
	 SCS Total Energy          =    -365.9930712925066700 [Eh]
	-----------------------------------------------------------

  Dipole Moment: [D]
     X:    -8.3755      Y:     0.0054      Z:     0.1848     Total:     8.3775

*** Psi4 exiting successfully. Buy a developer a beer!
