                               Psi4 1.4a3.dev225

  ==> Input File <==

--------------------------------------------------------------------------
#psi4
#
memory 32 gb

molecule  {
1 1
  N       -2.8138210    -0.0000810     0.0131690
  C       -1.3233890    -0.0000370    -0.0148680
  C        0.7280520     1.2302730    -0.0129860
  C        0.7281180    -1.2302340    -0.0129780
  C       -0.6725800    -1.2264340    -0.0069900
  C       -0.6726490     1.2263940    -0.0069970
  C        1.3988940     0.0000390    -0.0107890
  C        1.4942690     2.5253230     0.0134310
  C        1.4944180    -2.5252350     0.0134270
  H       -1.2241800    -2.1659650    -0.0138510
  H       -1.2242990     2.1658960    -0.0138630
  H        2.4879510     0.0000680    -0.0240190
  H       -3.2046615     0.8177688    -0.4748433
  H       -3.1956410    -0.8285950    -0.4638730
  H       -3.1827690    -0.0002330     0.9749950
  H        0.8779320     3.3605910    -0.3276200
  H        1.8358100     2.7495590     1.0289260
  H        2.3762850     2.4675780    -0.6290150
  H        2.3762540    -2.4675350    -0.6292720
  H        0.8780380    -3.3605930    -0.3273260
  H        1.8362550    -2.7492930     1.0288600
units angstrom
no_reorient  #important for SAPT in psi4, default
symmetry c1  #important for SAPT in psi4, default
}

set PROPERTIES_ORIGIN ["COM"]
properties('MP2/aug-cc-pvtz', properties = ['dipole'])
--------------------------------------------------------------------------

    Molecular point group: c1
  Charge       = 1
  Multiplicity = 1
  Basis Set: AUG-CC-PVTZ
    Blend: AUG-CC-PVTZ
  Basis Set: (AUG-CC-PVTZ AUX)
    Blend: AUG-CC-PVTZ-JKFIT

    Orbital Energies [Eh]
    ---------------------

    Doubly Occupied:

       1A    -15.888690     2A    -11.458907     3A    -11.394798
       4A    -11.394730     5A    -11.393506     6A    -11.393400
       7A    -11.371527     8A    -11.344954     9A    -11.344914
      10A     -1.502511    11A     -1.309242    12A     -1.204785
      13A     -1.182128    14A     -1.082931    15A     -1.070342
      16A     -0.989084    17A     -0.964883    18A     -0.950830
      19A     -0.907077    20A     -0.856099    21A     -0.820487
      22A     -0.794698    23A     -0.724023    24A     -0.715333
      25A     -0.710691    26A     -0.690287    27A     -0.679053
      28A     -0.656807    29A     -0.641088    30A     -0.634627
      31A     -0.628437    32A     -0.486427    33A     -0.474928

  @DF-RHF Final Energy:  -364.29433744791675

   => Energetics <=

    Nuclear Repulsion Energy =            432.3197831268126379
    One-Electron Energy =               -1337.9037904747522134
    Two-Electron Energy =                 541.2896699000228864
    Total Energy =                       -364.2943374479167460
  Basis Set: (AUG-CC-PVTZ AUX)
    Blend: AUG-CC-PVTZ-RI
    Molecular point group: c1

    Geometry (in Angstrom), charge = 1, multiplicity = 1:

       Center              X                  Y                   Z               Mass
    ------------   -----------------  -----------------  -----------------  -----------------
         N           -2.808427018245     0.000008302730     0.014401500786    14.003074004430
         C           -1.317995018245     0.000052302730    -0.013635499214    12.000000000000
         C            0.733445981755     1.230362302730    -0.011753499214    12.000000000000
         C            0.733511981755    -1.230144697270    -0.011745499214    12.000000000000
         C           -0.667186018245    -1.226344697270    -0.005757499214    12.000000000000
         C           -0.667255018245     1.226483302730    -0.005764499214    12.000000000000
         C            1.404287981755     0.000128302730    -0.009556499214    12.000000000000
         C            1.499662981755     2.525412302730     0.014663500786    12.000000000000
         C            1.499811981755    -2.525145697270     0.014659500786    12.000000000000
         H           -1.218786018245    -2.165875697270    -0.012618499214     1.007825032230
         H           -1.218905018245     2.165985302730    -0.012630499214     1.007825032230
         H            2.493344981755     0.000157302730    -0.022786499214     1.007825032230
         H           -3.199267518245     0.817858102730    -0.473610799214     1.007825032230
         H           -3.190247018245    -0.828505697270    -0.462640499214     1.007825032230
         H           -3.177375018245    -0.000143697270     0.976227500786     1.007825032230
         H            0.883325981755     3.360680302730    -0.326387499214     1.007825032230
         H            1.841203981755     2.749648302730     1.030158500786     1.007825032230
         H            2.381678981755     2.467667302730    -0.627782499214     1.007825032230
         H            2.381647981755    -2.467445697270    -0.628039499214     1.007825032230
         H            0.883431981755    -3.360503697270    -0.326093499214     1.007825032230
         H            1.841648981755    -2.749203697270     1.030092500786     1.007825032230

  Basis Set: AUG-CC-PVTZ
    Blend: AUG-CC-PVTZ
  Basis Set: (AUG-CC-PVTZ AUX)
    Blend: AUG-CC-PVTZ-JKFIT
	 Reference Energy          =    -364.2943374479167460 [Eh]
	 Singles Energy            =      -0.0000000000000000 [Eh]
	 Same-Spin Energy          =      -0.3971499424818090 [Eh]
	 Opposite-Spin Energy      =      -1.3053043753135976 [Eh]
	 Correlation Energy        =      -1.7024543177954066 [Eh]
	 Total Energy              =    -365.9967917657121461 [Eh]

	 ================> DF-SCS-MP2 Energies <==================
	-----------------------------------------------------------
	 SCS Same-Spin Scale       =       0.3333333333333333 [-]
	 SCS Opposite-Spin Scale   =       1.2000000000000000 [-]
	 SCS Same-Spin Energy      =      -0.1323833141606030 [Eh]
	 SCS Opposite-Spin Energy  =      -1.5663652503763170 [Eh]
	 SCS Correlation Energy    =      -1.6987485645369200 [Eh]
	 SCS Total Energy          =    -365.9930860124536594 [Eh]
	-----------------------------------------------------------

  Dipole Moment: [D]
     X:    -8.3777      Y:    -0.0083      Z:     0.1571     Total:     8.3792

*** Psi4 exiting successfully. Buy a developer a beer!
