                               Psi4 1.4a3.dev225

  ==> Input File <==

--------------------------------------------------------------------------
#psi4
#
memory 32 gb

molecule  {
1 1
  N       -2.8138210    -0.0000810     0.0131690
  C       -1.3252754    -0.0000294    -0.0668662
  C        0.7280520     1.2302730    -0.0129860
  C        0.7281180    -1.2302340    -0.0129780
  C       -0.6725800    -1.2264340    -0.0069900
  C       -0.6726490     1.2263940    -0.0069970
  C        1.3988940     0.0000390    -0.0107890
  C        1.4942690     2.5253230     0.0134310
  C        1.4944180    -2.5252350     0.0134270
  H       -1.2241800    -2.1659650    -0.0138510
  H       -1.2242990     2.1658960    -0.0138630
  H        2.4879510     0.0000680    -0.0240190
  H       -3.1956820     0.8285560    -0.4636260
  H       -3.1956410    -0.8285950    -0.4638730
  H       -3.1827690    -0.0002330     0.9749950
  H        0.8779320     3.3605910    -0.3276200
  H        1.8358100     2.7495590     1.0289260
  H        2.3762850     2.4675780    -0.6290150
  H        2.3762540    -2.4675350    -0.6292720
  H        0.8780380    -3.3605930    -0.3273260
  H        1.8362550    -2.7492930     1.0288600
units angstrom
no_reorient  #important for SAPT in psi4, default
symmetry c1  #important for SAPT in psi4, default
}

set PROPERTIES_ORIGIN ["COM"]
properties('MP2/aug-cc-pvtz', properties = ['dipole'])
--------------------------------------------------------------------------

    Molecular point group: c1
  Charge       = 1
  Multiplicity = 1
  Basis Set: AUG-CC-PVTZ
    Blend: AUG-CC-PVTZ
  Basis Set: (AUG-CC-PVTZ AUX)
    Blend: AUG-CC-PVTZ-JKFIT

    Orbital Energies [Eh]
    ---------------------

    Doubly Occupied:

       1A    -15.888456     2A    -11.458934     3A    -11.395052
       4A    -11.395031     5A    -11.393857     6A    -11.393843
       7A    -11.372125     8A    -11.345036     9A    -11.345035
      10A     -1.502245    11A     -1.309013    12A     -1.204853
      13A     -1.181855    14A     -1.082846    15A     -1.070515
      16A     -0.989065    17A     -0.965999    18A     -0.949107
      19A     -0.907700    20A     -0.855345    21A     -0.820693
      22A     -0.794328    23A     -0.723892    24A     -0.715645
      25A     -0.710540    26A     -0.690434    27A     -0.679243
      28A     -0.656834    29A     -0.641784    30A     -0.633932
      31A     -0.628529    32A     -0.486635    33A     -0.474896

  @DF-RHF Final Energy:  -364.29311621703675

   => Energetics <=

    Nuclear Repulsion Energy =            432.2658653952884151
    One-Electron Energy =               -1337.7913625426435829
    Two-Electron Energy =                 541.2323809303184134
    Total Energy =                       -364.2931162170367543
  Basis Set: (AUG-CC-PVTZ AUX)
    Blend: AUG-CC-PVTZ-RI
    Molecular point group: c1

    Geometry (in Angstrom), charge = 1, multiplicity = 1:

       Center              X                  Y                   Z               Mass
    ------------   -----------------  -----------------  -----------------  -----------------
         N           -2.808315737558    -0.000081485000     0.019419424673    14.003074004430
         C           -1.319770137558    -0.000029885000    -0.060615775327    12.000000000000
         C            0.733557262442     1.230272515000    -0.006735575327    12.000000000000
         C            0.733623262442    -1.230234485000    -0.006727575327    12.000000000000
         C           -0.667074737558    -1.226434485000    -0.000739575327    12.000000000000
         C           -0.667143737558     1.226393515000    -0.000746575327    12.000000000000
         C            1.404399262442     0.000038515000    -0.004538575327    12.000000000000
         C            1.499774262442     2.525322515000     0.019681424673    12.000000000000
         C            1.499923262442    -2.525235485000     0.019677424673    12.000000000000
         H           -1.218674737558    -2.165965485000    -0.007600575327     1.007825032230
         H           -1.218793737558     2.165895515000    -0.007612575327     1.007825032230
         H            2.493456262442     0.000067515000    -0.017768575327     1.007825032230
         H           -3.190176737558     0.828555515000    -0.457375575327     1.007825032230
         H           -3.190135737558    -0.828595485000    -0.457622575327     1.007825032230
         H           -3.177263737558    -0.000233485000     0.981245424673     1.007825032230
         H            0.883437262442     3.360590515000    -0.321369575327     1.007825032230
         H            1.841315262442     2.749558515000     1.035176424673     1.007825032230
         H            2.381790262442     2.467577515000    -0.622764575327     1.007825032230
         H            2.381759262442    -2.467535485000    -0.623021575327     1.007825032230
         H            0.883543262442    -3.360593485000    -0.321075575327     1.007825032230
         H            1.841760262442    -2.749293485000     1.035110424673     1.007825032230

  Basis Set: AUG-CC-PVTZ
    Blend: AUG-CC-PVTZ
  Basis Set: (AUG-CC-PVTZ AUX)
    Blend: AUG-CC-PVTZ-JKFIT
	 Reference Energy          =    -364.2931162170367543 [Eh]
	 Singles Energy            =      -0.0000000000000000 [Eh]
	 Same-Spin Energy          =      -0.3972278658386459 [Eh]
	 Opposite-Spin Energy      =      -1.3054913404948372 [Eh]
	 Correlation Energy        =      -1.7027192063334831 [Eh]
	 Total Energy              =    -365.9958354233702380 [Eh]

	 ================> DF-SCS-MP2 Energies <==================
	-----------------------------------------------------------
	 SCS Same-Spin Scale       =       0.3333333333333333 [-]
	 SCS Opposite-Spin Scale   =       1.2000000000000000 [-]
	 SCS Same-Spin Energy      =      -0.1324092886128820 [Eh]
	 SCS Opposite-Spin Energy  =      -1.5665896085938045 [Eh]
	 SCS Correlation Energy    =      -1.6989988972066865 [Eh]
	 SCS Total Energy          =    -365.9921151142434610 [Eh]
	-----------------------------------------------------------

  Dipole Moment: [D]
     X:    -8.3368      Y:    -0.0002      Z:     0.2159     Total:     8.3396

*** Psi4 exiting successfully. Buy a developer a beer!
