                               Psi4 1.4a3.dev225

  ==> Input File <==

--------------------------------------------------------------------------
#psi4
#
memory 32 gb

molecule  {
1 1
  N       -2.8138210    -0.0000810     0.0131690
  C       -1.3233890    -0.0000370    -0.0148680
  C        0.7280520     1.2302730    -0.0129860
  C        0.7281180    -1.2302340    -0.0129780
  C       -0.6725800    -1.2264340    -0.0069900
  C       -0.6726490     1.2263940    -0.0069970
  C        1.3988940     0.0000390    -0.0107890
  C        1.4942690     2.5253230     0.0134310
  C        1.4944180    -2.5252350     0.0134270
  H       -1.2241800    -2.1659650    -0.0138510
  H       -1.2242990     2.1658960    -0.0138630
  H        2.4879510     0.0000680    -0.0240190
  H       -3.1956820     0.8285560    -0.4636260
  H       -3.1956410    -0.8285950    -0.4638730
  H       -3.1827690    -0.0002330     0.9749950
  H        0.8779320     3.3605910    -0.3276200
  H        1.8420504     2.7536561     1.0474805
  H        2.3762850     2.4675780    -0.6290150
  H        2.3762540    -2.4675350    -0.6292720
  H        0.8780380    -3.3605930    -0.3273260
  H        1.8362550    -2.7492930     1.0288600
units angstrom
no_reorient  #important for SAPT in psi4, default
symmetry c1  #important for SAPT in psi4, default
}

set PROPERTIES_ORIGIN ["COM"]
properties('MP2/aug-cc-pvtz', properties = ['dipole'])
--------------------------------------------------------------------------

    Molecular point group: c1
  Charge       = 1
  Multiplicity = 1
  Basis Set: AUG-CC-PVTZ
    Blend: AUG-CC-PVTZ
  Basis Set: (AUG-CC-PVTZ AUX)
    Blend: AUG-CC-PVTZ-JKFIT

    Orbital Energies [Eh]
    ---------------------

    Doubly Occupied:

       1A    -15.888730     2A    -11.458945     3A    -11.394923
       4A    -11.394849     5A    -11.393572     6A    -11.393530
       7A    -11.371577     8A    -11.347250     9A    -11.344990
      10A     -1.502571    11A     -1.309265    12A     -1.204723
      13A     -1.181978    14A     -1.082635    15A     -1.069628
      16A     -0.988817    17A     -0.965788    18A     -0.949686
      19A     -0.907644    20A     -0.855832    21A     -0.820498
      22A     -0.794889    23A     -0.724061    24A     -0.715282
      25A     -0.709612    26A     -0.688434    27A     -0.679191
      28A     -0.656786    29A     -0.641157    30A     -0.633826
      31A     -0.628530    32A     -0.486333    33A     -0.474891

  @DF-RHF Final Energy:  -364.29385662705454

   => Energetics <=

    Nuclear Repulsion Energy =            432.2518348190074562
    One-Electron Energy =               -1337.7705322029526087
    Two-Electron Energy =                 541.2248407568906714
    Total Energy =                       -364.2938566270545380
  Basis Set: (AUG-CC-PVTZ AUX)
    Blend: AUG-CC-PVTZ-RI
    Molecular point group: c1

    Geometry (in Angstrom), charge = 1, multiplicity = 1:

       Center              X                  Y                   Z               Mass
    ------------   -----------------  -----------------  -----------------  -----------------
         N           -2.808552647862    -0.000114556745     0.014155755423    14.003074004430
         C           -1.318120647862    -0.000070556745    -0.013881244577    12.000000000000
         C            0.733320352138     1.230239443255    -0.011999244577    12.000000000000
         C            0.733386352138    -1.230267556745    -0.011991244577    12.000000000000
         C           -0.667311647862    -1.226467556745    -0.006003244577    12.000000000000
         C           -0.667380647862     1.226360443255    -0.006010244577    12.000000000000
         C            1.404162352138     0.000005443255    -0.009802244577    12.000000000000
         C            1.499537352138     2.525289443255     0.014417755423    12.000000000000
         C            1.499686352138    -2.525268556745     0.014413755423    12.000000000000
         H           -1.218911647862    -2.165998556745    -0.012864244577     1.007825032230
         H           -1.219030647862     2.165862443255    -0.012876244577     1.007825032230
         H            2.493219352138     0.000034443255    -0.023032244577     1.007825032230
         H           -3.190413647862     0.828522443255    -0.462639244577     1.007825032230
         H           -3.190372647862    -0.828628556745    -0.462886244577     1.007825032230
         H           -3.177500647862    -0.000266556745     0.975981755423     1.007825032230
         H            0.883200352138     3.360557443255    -0.326633244577     1.007825032230
         H            1.847318752138     2.753622543255     1.048467255423     1.007825032230
         H            2.381553352138     2.467544443255    -0.628028244577     1.007825032230
         H            2.381522352138    -2.467568556745    -0.628285244577     1.007825032230
         H            0.883306352138    -3.360626556745    -0.326339244577     1.007825032230
         H            1.841523352138    -2.749326556745     1.029846755423     1.007825032230

  Basis Set: AUG-CC-PVTZ
    Blend: AUG-CC-PVTZ
  Basis Set: (AUG-CC-PVTZ AUX)
    Blend: AUG-CC-PVTZ-JKFIT
	 Reference Energy          =    -364.2938566270545380 [Eh]
	 Singles Energy            =      -0.0000000000000000 [Eh]
	 Same-Spin Energy          =      -0.3971607401590673 [Eh]
	 Opposite-Spin Energy      =      -1.3054370604007515 [Eh]
	 Correlation Energy        =      -1.7025978005598188 [Eh]
	 Total Energy              =    -365.9964544276143670 [Eh]

	 ================> DF-SCS-MP2 Energies <==================
	-----------------------------------------------------------
	 SCS Same-Spin Scale       =       0.3333333333333333 [-]
	 SCS Opposite-Spin Scale   =       1.2000000000000000 [-]
	 SCS Same-Spin Energy      =      -0.1323869133863558 [Eh]
	 SCS Opposite-Spin Energy  =      -1.5665244724809018 [Eh]
	 SCS Correlation Energy    =      -1.6989113858672575 [Eh]
	 SCS Total Energy          =    -365.9927680129217720 [Eh]
	-----------------------------------------------------------

  Dipole Moment: [D]
     X:    -8.3675      Y:    -0.0016      Z:     0.1676     Total:     8.3692

*** Psi4 exiting successfully. Buy a developer a beer!
