                               Psi4 1.4a3.dev225

  ==> Input File <==

--------------------------------------------------------------------------
#psi4
#
memory 32 gb

molecule  {
1 1
  N       -2.8138210    -0.0000810     0.0131690
  C       -1.3233890    -0.0000370    -0.0148680
  C        0.7280520     1.2302730    -0.0129860
  C        0.7281180    -1.2302340    -0.0129780
  C       -0.6725800    -1.2264340    -0.0069900
  C       -0.6726490     1.2263940    -0.0069970
  C        1.3031547    -0.1755568    -0.0111014
  C        1.4942690     2.5253230     0.0134310
  C        1.4944180    -2.5252350     0.0134270
  H       -1.2241800    -2.1659650    -0.0138510
  H       -1.2242990     2.1658960    -0.0138630
  H        2.4879510     0.0000680    -0.0240190
  H       -3.1956820     0.8285560    -0.4636260
  H       -3.1956410    -0.8285950    -0.4638730
  H       -3.1827690    -0.0002330     0.9749950
  H        0.8779320     3.3605910    -0.3276200
  H        1.8358100     2.7495590     1.0289260
  H        2.3762850     2.4675780    -0.6290150
  H        2.3762540    -2.4675350    -0.6292720
  H        0.8780380    -3.3605930    -0.3273260
  H        1.8362550    -2.7492930     1.0288600
units angstrom
no_reorient  #important for SAPT in psi4, default
symmetry c1  #important for SAPT in psi4, default
}

set PROPERTIES_ORIGIN ["COM"]
properties('MP2/aug-cc-pvtz', properties = ['dipole'])
--------------------------------------------------------------------------

    Molecular point group: c1
  Charge       = 1
  Multiplicity = 1
  Basis Set: AUG-CC-PVTZ
    Blend: AUG-CC-PVTZ
  Basis Set: (AUG-CC-PVTZ AUX)
    Blend: AUG-CC-PVTZ-JKFIT

    Orbital Energies [Eh]
    ---------------------

    Doubly Occupied:

       1A    -15.888845     2A    -11.458594     3A    -11.409955
       4A    -11.399738     5A    -11.388850     6A    -11.365956
       7A    -11.360464     8A    -11.352688     9A    -11.340862
      10A     -1.502653    11A     -1.324468    12A     -1.218529
      13A     -1.179269    14A     -1.086969    15A     -1.072544
      16A     -0.989196    17A     -0.965602    18A     -0.949754
      19A     -0.911820    20A     -0.856747    21A     -0.806419
      22A     -0.799088    23A     -0.724849    24A     -0.716711
      25A     -0.716322    26A     -0.692873    27A     -0.675127
      28A     -0.657989    29A     -0.653164    30A     -0.637950
      31A     -0.587331    32A     -0.514256    33A     -0.466347

  @DF-RHF Final Energy:  -364.23251576024700

   => Energetics <=

    Nuclear Repulsion Energy =            434.2938045429765452
    One-Electron Energy =               -1341.7087818902782601
    Two-Electron Energy =                 543.1824615870547177
    Total Energy =                       -364.2325157602469972
  Basis Set: (AUG-CC-PVTZ AUX)
    Blend: AUG-CC-PVTZ-RI
    Molecular point group: c1

    Geometry (in Angstrom), charge = 1, multiplicity = 1:

       Center              X                  Y                   Z               Mass
    ------------   -----------------  -----------------  -----------------  -----------------
         N           -2.799091636752     0.017177262078     0.014339613293    14.003074004430
         C           -1.308659636752     0.017221262078    -0.013697386707    12.000000000000
         C            0.742781363248     1.247531262078    -0.011815386707    12.000000000000
         C            0.742847363248    -1.212975737922    -0.011807386707    12.000000000000
         C           -0.657850636752    -1.209175737922    -0.005819386707    12.000000000000
         C           -0.657919636752     1.243652262078    -0.005826386707    12.000000000000
         C            1.317884063248    -0.158298537922    -0.009930786707    12.000000000000
         C            1.508998363248     2.542581262078     0.014601613293    12.000000000000
         C            1.509147363248    -2.507976737922     0.014597613293    12.000000000000
         H           -1.209450636752    -2.148706737922    -0.012680386707     1.007825032230
         H           -1.209569636752     2.183154262078    -0.012692386707     1.007825032230
         H            2.502680363248     0.017326262078    -0.022848386707     1.007825032230
         H           -3.180952636752     0.845814262078    -0.462455386707     1.007825032230
         H           -3.180911636752    -0.811336737922    -0.462702386707     1.007825032230
         H           -3.168039636752     0.017025262078     0.976165613293     1.007825032230
         H            0.892661363248     3.377849262078    -0.326449386707     1.007825032230
         H            1.850539363248     2.766817262078     1.030096613293     1.007825032230
         H            2.391014363248     2.484836262078    -0.627844386707     1.007825032230
         H            2.390983363248    -2.450276737922    -0.628101386707     1.007825032230
         H            0.892767363248    -3.343334737922    -0.326155386707     1.007825032230
         H            1.850984363248    -2.732034737922     1.030030613293     1.007825032230

  Basis Set: AUG-CC-PVTZ
    Blend: AUG-CC-PVTZ
  Basis Set: (AUG-CC-PVTZ AUX)
    Blend: AUG-CC-PVTZ-JKFIT
	 Reference Energy          =    -364.2325157602469972 [Eh]
	 Singles Energy            =      -0.0000000000000000 [Eh]
	 Same-Spin Energy          =      -0.3968144206217104 [Eh]
	 Opposite-Spin Energy      =      -1.3068152337509678 [Eh]
	 Correlation Energy        =      -1.7036296543726781 [Eh]
	 Total Energy              =    -365.9361454146196593 [Eh]

	 ================> DF-SCS-MP2 Energies <==================
	-----------------------------------------------------------
	 SCS Same-Spin Scale       =       0.3333333333333333 [-]
	 SCS Opposite-Spin Scale   =       1.2000000000000000 [-]
	 SCS Same-Spin Energy      =      -0.1322714735405701 [Eh]
	 SCS Opposite-Spin Energy  =      -1.5681782805011613 [Eh]
	 SCS Correlation Energy    =      -1.7004497540417314 [Eh]
	 SCS Total Energy          =    -365.9329655142887532 [Eh]
	-----------------------------------------------------------

  Dipole Moment: [D]
     X:    -8.4487      Y:     0.3515      Z:     0.1692     Total:     8.4577

*** Psi4 exiting successfully. Buy a developer a beer!
