                               Psi4 1.4a3.dev225

  ==> Input File <==

--------------------------------------------------------------------------
#psi4
#
memory 32 gb

molecule  {
1 1
  N       -2.8138210    -0.0000810     0.0131690
  C       -1.3233890    -0.0000370    -0.0148680
  C        0.7280520     1.2302730    -0.0129860
  C        0.7281180    -1.2302340    -0.0129780
  C       -0.6725800    -1.2264340    -0.0069900
  C       -0.6726490     1.2263940    -0.0069970
  C        1.3988940     0.0000390    -0.0107890
  C        1.4942690     2.5253230     0.0134310
  C        1.4944180    -2.5252350     0.0134270
  H       -1.2241800    -2.1659650    -0.0138510
  H       -1.2242990     2.1658960    -0.0138630
  H        2.4879510     0.0000680    -0.0240190
  H       -3.1956820     0.8285560    -0.4636260
  H       -3.1956410    -0.8285950    -0.4638730
  H       -3.1827690    -0.0002330     0.9749950
  H        0.8779320     3.3605910    -0.3276200
  H        1.8358100     2.7495590     1.0289260
  H        2.3762850     2.4675780    -0.6290150
  H        2.3533789    -2.4600187    -0.6588520
  H        0.8780380    -3.3605930    -0.3273260
  H        1.8362550    -2.7492930     1.0288600
units angstrom
no_reorient  #important for SAPT in psi4, default
symmetry c1  #important for SAPT in psi4, default
}

set PROPERTIES_ORIGIN ["COM"]
properties('MP2/aug-cc-pvtz', properties = ['dipole'])
--------------------------------------------------------------------------

    Molecular point group: c1
  Charge       = 1
  Multiplicity = 1
  Basis Set: AUG-CC-PVTZ
    Blend: AUG-CC-PVTZ
  Basis Set: (AUG-CC-PVTZ AUX)
    Blend: AUG-CC-PVTZ-JKFIT

    Orbital Energies [Eh]
    ---------------------

    Doubly Occupied:

       1A    -15.888665     2A    -11.458834     3A    -11.394813
       4A    -11.394597     5A    -11.393489     6A    -11.393328
       7A    -11.371503     8A    -11.345021     9A    -11.344967
      10A     -1.502510    11A     -1.309214    12A     -1.204874
      13A     -1.182074    14A     -1.083093    15A     -1.070390
      16A     -0.988780    17A     -0.965918    18A     -0.949629
      19A     -0.907706    20A     -0.855766    21A     -0.820388
      22A     -0.794675    23A     -0.724029    24A     -0.715107
      25A     -0.711977    26A     -0.692029    27A     -0.678657
      28A     -0.655280    29A     -0.640130    30A     -0.635146
      31A     -0.628547    32A     -0.486488    33A     -0.475087

  @DF-RHF Final Energy:  -364.29422933206570

   => Energetics <=

    Nuclear Repulsion Energy =            432.3656651978300829
    One-Electron Energy =               -1337.9943685210221247
    Two-Electron Energy =                 541.3344739911262877
    Total Energy =                       -364.2942293320656972
  Basis Set: (AUG-CC-PVTZ AUX)
    Blend: AUG-CC-PVTZ-RI
    Molecular point group: c1

    Geometry (in Angstrom), charge = 1, multiplicity = 1:

       Center              X                  Y                   Z               Mass
    ------------   -----------------  -----------------  -----------------  -----------------
         N           -2.808312319796    -0.000142779847     0.014553072017    14.003074004430
         C           -1.317880319796    -0.000098779847    -0.013483927983    12.000000000000
         C            0.733560680204     1.230211220153    -0.011601927983    12.000000000000
         C            0.733626680204    -1.230295779847    -0.011593927983    12.000000000000
         C           -0.667071319796    -1.226495779847    -0.005605927983    12.000000000000
         C           -0.667140319796     1.226332220153    -0.005612927983    12.000000000000
         C            1.404402680204    -0.000022779847    -0.009404927983    12.000000000000
         C            1.499777680204     2.525261220153     0.014815072017    12.000000000000
         C            1.499926680204    -2.525296779847     0.014811072017    12.000000000000
         H           -1.218671319796    -2.166026779847    -0.012466927983     1.007825032230
         H           -1.218790319796     2.165834220153    -0.012478927983     1.007825032230
         H            2.493459680204     0.000006220153    -0.022634927983     1.007825032230
         H           -3.190173319796     0.828494220153    -0.462241927983     1.007825032230
         H           -3.190132319796    -0.828656779847    -0.462488927983     1.007825032230
         H           -3.177260319796    -0.000294779847     0.976379072017     1.007825032230
         H            0.883440680204     3.360529220153    -0.326235927983     1.007825032230
         H            1.841318680204     2.749497220153     1.030310072017     1.007825032230
         H            2.381793680204     2.467516220153    -0.627630927983     1.007825032230
         H            2.358887580204    -2.460080479847    -0.657467927983     1.007825032230
         H            0.883546680204    -3.360654779847    -0.325941927983     1.007825032230
         H            1.841763680204    -2.749354779847     1.030244072017     1.007825032230

  Basis Set: AUG-CC-PVTZ
    Blend: AUG-CC-PVTZ
  Basis Set: (AUG-CC-PVTZ AUX)
    Blend: AUG-CC-PVTZ-JKFIT
	 Reference Energy          =    -364.2942293320656972 [Eh]
	 Singles Energy            =      -0.0000000000000000 [Eh]
	 Same-Spin Energy          =      -0.3971632277429650 [Eh]
	 Opposite-Spin Energy      =      -1.3053451749267235 [Eh]
	 Correlation Energy        =      -1.7025084026696886 [Eh]
	 Total Energy              =    -365.9967377347354045 [Eh]

	 ================> DF-SCS-MP2 Energies <==================
	-----------------------------------------------------------
	 SCS Same-Spin Scale       =       0.3333333333333333 [-]
	 SCS Opposite-Spin Scale   =       1.2000000000000000 [-]
	 SCS Same-Spin Energy      =      -0.1323877425809883 [Eh]
	 SCS Opposite-Spin Energy  =      -1.5664142099120681 [Eh]
	 SCS Correlation Energy    =      -1.6988019524930564 [Eh]
	 SCS Total Energy          =    -365.9930312845587537 [Eh]
	-----------------------------------------------------------

  Dipole Moment: [D]
     X:    -8.3766      Y:    -0.0000      Z:     0.1612     Total:     8.3782

*** Psi4 exiting successfully. Buy a developer a beer!
