                               Psi4 1.4a3.dev225

  ==> Input File <==

--------------------------------------------------------------------------
#psi4
#
memory 32 gb

molecule  {
1 1
  N       -2.8138210    -0.0000810     0.0131690
  C       -1.3233890    -0.0000370    -0.0148680
  C        0.7280520     1.2302730    -0.0129860
  C        0.7281180    -1.2302340    -0.0129780
  C       -0.6725800    -1.2264340    -0.0069900
  C       -0.6726490     1.2263940    -0.0069970
  C        1.3749592    -0.0438600    -0.0108671
  C        1.4942690     2.5253230     0.0134310
  C        1.4944180    -2.5252350     0.0134270
  H       -1.2241800    -2.1659650    -0.0138510
  H       -1.2242990     2.1658960    -0.0138630
  H        2.4879510     0.0000680    -0.0240190
  H       -3.1956820     0.8285560    -0.4636260
  H       -3.1956410    -0.8285950    -0.4638730
  H       -3.1827690    -0.0002330     0.9749950
  H        0.8779320     3.3605910    -0.3276200
  H        1.8358100     2.7495590     1.0289260
  H        2.3762850     2.4675780    -0.6290150
  H        2.3762540    -2.4675350    -0.6292720
  H        0.8780380    -3.3605930    -0.3273260
  H        1.8362550    -2.7492930     1.0288600
units angstrom
no_reorient  #important for SAPT in psi4, default
symmetry c1  #important for SAPT in psi4, default
}

set PROPERTIES_ORIGIN ["COM"]
properties('MP2/aug-cc-pvtz', properties = ['dipole'])
--------------------------------------------------------------------------

    Molecular point group: c1
  Charge       = 1
  Multiplicity = 1
  Basis Set: AUG-CC-PVTZ
    Blend: AUG-CC-PVTZ
  Basis Set: (AUG-CC-PVTZ AUX)
    Blend: AUG-CC-PVTZ-JKFIT

    Orbital Energies [Eh]
    ---------------------

    Doubly Occupied:

       1A    -15.888622     2A    -11.458548     3A    -11.398726
       4A    -11.395319     5A    -11.392500     6A    -11.387171
       7A    -11.370653     8A    -11.347023     9A    -11.343826
      10A     -1.502446    11A     -1.311683    12A     -1.206498
      13A     -1.181992    14A     -1.083404    15A     -1.071426
      16A     -0.987668    17A     -0.966822    18A     -0.949574
      19A     -0.909907    20A     -0.856055    21A     -0.816639
      22A     -0.795980    23A     -0.723988    24A     -0.715750
      25A     -0.711639    26A     -0.690667    27A     -0.676601
      28A     -0.656934    29A     -0.641588    30A     -0.635400
      31A     -0.625981    32A     -0.490467    33A     -0.473831

  @DF-RHF Final Energy:  -364.29129363323466

   => Energetics <=

    Nuclear Repulsion Energy =            432.7507289576334983
    One-Electron Energy =               -1338.7533937759947094
    Two-Electron Energy =                 541.7113711851264952
    Total Energy =                       -364.2912936332346590
  Basis Set: (AUG-CC-PVTZ AUX)
    Blend: AUG-CC-PVTZ-RI
    Molecular point group: c1

    Geometry (in Angstrom), charge = 1, multiplicity = 1:

       Center              X                  Y                   Z               Mass
    ------------   -----------------  -----------------  -----------------  -----------------
         N           -2.806148764942     0.004233766894     0.014316585695    14.003074004430
         C           -1.315716764942     0.004277766894    -0.013720414305    12.000000000000
         C            0.735724235058     1.234587766894    -0.011838414305    12.000000000000
         C            0.735790235058    -1.225919233106    -0.011830414305    12.000000000000
         C           -0.664907764942    -1.222119233106    -0.005842414305    12.000000000000
         C           -0.664976764942     1.230708766894    -0.005849414305    12.000000000000
         C            1.382631435058    -0.039545233106    -0.009719514305    12.000000000000
         C            1.501941235058     2.529637766894     0.014578585695    12.000000000000
         C            1.502090235058    -2.520920233106     0.014574585695    12.000000000000
         H           -1.216507764942    -2.161650233106    -0.012703414305     1.007825032230
         H           -1.216626764942     2.170210766894    -0.012715414305     1.007825032230
         H            2.495623235058     0.004382766894    -0.022871414305     1.007825032230
         H           -3.188009764942     0.832870766894    -0.462478414305     1.007825032230
         H           -3.187968764942    -0.824280233106    -0.462725414305     1.007825032230
         H           -3.175096764942     0.004081766894     0.976142585695     1.007825032230
         H            0.885604235058     3.364905766894    -0.326472414305     1.007825032230
         H            1.843482235058     2.753873766894     1.030073585695     1.007825032230
         H            2.383957235058     2.471892766894    -0.627867414305     1.007825032230
         H            2.383926235058    -2.463220233106    -0.628124414305     1.007825032230
         H            0.885710235058    -3.356278233106    -0.326178414305     1.007825032230
         H            1.843927235058    -2.744978233106     1.030007585695     1.007825032230

  Basis Set: AUG-CC-PVTZ
    Blend: AUG-CC-PVTZ
  Basis Set: (AUG-CC-PVTZ AUX)
    Blend: AUG-CC-PVTZ-JKFIT
	 Reference Energy          =    -364.2912936332346590 [Eh]
	 Singles Energy            =      -0.0000000000000000 [Eh]
	 Same-Spin Energy          =      -0.3971688146811950 [Eh]
	 Opposite-Spin Energy      =      -1.3053836381872841 [Eh]
	 Correlation Energy        =      -1.7025524528684790 [Eh]
	 Total Energy              =    -365.9938460861031331 [Eh]

	 ================> DF-SCS-MP2 Energies <==================
	-----------------------------------------------------------
	 SCS Same-Spin Scale       =       0.3333333333333333 [-]
	 SCS Opposite-Spin Scale   =       1.2000000000000000 [-]
	 SCS Same-Spin Energy      =      -0.1323896048937317 [Eh]
	 SCS Opposite-Spin Energy  =      -1.5664603658247409 [Eh]
	 SCS Correlation Energy    =      -1.6988499707184725 [Eh]
	 SCS Total Energy          =    -365.9901436039531291 [Eh]
	-----------------------------------------------------------

  Dipole Moment: [D]
     X:    -8.3718      Y:     0.0880      Z:     0.1701     Total:     8.3740

*** Psi4 exiting successfully. Buy a developer a beer!
