                               Psi4 1.4a3.dev225

  ==> Input File <==

--------------------------------------------------------------------------
#psi4
#
memory 32 gb

molecule  {
1 1
  N       -2.8138210    -0.0000810     0.0131690
  C       -1.3233890    -0.0000370    -0.0148680
  C        0.7280520     1.2302730    -0.0129860
  C        0.7281180    -1.2302340    -0.0129780
  C       -0.6725800    -1.2264340    -0.0069900
  C       -0.6726490     1.2263940    -0.0069970
  C        1.3988940     0.0000390    -0.0107890
  C        1.4942690     2.5253230     0.0134310
  C        1.4944180    -2.5252350     0.0134270
  H       -1.2241800    -2.1659650    -0.0138510
  H       -1.2242990     2.1658960    -0.0138630
  H        2.4879510     0.0000680    -0.0240190
  H       -3.1956820     0.8285560    -0.4636260
  H       -3.1956410    -0.8285950    -0.4638730
  H       -3.1827690    -0.0002330     0.9749950
  H        0.8647684     3.3030499    -0.4255788
  H        1.8358100     2.7495590     1.0289260
  H        2.3762850     2.4675780    -0.6290150
  H        2.3762540    -2.4675350    -0.6292720
  H        0.8780380    -3.3605930    -0.3273260
  H        1.8362550    -2.7492930     1.0288600
units angstrom
no_reorient  #important for SAPT in psi4, default
symmetry c1  #important for SAPT in psi4, default
}

set PROPERTIES_ORIGIN ["COM"]
properties('MP2/aug-cc-pvtz', properties = ['dipole'])
--------------------------------------------------------------------------

    Molecular point group: c1
  Charge       = 1
  Multiplicity = 1
  Basis Set: AUG-CC-PVTZ
    Blend: AUG-CC-PVTZ
  Basis Set: (AUG-CC-PVTZ AUX)
    Blend: AUG-CC-PVTZ-JKFIT

    Orbital Energies [Eh]
    ---------------------

    Doubly Occupied:

       1A    -15.888707     2A    -11.458907     3A    -11.394665
       4A    -11.394322     5A    -11.393406     6A    -11.393117
       7A    -11.371134     8A    -11.345178     9A    -11.344883
      10A     -1.502545    11A     -1.309180    12A     -1.205069
      13A     -1.182034    14A     -1.083139    15A     -1.070455
      16A     -0.988780    17A     -0.965757    18A     -0.949662
      19A     -0.907309    20A     -0.855769    21A     -0.820375
      22A     -0.794951    23A     -0.723537    24A     -0.714619
      25A     -0.713268    26A     -0.694135    27A     -0.676112
      28A     -0.657069    29A     -0.641283    30A     -0.635713
      31A     -0.624548    32A     -0.486457    33A     -0.475181

  @DF-RHF Final Energy:  -364.29309773198577

   => Energetics <=

    Nuclear Repulsion Energy =            432.4335988093475862
    One-Electron Energy =               -1338.1308580011575486
    Two-Electron Energy =                 541.4041614598241949
    Total Energy =                       -364.2930977319857675
  Basis Set: (AUG-CC-PVTZ AUX)
    Blend: AUG-CC-PVTZ-RI
    Molecular point group: c1

    Geometry (in Angstrom), charge = 1, multiplicity = 1:

       Center              X                  Y                   Z               Mass
    ------------   -----------------  -----------------  -----------------  -----------------
         N           -2.808392481429     0.000394223438     0.015117491133    14.003074004430
         C           -1.317960481429     0.000438223438    -0.012919508867    12.000000000000
         C            0.733480518571     1.230748223438    -0.011037508867    12.000000000000
         C            0.733546518571    -1.229758776562    -0.011029508867    12.000000000000
         C           -0.667151481429    -1.225958776562    -0.005041508867    12.000000000000
         C           -0.667220481429     1.226869223438    -0.005048508867    12.000000000000
         C            1.404322518571     0.000514223438    -0.008840508867    12.000000000000
         C            1.499697518571     2.525798223438     0.015379491133    12.000000000000
         C            1.499846518571    -2.524759776562     0.015375491133    12.000000000000
         H           -1.218751481429    -2.165489776562    -0.011902508867     1.007825032230
         H           -1.218870481429     2.166371223438    -0.011914508867     1.007825032230
         H            2.493379518571     0.000543223438    -0.022070508867     1.007825032230
         H           -3.190253481429     0.829031223438    -0.461677508867     1.007825032230
         H           -3.190212481429    -0.828119776562    -0.461924508867     1.007825032230
         H           -3.177340481429     0.000242223438     0.976943491133     1.007825032230
         H            0.870196918571     3.303525123438    -0.423630308867     1.007825032230
         H            1.841238518571     2.750034223438     1.030874491133     1.007825032230
         H            2.381713518571     2.468053223438    -0.627066508867     1.007825032230
         H            2.381682518571    -2.467059776562    -0.627323508867     1.007825032230
         H            0.883466518571    -3.360117776562    -0.325377508867     1.007825032230
         H            1.841683518571    -2.748817776562     1.030808491133     1.007825032230

  Basis Set: AUG-CC-PVTZ
    Blend: AUG-CC-PVTZ
  Basis Set: (AUG-CC-PVTZ AUX)
    Blend: AUG-CC-PVTZ-JKFIT
	 Reference Energy          =    -364.2930977319857675 [Eh]
	 Singles Energy            =      -0.0000000000000000 [Eh]
	 Same-Spin Energy          =      -0.3972239728956297 [Eh]
	 Opposite-Spin Energy      =      -1.3054510623770148 [Eh]
	 Correlation Energy        =      -1.7026750352726445 [Eh]
	 Total Energy              =    -365.9957727672584156 [Eh]

	 ================> DF-SCS-MP2 Energies <==================
	-----------------------------------------------------------
	 SCS Same-Spin Scale       =       0.3333333333333333 [-]
	 SCS Opposite-Spin Scale   =       1.2000000000000000 [-]
	 SCS Same-Spin Energy      =      -0.1324079909652099 [Eh]
	 SCS Opposite-Spin Energy  =      -1.5665412748524177 [Eh]
	 SCS Correlation Energy    =      -1.6989492658176275 [Eh]
	 SCS Total Energy          =    -365.9920469978034134 [Eh]
	-----------------------------------------------------------

  Dipole Moment: [D]
     X:    -8.3561      Y:    -0.0242      Z:     0.1420     Total:     8.3573

*** Psi4 exiting successfully. Buy a developer a beer!
