                               Psi4 1.4a3.dev225

  ==> Input File <==

--------------------------------------------------------------------------
#psi4
#
memory 32 gb

molecule  {
1 1
  N       -2.8138210    -0.0000810     0.0131690
  C       -1.3233890    -0.0000370    -0.0148680
  C        0.7280520     1.2302730    -0.0129860
  C        0.7281180    -1.2302340    -0.0129780
  C       -0.6940811    -1.2376062    -0.0072501
  C       -0.6726490     1.2263940    -0.0069970
  C        1.3988940     0.0000390    -0.0107890
  C        1.4942690     2.5253230     0.0134310
  C        1.4944180    -2.5252350     0.0134270
  H       -1.2241800    -2.1659650    -0.0138510
  H       -1.2242990     2.1658960    -0.0138630
  H        2.4879510     0.0000680    -0.0240190
  H       -3.1956820     0.8285560    -0.4636260
  H       -3.1956410    -0.8285950    -0.4638730
  H       -3.1827690    -0.0002330     0.9749950
  H        0.8779320     3.3605910    -0.3276200
  H        1.8358100     2.7495590     1.0289260
  H        2.3762850     2.4675780    -0.6290150
  H        2.3762540    -2.4675350    -0.6292720
  H        0.8780380    -3.3605930    -0.3273260
  H        1.8362550    -2.7492930     1.0288600
units angstrom
no_reorient  #important for SAPT in psi4, default
symmetry c1  #important for SAPT in psi4, default
}

set PROPERTIES_ORIGIN ["COM"]
properties('MP2/aug-cc-pvtz', properties = ['dipole'])
--------------------------------------------------------------------------

    Molecular point group: c1
  Charge       = 1
  Multiplicity = 1
  Basis Set: AUG-CC-PVTZ
    Blend: AUG-CC-PVTZ
  Basis Set: (AUG-CC-PVTZ AUX)
    Blend: AUG-CC-PVTZ-JKFIT

    Orbital Energies [Eh]
    ---------------------

    Doubly Occupied:

       1A    -15.887663     2A    -11.459698     3A    -11.397502
       4A    -11.395589     5A    -11.394238     6A    -11.393088
       7A    -11.371206     8A    -11.345303     9A    -11.345080
      10A     -1.502137    11A     -1.307345    12A     -1.203616
      13A     -1.182268    14A     -1.084146    15A     -1.070506
      16A     -0.987648    17A     -0.965020    18A     -0.949049
      19A     -0.908225    20A     -0.856455    21A     -0.820956
      22A     -0.793866    23A     -0.727464    24A     -0.716059
      25A     -0.710296    26A     -0.690390    27A     -0.679456
      28A     -0.656925    29A     -0.639467    30A     -0.633942
      31A     -0.629660    32A     -0.487099    33A     -0.473086

  @DF-RHF Final Energy:  -364.29340018793101

   => Energetics <=

    Nuclear Repulsion Energy =            432.0042857622659085
    One-Electron Energy =               -1337.2664762203653481
    Two-Electron Energy =                 540.9687902701683697
    Total Energy =                       -364.2934001879310699
  Basis Set: (AUG-CC-PVTZ AUX)
    Blend: AUG-CC-PVTZ-RI
    Molecular point group: c1

    Geometry (in Angstrom), charge = 1, multiplicity = 1:

       Center              X                  Y                   Z               Mass
    ------------   -----------------  -----------------  -----------------  -----------------
         N           -2.806387955145     0.001017294070     0.014334473116    14.003074004430
         C           -1.315955955145     0.001061294070    -0.013702526884    12.000000000000
         C            0.735485044855     1.231371294070    -0.011820526884    12.000000000000
         C            0.735551044855    -1.229135705930    -0.011812526884    12.000000000000
         C           -0.686648055145    -1.236507905930    -0.006084626884    12.000000000000
         C           -0.665215955145     1.227492294070    -0.005831526884    12.000000000000
         C            1.406327044855     0.001137294070    -0.009623526884    12.000000000000
         C            1.501702044855     2.526421294070     0.014596473116    12.000000000000
         C            1.501851044855    -2.524136705930     0.014592473116    12.000000000000
         H           -1.216746955145    -2.164866705930    -0.012685526884     1.007825032230
         H           -1.216865955145     2.166994294070    -0.012697526884     1.007825032230
         H            2.495384044855     0.001166294070    -0.022853526884     1.007825032230
         H           -3.188248955145     0.829654294070    -0.462460526884     1.007825032230
         H           -3.188207955145    -0.827496705930    -0.462707526884     1.007825032230
         H           -3.175335955145     0.000865294070     0.976160473116     1.007825032230
         H            0.885365044855     3.361689294070    -0.326454526884     1.007825032230
         H            1.843243044855     2.750657294070     1.030091473116     1.007825032230
         H            2.383718044855     2.468676294070    -0.627849526884     1.007825032230
         H            2.383687044855    -2.466436705930    -0.628106526884     1.007825032230
         H            0.885471044855    -3.359494705930    -0.326160526884     1.007825032230
         H            1.843688044855    -2.748194705930     1.030025473116     1.007825032230

  Basis Set: AUG-CC-PVTZ
    Blend: AUG-CC-PVTZ
  Basis Set: (AUG-CC-PVTZ AUX)
    Blend: AUG-CC-PVTZ-JKFIT
	 Reference Energy          =    -364.2934001879310131 [Eh]
	 Singles Energy            =      -0.0000000000000000 [Eh]
	 Same-Spin Energy          =      -0.3971317831826783 [Eh]
	 Opposite-Spin Energy      =      -1.3053894122382839 [Eh]
	 Correlation Energy        =      -1.7025211954209620 [Eh]
	 Total Energy              =    -365.9959213833519698 [Eh]

	 ================> DF-SCS-MP2 Energies <==================
	-----------------------------------------------------------
	 SCS Same-Spin Scale       =       0.3333333333333333 [-]
	 SCS Opposite-Spin Scale   =       1.2000000000000000 [-]
	 SCS Same-Spin Energy      =      -0.1323772610608928 [Eh]
	 SCS Opposite-Spin Energy  =      -1.5664672946859406 [Eh]
	 SCS Correlation Energy    =      -1.6988445557468332 [Eh]
	 SCS Total Energy          =    -365.9922447436778725 [Eh]
	-----------------------------------------------------------

  Dipole Moment: [D]
     X:    -8.3350      Y:     0.0002      Z:     0.1708     Total:     8.3368

*** Psi4 exiting successfully. Buy a developer a beer!
