                               Psi4 1.4a3.dev225

  ==> Input File <==

--------------------------------------------------------------------------
#psi4
#
memory 32 gb

molecule  {
1 1
  N       -2.8138210    -0.0000810     0.0131690
  C       -1.3233890    -0.0000370    -0.0148680
  C        0.7280520     1.2302730    -0.0129860
  C        0.7281180    -1.2302340    -0.0129780
  C       -0.6725800    -1.2264340    -0.0069900
  C       -0.6726490     1.2263940    -0.0069970
  C        1.3893191     0.0175981    -0.0108204
  C        1.4942690     2.5253230     0.0134310
  C        1.4944180    -2.5252350     0.0134270
  H       -1.2241800    -2.1659650    -0.0138510
  H       -1.2242990     2.1658960    -0.0138630
  H        2.4879510     0.0000680    -0.0240190
  H       -3.1956820     0.8285560    -0.4636260
  H       -3.1956410    -0.8285950    -0.4638730
  H       -3.1827690    -0.0002330     0.9749950
  H        0.8779320     3.3605910    -0.3276200
  H        1.8358100     2.7495590     1.0289260
  H        2.3762850     2.4675780    -0.6290150
  H        2.3762540    -2.4675350    -0.6292720
  H        0.8780380    -3.3605930    -0.3273260
  H        1.8362550    -2.7492930     1.0288600
units angstrom
no_reorient  #important for SAPT in psi4, default
symmetry c1  #important for SAPT in psi4, default
}

set PROPERTIES_ORIGIN ["COM"]
properties('MP2/aug-cc-pvtz', properties = ['dipole'])
--------------------------------------------------------------------------

    Molecular point group: c1
  Charge       = 1
  Multiplicity = 1
  Basis Set: AUG-CC-PVTZ
    Blend: AUG-CC-PVTZ
  Basis Set: (AUG-CC-PVTZ AUX)
    Blend: AUG-CC-PVTZ-JKFIT

    Orbital Energies [Eh]
    ---------------------

    Doubly Occupied:

       1A    -15.888666     2A    -11.458747     3A    -11.396276
       4A    -11.394552     5A    -11.393225     6A    -11.391543
       7A    -11.371240     8A    -11.345798     9A    -11.344519
      10A     -1.502499    11A     -1.310138    12A     -1.205340
      13A     -1.182105    14A     -1.083150    15A     -1.070861
      16A     -0.988319    17A     -0.966388    18A     -0.949621
      19A     -0.908696    20A     -0.855995    21A     -0.818918
      22A     -0.795295    23A     -0.724052    24A     -0.715525
      25A     -0.711063    26A     -0.690444    27A     -0.677953
      28A     -0.656895    29A     -0.640230    30A     -0.634888
      31A     -0.629089    32A     -0.487598    33A     -0.474830

  @DF-RHF Final Energy:  -364.29394657377185

   => Energetics <=

    Nuclear Repulsion Energy =            432.4976427708070901
    One-Electron Energy =               -1338.2542709561441825
    Two-Electron Energy =                 541.4626816115652446
    Total Energy =                       -364.2939465737719047
  Basis Set: (AUG-CC-PVTZ AUX)
    Blend: AUG-CC-PVTZ-RI
    Molecular point group: c1

    Geometry (in Angstrom), charge = 1, multiplicity = 1:

       Center              X                  Y                   Z               Mass
    ------------   -----------------  -----------------  -----------------  -----------------
         N           -2.807560092298    -0.001806490890     0.014311995901    14.003074004430
         C           -1.317128092298    -0.001762490890    -0.013725004099    12.000000000000
         C            0.734312907702     1.228547509110    -0.011843004099    12.000000000000
         C            0.734378907702    -1.231959490890    -0.011835004099    12.000000000000
         C           -0.666319092298    -1.228159490890    -0.005847004099    12.000000000000
         C           -0.666388092298     1.224668509110    -0.005854004099    12.000000000000
         C            1.395580007702     0.015872609110    -0.009677404099    12.000000000000
         C            1.500529907702     2.523597509110     0.014573995901    12.000000000000
         C            1.500678907702    -2.526960490890     0.014569995901    12.000000000000
         H           -1.217919092298    -2.167690490890    -0.012708004099     1.007825032230
         H           -1.218038092298     2.164170509110    -0.012720004099     1.007825032230
         H            2.494211907702    -0.001657490890    -0.022876004099     1.007825032230
         H           -3.189421092298     0.826830509110    -0.462483004099     1.007825032230
         H           -3.189380092298    -0.830320490890    -0.462730004099     1.007825032230
         H           -3.176508092298    -0.001958490890     0.976137995901     1.007825032230
         H            0.884192907702     3.358865509110    -0.326477004099     1.007825032230
         H            1.842070907702     2.747833509110     1.030068995901     1.007825032230
         H            2.382545907702     2.465852509110    -0.627872004099     1.007825032230
         H            2.382514907702    -2.469260490890    -0.628129004099     1.007825032230
         H            0.884298907702    -3.362318490890    -0.326183004099     1.007825032230
         H            1.842515907702    -2.751018490890     1.030002995901     1.007825032230

  Basis Set: AUG-CC-PVTZ
    Blend: AUG-CC-PVTZ
  Basis Set: (AUG-CC-PVTZ AUX)
    Blend: AUG-CC-PVTZ-JKFIT
	 Reference Energy          =    -364.2939465737718479 [Eh]
	 Singles Energy            =      -0.0000000000000000 [Eh]
	 Same-Spin Energy          =      -0.3971720560846742 [Eh]
	 Opposite-Spin Energy      =      -1.3053133843808142 [Eh]
	 Correlation Energy        =      -1.7024854404654883 [Eh]
	 Total Energy              =    -365.9964320142373140 [Eh]

	 ================> DF-SCS-MP2 Energies <==================
	-----------------------------------------------------------
	 SCS Same-Spin Scale       =       0.3333333333333333 [-]
	 SCS Opposite-Spin Scale   =       1.2000000000000000 [-]
	 SCS Same-Spin Energy      =      -0.1323906853615581 [Eh]
	 SCS Opposite-Spin Energy  =      -1.5663760612569770 [Eh]
	 SCS Correlation Energy    =      -1.6987667466185350 [Eh]
	 SCS Total Energy          =    -365.9927133203904077 [Eh]
	-----------------------------------------------------------

  Dipole Moment: [D]
     X:    -8.3674      Y:    -0.0351      Z:     0.1701     Total:     8.3692

*** Psi4 exiting successfully. Buy a developer a beer!
