                               Psi4 1.4a3.dev225

  ==> Input File <==

--------------------------------------------------------------------------
#psi4
#
memory 32 gb

molecule  {
1 1
  N       -2.8138210    -0.0000810     0.0131690
  C       -1.3233890    -0.0000370    -0.0148680
  C        0.7280520     1.2302730    -0.0129860
  C        0.7281180    -1.2302340    -0.0129780
  C       -0.6725800    -1.2264340    -0.0069900
  C       -0.6726490     1.2263940    -0.0069970
  C        1.3988940     0.0000390    -0.0107890
  C        1.4942690     2.5253230     0.0134310
  C        1.4944180    -2.5252350     0.0134270
  H       -1.2241800    -2.1659650    -0.0138510
  H       -1.2242990     2.1658960    -0.0138630
  H        2.4879510     0.0000680    -0.0240190
  H       -3.1956820     0.8285560    -0.4636260
  H       -3.1956410    -0.8285950    -0.4638730
  H       -3.1827690    -0.0002330     0.9749950
  H        0.8779320     3.3605910    -0.3276200
  H        1.8358100     2.7495590     1.0289260
  H        2.3762850     2.4675780    -0.6290150
  H        2.4187544    -2.4827692    -0.5678000
  H        0.8780380    -3.3605930    -0.3273260
  H        1.8362550    -2.7492930     1.0288600
units angstrom
no_reorient  #important for SAPT in psi4, default
symmetry c1  #important for SAPT in psi4, default
}

set PROPERTIES_ORIGIN ["COM"]
properties('MP2/aug-cc-pvtz', properties = ['dipole'])
--------------------------------------------------------------------------

    Molecular point group: c1
  Charge       = 1
  Multiplicity = 1
  Basis Set: AUG-CC-PVTZ
    Blend: AUG-CC-PVTZ
  Basis Set: (AUG-CC-PVTZ AUX)
    Blend: AUG-CC-PVTZ-JKFIT

    Orbital Energies [Eh]
    ---------------------

    Doubly Occupied:

       1A    -15.888791     2A    -11.459074     3A    -11.395335
       4A    -11.394850     5A    -11.393831     6A    -11.393519
       7A    -11.371597     8A    -11.344993     9A    -11.344928
      10A     -1.502626    11A     -1.309319    12A     -1.204834
      13A     -1.182051    14A     -1.083148    15A     -1.070430
      16A     -0.989038    17A     -0.966302    18A     -0.949735
      19A     -0.908027    20A     -0.856372    21A     -0.820643
      22A     -0.795236    23A     -0.724305    24A     -0.716033
      25A     -0.708935    26A     -0.686978    27A     -0.679714
      28A     -0.660036    29A     -0.642524    30A     -0.633311
      31A     -0.628280    32A     -0.486272    33A     -0.474786

  @DF-RHF Final Energy:  -364.29384965545592

   => Energetics <=

    Nuclear Repulsion Energy =            432.2851460786352504
    One-Electron Energy =               -1337.8262845409674355
    Two-Electron Energy =                 541.2472888068762131
    Total Energy =                       -364.2938496554559151
  Basis Set: (AUG-CC-PVTZ AUX)
    Blend: AUG-CC-PVTZ-RI
    Molecular point group: c1

    Geometry (in Angstrom), charge = 1, multiplicity = 1:

       Center              X                  Y                   Z               Mass
    ------------   -----------------  -----------------  -----------------  -----------------
         N           -2.808851948774     0.000045009601     0.013801501511    14.003074004430
         C           -1.318419948774     0.000089009601    -0.014235498489    12.000000000000
         C            0.733021051226     1.230399009601    -0.012353498489    12.000000000000
         C            0.733087051226    -1.230107990399    -0.012345498489    12.000000000000
         C           -0.667610948774    -1.226307990399    -0.006357498489    12.000000000000
         C           -0.667679948774     1.226520009601    -0.006364498489    12.000000000000
         C            1.403863051226     0.000165009601    -0.010156498489    12.000000000000
         C            1.499238051226     2.525449009601     0.014063501511    12.000000000000
         C            1.499387051226    -2.525108990399     0.014059501511    12.000000000000
         H           -1.219210948774    -2.165838990399    -0.013218498489     1.007825032230
         H           -1.219329948774     2.166022009601    -0.013230498489     1.007825032230
         H            2.492920051226     0.000194009601    -0.023386498489     1.007825032230
         H           -3.190712948774     0.828682009601    -0.462993498489     1.007825032230
         H           -3.190671948774    -0.828468990399    -0.463240498489     1.007825032230
         H           -3.177799948774    -0.000106990399     0.975627501511     1.007825032230
         H            0.882901051226     3.360717009601    -0.326987498489     1.007825032230
         H            1.840779051226     2.749685009601     1.029558501511     1.007825032230
         H            2.381254051226     2.467704009601    -0.628382498489     1.007825032230
         H            2.423723451226    -2.482643190399    -0.567167498489     1.007825032230
         H            0.883007051226    -3.360466990399    -0.326693498489     1.007825032230
         H            1.841224051226    -2.749166990399     1.029492501511     1.007825032230

  Basis Set: AUG-CC-PVTZ
    Blend: AUG-CC-PVTZ
  Basis Set: (AUG-CC-PVTZ AUX)
    Blend: AUG-CC-PVTZ-JKFIT
	 Reference Energy          =    -364.2938496554559151 [Eh]
	 Singles Energy            =      -0.0000000000000000 [Eh]
	 Same-Spin Energy          =      -0.3971837408698182 [Eh]
	 Opposite-Spin Energy      =      -1.3052933074949400 [Eh]
	 Correlation Energy        =      -1.7024770483647582 [Eh]
	 Total Energy              =    -365.9963267038206709 [Eh]

	 ================> DF-SCS-MP2 Energies <==================
	-----------------------------------------------------------
	 SCS Same-Spin Scale       =       0.3333333333333333 [-]
	 SCS Opposite-Spin Scale   =       1.2000000000000000 [-]
	 SCS Same-Spin Energy      =      -0.1323945802899394 [Eh]
	 SCS Opposite-Spin Energy  =      -1.5663519689939280 [Eh]
	 SCS Correlation Energy    =      -1.6987465492838674 [Eh]
	 SCS Total Energy          =    -365.9925962047397547 [Eh]
	-----------------------------------------------------------

  Dipole Moment: [D]
     X:    -8.3452      Y:    -0.0027      Z:     0.1905     Total:     8.3473

*** Psi4 exiting successfully. Buy a developer a beer!
