                               Psi4 1.4a3.dev225

  ==> Input File <==

--------------------------------------------------------------------------
#psi4
#
memory 32 gb

molecule  {
1 1
  N       -2.8138210    -0.0000810     0.0131690
  C       -1.3233890    -0.0000370    -0.0148680
  C        0.7280520     1.2302730    -0.0129860
  C        0.7281180    -1.2302340    -0.0129780
  C       -0.6725800    -1.2264340    -0.0069900
  C       -0.6726490     1.2263940    -0.0069970
  C        1.3988940     0.0000390    -0.0107890
  C        1.4942690     2.5253230     0.0134310
  C        1.4944180    -2.5252350     0.0134270
  H       -1.2241800    -2.1659650    -0.0138510
  H       -1.2242990     2.1658960    -0.0138630
  H        2.4879510     0.0000680    -0.0240190
  H       -3.1956820     0.8285560    -0.4636260
  H       -3.1956410    -0.8285950    -0.4638730
  H       -3.1827690    -0.0002330     0.9749950
  H        0.8779320     3.3605910    -0.3276200
  H        1.8358100     2.7495590     1.0289260
  H        2.4570029     2.4622935    -0.6878086
  H        2.3762540    -2.4675350    -0.6292720
  H        0.8780380    -3.3605930    -0.3273260
  H        1.8362550    -2.7492930     1.0288600
units angstrom
no_reorient  #important for SAPT in psi4, default
symmetry c1  #important for SAPT in psi4, default
}

set PROPERTIES_ORIGIN ["COM"]
properties('MP2/aug-cc-pvtz', properties = ['dipole'])
--------------------------------------------------------------------------

    Molecular point group: c1
  Charge       = 1
  Multiplicity = 1
  Basis Set: AUG-CC-PVTZ
    Blend: AUG-CC-PVTZ
  Basis Set: (AUG-CC-PVTZ AUX)
    Blend: AUG-CC-PVTZ-JKFIT

    Orbital Energies [Eh]
    ---------------------

    Doubly Occupied:

       1A    -15.888914     2A    -11.459167     3A    -11.395481
       4A    -11.394952     5A    -11.394074     6A    -11.393703
       7A    -11.371639     8A    -11.356004     9A    -11.345036
      10A     -1.502750    11A     -1.309424    12A     -1.204504
      13A     -1.181664    14A     -1.081369    15A     -1.067091
      16A     -0.988456    17A     -0.964946    18A     -0.949859
      19A     -0.907433    20A     -0.855298    21A     -0.820439
      22A     -0.794197    23A     -0.724425    24A     -0.715521
      25A     -0.709342    26A     -0.688442    27A     -0.675555
      28A     -0.651264    29A     -0.637966    30A     -0.631633
      31A     -0.627975    32A     -0.486212    33A     -0.475041

  @DF-RHF Final Energy:  -364.28770375909880

   => Energetics <=

    Nuclear Repulsion Energy =            431.9326030056042782
    One-Electron Energy =               -1337.1410629284866900
    Two-Electron Energy =                 540.9207561637836079
    Total Energy =                       -364.2877037590988039
  Basis Set: (AUG-CC-PVTZ AUX)
    Blend: AUG-CC-PVTZ-RI
    Molecular point group: c1

    Geometry (in Angstrom), charge = 1, multiplicity = 1:

       Center              X                  Y                   Z               Mass
    ------------   -----------------  -----------------  -----------------  -----------------
         N           -2.809167407476    -0.000037118206     0.014794209830    14.003074004430
         C           -1.318735407476     0.000006881794    -0.013242790170    12.000000000000
         C            0.732705592524     1.230316881794    -0.011360790170    12.000000000000
         C            0.732771592524    -1.230190118206    -0.011352790170    12.000000000000
         C           -0.667926407476    -1.226390118206    -0.005364790170    12.000000000000
         C           -0.667995407476     1.226437881794    -0.005371790170    12.000000000000
         C            1.403547592524     0.000082881794    -0.009163790170    12.000000000000
         C            1.498922592524     2.525366881794     0.015056209830    12.000000000000
         C            1.499071592524    -2.525191118206     0.015052209830    12.000000000000
         H           -1.219526407476    -2.165921118206    -0.012225790170     1.007825032230
         H           -1.219645407476     2.165939881794    -0.012237790170     1.007825032230
         H            2.492604592524     0.000111881794    -0.022393790170     1.007825032230
         H           -3.191028407476     0.828599881794    -0.462000790170     1.007825032230
         H           -3.190987407476    -0.828551118206    -0.462247790170     1.007825032230
         H           -3.178115407476    -0.000189118206     0.976620209830     1.007825032230
         H            0.882585592524     3.360634881794    -0.325994790170     1.007825032230
         H            1.840463592524     2.749602881794     1.030551209830     1.007825032230
         H            2.461656492524     2.462337381794    -0.686183390170     1.007825032230
         H            2.380907592524    -2.467491118206    -0.627646790170     1.007825032230
         H            0.882691592524    -3.360549118206    -0.325700790170     1.007825032230
         H            1.840908592524    -2.749249118206     1.030485209830     1.007825032230

  Basis Set: AUG-CC-PVTZ
    Blend: AUG-CC-PVTZ
  Basis Set: (AUG-CC-PVTZ AUX)
    Blend: AUG-CC-PVTZ-JKFIT
	 Reference Energy          =    -364.2877037590988039 [Eh]
	 Singles Energy            =      -0.0000000000000000 [Eh]
	 Same-Spin Energy          =      -0.3972059231859923 [Eh]
	 Opposite-Spin Energy      =      -1.3060712474847582 [Eh]
	 Correlation Energy        =      -1.7032771706707506 [Eh]
	 Total Energy              =    -365.9909809297695347 [Eh]

	 ================> DF-SCS-MP2 Energies <==================
	-----------------------------------------------------------
	 SCS Same-Spin Scale       =       0.3333333333333333 [-]
	 SCS Opposite-Spin Scale   =       1.2000000000000000 [-]
	 SCS Same-Spin Energy      =      -0.1324019743953308 [Eh]
	 SCS Opposite-Spin Energy  =      -1.5672854969817098 [Eh]
	 SCS Correlation Energy    =      -1.6996874713770407 [Eh]
	 SCS Total Energy          =    -365.9873912304758505 [Eh]
	-----------------------------------------------------------

  Dipole Moment: [D]
     X:    -8.3897      Y:    -0.0094      Z:     0.1814     Total:     8.3917

*** Psi4 exiting successfully. Buy a developer a beer!
