                               Psi4 1.4a3.dev225

  ==> Input File <==

--------------------------------------------------------------------------
#psi4
#
memory 32 gb

molecule  {
1 1
  N       -2.8138210    -0.0000810     0.0131690
  C       -1.3233890    -0.0000370    -0.0148680
  C        0.7280520     1.2302730    -0.0129860
  C        0.7281180    -1.2302340    -0.0129780
  C       -0.6725800    -1.2264340    -0.0069900
  C       -0.6726490     1.2263940    -0.0069970
  C        1.3988940     0.0000390    -0.0107890
  C        1.5451814     2.6113744     0.0151863
  C        1.4944180    -2.5252350     0.0134270
  H       -1.2241800    -2.1659650    -0.0138510
  H       -1.2242990     2.1658960    -0.0138630
  H        2.4879510     0.0000680    -0.0240190
  H       -3.1956820     0.8285560    -0.4636260
  H       -3.1956410    -0.8285950    -0.4638730
  H       -3.1827690    -0.0002330     0.9749950
  H        0.8779320     3.3605910    -0.3276200
  H        1.8358100     2.7495590     1.0289260
  H        2.3762850     2.4675780    -0.6290150
  H        2.3762540    -2.4675350    -0.6292720
  H        0.8780380    -3.3605930    -0.3273260
  H        1.8362550    -2.7492930     1.0288600
units angstrom
no_reorient  #important for SAPT in psi4, default
symmetry c1  #important for SAPT in psi4, default
}

set PROPERTIES_ORIGIN ["COM"]
properties('MP2/aug-cc-pvtz', properties = ['dipole'])
--------------------------------------------------------------------------

    Molecular point group: c1
  Charge       = 1
  Multiplicity = 1
  Basis Set: AUG-CC-PVTZ
    Blend: AUG-CC-PVTZ
  Basis Set: (AUG-CC-PVTZ AUX)
    Blend: AUG-CC-PVTZ-JKFIT

    Orbital Energies [Eh]
    ---------------------

    Doubly Occupied:

       1A    -15.888316     2A    -11.458381     3A    -11.396548
       4A    -11.394396     5A    -11.393547     6A    -11.393121
       7A    -11.371307     8A    -11.344822     9A    -11.344660
      10A     -1.502153    11A     -1.306818    12A     -1.199260
      13A     -1.177966    14A     -1.082076    15A     -1.070685
      16A     -0.988119    17A     -0.967175    18A     -0.949293
      19A     -0.907303    20A     -0.855085    21A     -0.819353
      22A     -0.792721    23A     -0.722543    24A     -0.714448
      25A     -0.705091    26A     -0.696170    27A     -0.689281
      28A     -0.659613    29A     -0.642322    30A     -0.638302
      31A     -0.611274    32A     -0.487235    33A     -0.475814

  @DF-RHF Final Energy:  -364.28737162544223

   => Energetics <=

    Nuclear Repulsion Energy =            430.6996717334212690
    One-Electron Energy =               -1334.6836939717259156
    Two-Electron Energy =                 539.6966506128624133
    Total Energy =                       -364.2873716254422334
  Basis Set: (AUG-CC-PVTZ AUX)
    Blend: AUG-CC-PVTZ-RI
    Molecular point group: c1

    Geometry (in Angstrom), charge = 1, multiplicity = 1:

       Center              X                  Y                   Z               Mass
    ------------   -----------------  -----------------  -----------------  -----------------
         N           -2.813504937399    -0.008538087673     0.014136394498    14.003074004430
         C           -1.323072937399    -0.008494087673    -0.013900605502    12.000000000000
         C            0.728368062601     1.221815912327    -0.012018605502    12.000000000000
         C            0.728434062601    -1.238691087673    -0.012010605502    12.000000000000
         C           -0.672263937399    -1.234891087673    -0.006022605502    12.000000000000
         C           -0.672332937399     1.217936912327    -0.006029605502    12.000000000000
         C            1.399210062601    -0.008418087673    -0.009821605502    12.000000000000
         C            1.545497462601     2.602917312327     0.016153694498    12.000000000000
         C            1.494734062601    -2.533692087673     0.014394394498    12.000000000000
         H           -1.223863937399    -2.174422087673    -0.012883605502     1.007825032230
         H           -1.223982937399     2.157438912327    -0.012895605502     1.007825032230
         H            2.488267062601    -0.008389087673    -0.023051605502     1.007825032230
         H           -3.195365937399     0.820098912327    -0.462658605502     1.007825032230
         H           -3.195324937399    -0.837052087673    -0.462905605502     1.007825032230
         H           -3.182452937399    -0.008690087673     0.975962394498     1.007825032230
         H            0.878248062601     3.352133912327    -0.326652605502     1.007825032230
         H            1.836126062601     2.741101912327     1.029893394498     1.007825032230
         H            2.376601062601     2.459120912327    -0.628047605502     1.007825032230
         H            2.376570062601    -2.475992087673    -0.628304605502     1.007825032230
         H            0.878354062601    -3.369050087673    -0.326358605502     1.007825032230
         H            1.836571062601    -2.757750087673     1.029827394498     1.007825032230

  Basis Set: AUG-CC-PVTZ
    Blend: AUG-CC-PVTZ
  Basis Set: (AUG-CC-PVTZ AUX)
    Blend: AUG-CC-PVTZ-JKFIT
	 Reference Energy          =    -364.2873716254422334 [Eh]
	 Singles Energy            =      -0.0000000000000000 [Eh]
	 Same-Spin Energy          =      -0.3966065205632838 [Eh]
	 Opposite-Spin Energy      =      -1.3051424520283932 [Eh]
	 Correlation Energy        =      -1.7017489725916770 [Eh]
	 Total Energy              =    -365.9891205980339350 [Eh]

	 ================> DF-SCS-MP2 Energies <==================
	-----------------------------------------------------------
	 SCS Same-Spin Scale       =       0.3333333333333333 [-]
	 SCS Opposite-Spin Scale   =       1.2000000000000000 [-]
	 SCS Same-Spin Energy      =      -0.1322021735210946 [Eh]
	 SCS Opposite-Spin Energy  =      -1.5661709424340717 [Eh]
	 SCS Correlation Energy    =      -1.6983731159551663 [Eh]
	 SCS Total Energy          =    -365.9857447413974114 [Eh]
	-----------------------------------------------------------

  Dipole Moment: [D]
     X:    -8.4001      Y:    -0.0508      Z:     0.1641     Total:     8.4019

*** Psi4 exiting successfully. Buy a developer a beer!
