                               Psi4 1.4a3.dev225

  ==> Input File <==

--------------------------------------------------------------------------
#psi4
#
memory 32 gb

molecule  {
1 1
  N       -2.8138210    -0.0000810     0.0131690
  C       -1.3233890    -0.0000370    -0.0148680
  C        0.7280520     1.2302730    -0.0129860
  C        0.7281180    -1.2302340    -0.0129780
  C       -0.4725826    -1.2269766    -0.0078450
  C       -0.6726490     1.2263940    -0.0069970
  C        1.3988940     0.0000390    -0.0107890
  C        1.4942690     2.5253230     0.0134310
  C        1.4944180    -2.5252350     0.0134270
  H       -1.2241800    -2.1659650    -0.0138510
  H       -1.2242990     2.1658960    -0.0138630
  H        2.4879510     0.0000680    -0.0240190
  H       -3.1956820     0.8285560    -0.4636260
  H       -3.1956410    -0.8285950    -0.4638730
  H       -3.1827690    -0.0002330     0.9749950
  H        0.8779320     3.3605910    -0.3276200
  H        1.8358100     2.7495590     1.0289260
  H        2.3762850     2.4675780    -0.6290150
  H        2.3762540    -2.4675350    -0.6292720
  H        0.8780380    -3.3605930    -0.3273260
  H        1.8362550    -2.7492930     1.0288600
units angstrom
no_reorient  #important for SAPT in psi4, default
symmetry c1  #important for SAPT in psi4, default
}

set PROPERTIES_ORIGIN ["COM"]
properties('MP2/aug-cc-pvtz', properties = ['dipole'])
--------------------------------------------------------------------------

    Molecular point group: c1
  Charge       = 1
  Multiplicity = 1
  Basis Set: AUG-CC-PVTZ
    Blend: AUG-CC-PVTZ
  Basis Set: (AUG-CC-PVTZ AUX)
    Blend: AUG-CC-PVTZ-JKFIT

    Orbital Energies [Eh]
    ---------------------

    Doubly Occupied:

       1A    -15.895434     2A    -11.460563     3A    -11.404334
       4A    -11.388946     5A    -11.388291     6A    -11.376622
       7A    -11.361944     8A    -11.343694     9A    -11.342145
      10A     -1.503824    11A     -1.326458    12A     -1.225899
      13A     -1.169406    14A     -1.075793    15A     -1.069118
      16A     -1.004029    17A     -0.968933    18A     -0.952825
      19A     -0.904450    20A     -0.857143    21A     -0.819434
      22A     -0.797634    23A     -0.728140    24A     -0.716662
      25A     -0.694742    26A     -0.690786    27A     -0.678579
      28A     -0.650433    29A     -0.647458    30A     -0.634491
      31A     -0.604975    32A     -0.508410    33A     -0.471193

  @DF-RHF Final Energy:  -364.23264331468170

   => Energetics <=

    Nuclear Repulsion Energy =            434.2682411300502849
    One-Electron Energy =               -1341.6761930174916415
    Two-Electron Energy =                 543.1753085727597181
    Total Energy =                       -364.2326433146816953
  Basis Set: (AUG-CC-PVTZ AUX)
    Blend: AUG-CC-PVTZ-RI
    Molecular point group: c1

    Geometry (in Angstrom), charge = 1, multiplicity = 1:

       Center              X                  Y                   Z               Mass
    ------------   -----------------  -----------------  -----------------  -----------------
         N           -2.828157388935    -0.000027409950     0.014392941395    14.003074004430
         C           -1.337725388935     0.000016590050    -0.013644058605    12.000000000000
         C            0.713715611065     1.230326590050    -0.011762058605    12.000000000000
         C            0.713781611065    -1.230180409950    -0.011754058605    12.000000000000
         C           -0.486918988935    -1.226923009950    -0.006621058605    12.000000000000
         C           -0.686985388935     1.226447590050    -0.005773058605    12.000000000000
         C            1.384557611065     0.000092590050    -0.009565058605    12.000000000000
         C            1.479932611065     2.525376590050     0.014654941395    12.000000000000
         C            1.480081611065    -2.525181409950     0.014650941395    12.000000000000
         H           -1.238516388935    -2.165911409950    -0.012627058605     1.007825032230
         H           -1.238635388935     2.165949590050    -0.012639058605     1.007825032230
         H            2.473614611065     0.000121590050    -0.022795058605     1.007825032230
         H           -3.210018388935     0.828609590050    -0.462402058605     1.007825032230
         H           -3.209977388935    -0.828541409950    -0.462649058605     1.007825032230
         H           -3.197105388935    -0.000179409950     0.976218941395     1.007825032230
         H            0.863595611065     3.360644590050    -0.326396058605     1.007825032230
         H            1.821473611065     2.749612590050     1.030149941395     1.007825032230
         H            2.361948611065     2.467631590050    -0.627791058605     1.007825032230
         H            2.361917611065    -2.467481409950    -0.628048058605     1.007825032230
         H            0.863701611065    -3.360539409950    -0.326102058605     1.007825032230
         H            1.821918611065    -2.749239409950     1.030083941395     1.007825032230

  Basis Set: AUG-CC-PVTZ
    Blend: AUG-CC-PVTZ
  Basis Set: (AUG-CC-PVTZ AUX)
    Blend: AUG-CC-PVTZ-JKFIT
	 Reference Energy          =    -364.2326433146816953 [Eh]
	 Singles Energy            =      -0.0000000000000000 [Eh]
	 Same-Spin Energy          =      -0.3966886870098514 [Eh]
	 Opposite-Spin Energy      =      -1.3070687974252824 [Eh]
	 Correlation Energy        =      -1.7037574844351338 [Eh]
	 Total Energy              =    -365.9364007991168251 [Eh]

	 ================> DF-SCS-MP2 Energies <==================
	-----------------------------------------------------------
	 SCS Same-Spin Scale       =       0.3333333333333333 [-]
	 SCS Opposite-Spin Scale   =       1.2000000000000000 [-]
	 SCS Same-Spin Energy      =      -0.1322295623366171 [Eh]
	 SCS Opposite-Spin Energy  =      -1.5684825569103389 [Eh]
	 SCS Correlation Energy    =      -1.7007121192469561 [Eh]
	 SCS Total Energy          =    -365.9333554339286252 [Eh]
	-----------------------------------------------------------

  Dipole Moment: [D]
     X:    -8.6003      Y:     0.1868      Z:     0.1686     Total:     8.6040

*** Psi4 exiting successfully. Buy a developer a beer!
