                               Psi4 1.4a3.dev225

  ==> Input File <==

--------------------------------------------------------------------------
#psi4
#
memory 32 gb

molecule  {
1 1
  N       -2.8138210    -0.0000810     0.0131690
  C       -1.3233890    -0.0000370    -0.0148680
  C        0.7280520     1.2302730    -0.0129860
  C        0.7281180    -1.2302340    -0.0129780
  C       -0.6725800    -1.2264340    -0.0069900
  C       -0.6726490     1.2263940    -0.0069970
  C        1.3988940     0.0000390    -0.0107890
  C        1.4942690     2.5253230     0.0134310
  C        1.4944180    -2.5252350     0.0134270
  H       -1.1229233    -1.9934962    -0.0125915
  H       -1.2242990     2.1658960    -0.0138630
  H        2.4879510     0.0000680    -0.0240190
  H       -3.1956820     0.8285560    -0.4636260
  H       -3.1956410    -0.8285950    -0.4638730
  H       -3.1827690    -0.0002330     0.9749950
  H        0.8779320     3.3605910    -0.3276200
  H        1.8358100     2.7495590     1.0289260
  H        2.3762850     2.4675780    -0.6290150
  H        2.3762540    -2.4675350    -0.6292720
  H        0.8780380    -3.3605930    -0.3273260
  H        1.8362550    -2.7492930     1.0288600
units angstrom
no_reorient  #important for SAPT in psi4, default
symmetry c1  #important for SAPT in psi4, default
}

set PROPERTIES_ORIGIN ["COM"]
properties('MP2/aug-cc-pvtz', properties = ['dipole'])
--------------------------------------------------------------------------

    Molecular point group: c1
  Charge       = 1
  Multiplicity = 1
  Basis Set: AUG-CC-PVTZ
    Blend: AUG-CC-PVTZ
  Basis Set: (AUG-CC-PVTZ AUX)
    Blend: AUG-CC-PVTZ-JKFIT

    Orbital Energies [Eh]
    ---------------------

    Doubly Occupied:

       1A    -15.889340     2A    -11.457960     3A    -11.394506
       4A    -11.393319     5A    -11.392814     6A    -11.370633
       7A    -11.370394     8A    -11.344981     9A    -11.344762
      10A     -1.503261    11A     -1.310553    12A     -1.210084
      13A     -1.182951    14A     -1.092047    15A     -1.070734
      16A     -0.993318    17A     -0.966504    18A     -0.950311
      19A     -0.918239    20A     -0.871615    21A     -0.830049
      22A     -0.794508    23A     -0.739903    24A     -0.715925
      25A     -0.710400    26A     -0.690242    27A     -0.679967
      28A     -0.657314    29A     -0.640764    30A     -0.634117
      31A     -0.629200    32A     -0.485748    33A     -0.474741

  @DF-RHF Final Energy:  -364.26040657183552

   => Energetics <=

    Nuclear Repulsion Energy =            433.5066063677621173
    One-Electron Energy =               -1340.1116178498702993
    Two-Electron Energy =                 542.3446049102726647
    Total Energy =                       -364.2604065718355741
  Basis Set: (AUG-CC-PVTZ AUX)
    Blend: AUG-CC-PVTZ-RI
    Molecular point group: c1

    Geometry (in Angstrom), charge = 1, multiplicity = 1:

       Center              X                  Y                   Z               Mass
    ------------   -----------------  -----------------  -----------------  -----------------
         N           -2.809336940889    -0.001504347236     0.014298513539    14.003074004430
         C           -1.318904940889    -0.001460347236    -0.013738486461    12.000000000000
         C            0.732536059111     1.228849652764    -0.011856486461    12.000000000000
         C            0.732602059111    -1.231657347236    -0.011848486461    12.000000000000
         C           -0.668095940889    -1.227857347236    -0.005860486461    12.000000000000
         C           -0.668164940889     1.224970652764    -0.005867486461    12.000000000000
         C            1.403378059111    -0.001384347236    -0.009659486461    12.000000000000
         C            1.498753059111     2.523899652764     0.014560513539    12.000000000000
         C            1.498902059111    -2.526658347236     0.014556513539    12.000000000000
         H           -1.118439240889    -1.994919547236    -0.011461986461     1.007825032230
         H           -1.219814940889     2.164472652764    -0.012733486461     1.007825032230
         H            2.492435059111    -0.001355347236    -0.022889486461     1.007825032230
         H           -3.191197940889     0.827132652764    -0.462496486461     1.007825032230
         H           -3.191156940889    -0.830018347236    -0.462743486461     1.007825032230
         H           -3.178284940889    -0.001656347236     0.976124513539     1.007825032230
         H            0.882416059111     3.359167652764    -0.326490486461     1.007825032230
         H            1.840294059111     2.748135652764     1.030055513539     1.007825032230
         H            2.380769059111     2.466154652764    -0.627885486461     1.007825032230
         H            2.380738059111    -2.468958347236    -0.628142486461     1.007825032230
         H            0.882522059111    -3.362016347236    -0.326196486461     1.007825032230
         H            1.840739059111    -2.750716347236     1.029989513539     1.007825032230

  Basis Set: AUG-CC-PVTZ
    Blend: AUG-CC-PVTZ
  Basis Set: (AUG-CC-PVTZ AUX)
    Blend: AUG-CC-PVTZ-JKFIT
	 Reference Energy          =    -364.2604065718355173 [Eh]
	 Singles Energy            =      -0.0000000000000000 [Eh]
	 Same-Spin Energy          =      -0.3968213668638343 [Eh]
	 Opposite-Spin Energy      =      -1.3046313870684267 [Eh]
	 Correlation Energy        =      -1.7014527539322610 [Eh]
	 Total Energy              =    -365.9618593257677617 [Eh]

	 ================> DF-SCS-MP2 Energies <==================
	-----------------------------------------------------------
	 SCS Same-Spin Scale       =       0.3333333333333333 [-]
	 SCS Opposite-Spin Scale   =       1.2000000000000000 [-]
	 SCS Same-Spin Energy      =      -0.1322737889546114 [Eh]
	 SCS Opposite-Spin Energy  =      -1.5655576644821121 [Eh]
	 SCS Correlation Energy    =      -1.6978314534367236 [Eh]
	 SCS Total Energy          =    -365.9582380252722373 [Eh]
	-----------------------------------------------------------

  Dipole Moment: [D]
     X:    -8.4000      Y:     0.0113      Z:     0.1679     Total:     8.4017

*** Psi4 exiting successfully. Buy a developer a beer!
