                               Psi4 1.4a3.dev225

  ==> Input File <==

--------------------------------------------------------------------------
#psi4
#
memory 32 gb

molecule  {
1 1
  N       -2.8138210    -0.0000810     0.0131690
  C       -1.3233890    -0.0000370    -0.0148680
  C        0.7280520     1.2302730    -0.0129860
  C        0.7281180    -1.2302340    -0.0129780
  C       -0.6725800    -1.2264340    -0.0069900
  C       -0.6726490     1.2263940    -0.0069970
  C        1.3988940     0.0000390    -0.0107890
  C        1.4942690     2.5253230     0.0134310
  C        1.4944180    -2.5252350     0.0134270
  H       -1.2241800    -2.1659650    -0.0138510
  H       -1.2242990     2.1658960    -0.0138630
  H        2.4879510     0.0000680    -0.0240190
  H       -3.1956820     0.8285560    -0.4636260
  H       -3.1956410    -0.8285950    -0.4638730
  H       -3.1827690    -0.0002330     0.9749950
  H        0.8779320     3.3605910    -0.3276200
  H        1.8358100     2.7495590     1.0289260
  H        2.3762850     2.4675780    -0.6290150
  H        2.3762540    -2.4675350    -0.6292720
  H        0.8780380    -3.3605930    -0.3273260
  H        1.8674843    -2.7697623     1.1216271
units angstrom
no_reorient  #important for SAPT in psi4, default
symmetry c1  #important for SAPT in psi4, default
}

set PROPERTIES_ORIGIN ["COM"]
properties('MP2/aug-cc-pvtz', properties = ['dipole'])
--------------------------------------------------------------------------

    Molecular point group: c1
  Charge       = 1
  Multiplicity = 1
  Basis Set: AUG-CC-PVTZ
    Blend: AUG-CC-PVTZ
  Basis Set: (AUG-CC-PVTZ AUX)
    Blend: AUG-CC-PVTZ-JKFIT

    Orbital Energies [Eh]
    ---------------------

    Doubly Occupied:

       1A    -15.888845     2A    -11.459097     3A    -11.395361
       4A    -11.394975     5A    -11.393895     6A    -11.393689
       7A    -11.371782     8A    -11.356000     9A    -11.345065
      10A     -1.502686    11A     -1.309390    12A     -1.204394
      13A     -1.181762    14A     -1.081517    15A     -1.066794
      16A     -0.988704    17A     -0.964937    18A     -0.949793
      19A     -0.907134    20A     -0.855439    21A     -0.820630
      22A     -0.795063    23A     -0.724105    24A     -0.715437
      25A     -0.706776    26A     -0.680705    27A     -0.679157
      28A     -0.656357    29A     -0.641366    30A     -0.630391
      31A     -0.627717    32A     -0.485989    33A     -0.474389

  @DF-RHF Final Energy:  -364.28786017511936

   => Energetics <=

    Nuclear Repulsion Energy =            431.9282559353439410
    One-Electron Energy =               -1337.1335503796697139
    Two-Electron Energy =                 540.9174342692064101
    Total Energy =                       -364.2878601751193628
  Basis Set: (AUG-CC-PVTZ AUX)
    Blend: AUG-CC-PVTZ-RI
    Molecular point group: c1

    Geometry (in Angstrom), charge = 1, multiplicity = 1:

       Center              X                  Y                   Z               Mass
    ------------   -----------------  -----------------  -----------------  -----------------
         N           -2.808758913735     0.000088221686     0.013543182373    14.003074004430
         C           -1.318326913735     0.000132221686    -0.014493817627    12.000000000000
         C            0.733114086265     1.230442221686    -0.012611817627    12.000000000000
         C            0.733180086265    -1.230064778314    -0.012603817627    12.000000000000
         C           -0.667517913735    -1.226264778314    -0.006615817627    12.000000000000
         C           -0.667586913735     1.226563221686    -0.006622817627    12.000000000000
         C            1.403956086265     0.000208221686    -0.010414817627    12.000000000000
         C            1.499331086265     2.525492221686     0.013805182373    12.000000000000
         C            1.499480086265    -2.525065778314     0.013801182373    12.000000000000
         H           -1.219117913735    -2.165795778314    -0.013476817627     1.007825032230
         H           -1.219236913735     2.166065221686    -0.013488817627     1.007825032230
         H            2.493013086265     0.000237221686    -0.023644817627     1.007825032230
         H           -3.190619913735     0.828725221686    -0.463251817627     1.007825032230
         H           -3.190578913735    -0.828425778314    -0.463498817627     1.007825032230
         H           -3.177706913735    -0.000063778314     0.975369182373     1.007825032230
         H            0.882994086265     3.360760221686    -0.327245817627     1.007825032230
         H            1.840872086265     2.749728221686     1.029300182373     1.007825032230
         H            2.381347086265     2.467747221686    -0.628640817627     1.007825032230
         H            2.381316086265    -2.467365778314    -0.628897817627     1.007825032230
         H            0.883100086265    -3.360423778314    -0.326951817627     1.007825032230
         H            1.872546386265    -2.769593078314     1.122001282373     1.007825032230

  Basis Set: AUG-CC-PVTZ
    Blend: AUG-CC-PVTZ
  Basis Set: (AUG-CC-PVTZ AUX)
    Blend: AUG-CC-PVTZ-JKFIT
	 Reference Energy          =    -364.2878601751193628 [Eh]
	 Singles Energy            =      -0.0000000000000000 [Eh]
	 Same-Spin Energy          =      -0.3971842148302624 [Eh]
	 Opposite-Spin Energy      =      -1.3060215905194015 [Eh]
	 Correlation Energy        =      -1.7032058053496639 [Eh]
	 Total Energy              =    -365.9910659804690454 [Eh]

	 ================> DF-SCS-MP2 Energies <==================
	-----------------------------------------------------------
	 SCS Same-Spin Scale       =       0.3333333333333333 [-]
	 SCS Opposite-Spin Scale   =       1.2000000000000000 [-]
	 SCS Same-Spin Energy      =      -0.1323947382767541 [Eh]
	 SCS Opposite-Spin Energy  =      -1.5672259086232818 [Eh]
	 SCS Correlation Energy    =      -1.6996206469000359 [Eh]
	 SCS Total Energy          =    -365.9874808220193927 [Eh]
	-----------------------------------------------------------

  Dipole Moment: [D]
     X:    -8.3751      Y:     0.0101      Z:     0.1542     Total:     8.3765

*** Psi4 exiting successfully. Buy a developer a beer!
