                               Psi4 1.4a3.dev225

  ==> Input File <==

--------------------------------------------------------------------------
#psi4
#
memory 32 gb

molecule  {
1 1
  N       -2.8138210    -0.0000810     0.0131690
  C       -1.3233890    -0.0000370    -0.0148680
  C        0.7280520     1.2302730    -0.0129860
  C        0.7281180    -1.2302340    -0.0129780
  C       -0.6725800    -1.2264340    -0.0069900
  C       -0.6726490     1.2263940    -0.0069970
  C        1.3988940     0.0000390    -0.0107890
  C        1.4688128     2.4822973     0.0125533
  C        1.4944180    -2.5252350     0.0134270
  H       -1.2241800    -2.1659650    -0.0138510
  H       -1.2242990     2.1658960    -0.0138630
  H        2.4879510     0.0000680    -0.0240190
  H       -3.1956820     0.8285560    -0.4636260
  H       -3.1956410    -0.8285950    -0.4638730
  H       -3.1827690    -0.0002330     0.9749950
  H        0.8779320     3.3605910    -0.3276200
  H        1.8358100     2.7495590     1.0289260
  H        2.3762850     2.4675780    -0.6290150
  H        2.3762540    -2.4675350    -0.6292720
  H        0.8780380    -3.3605930    -0.3273260
  H        1.8362550    -2.7492930     1.0288600
units angstrom
no_reorient  #important for SAPT in psi4, default
symmetry c1  #important for SAPT in psi4, default
}

set PROPERTIES_ORIGIN ["COM"]
properties('MP2/aug-cc-pvtz', properties = ['dipole'])
--------------------------------------------------------------------------

    Molecular point group: c1
  Charge       = 1
  Multiplicity = 1
  Basis Set: AUG-CC-PVTZ
    Blend: AUG-CC-PVTZ
  Basis Set: (AUG-CC-PVTZ AUX)
    Blend: AUG-CC-PVTZ-JKFIT

    Orbital Energies [Eh]
    ---------------------

    Doubly Occupied:

       1A    -15.888817     2A    -11.459075     3A    -11.394922
       4A    -11.394102     5A    -11.393560     6A    -11.392457
       7A    -11.371538     8A    -11.346301     9A    -11.345057
      10A     -1.502660    11A     -1.310756    12A     -1.208987
      13A     -1.183787    14A     -1.083832    15A     -1.070548
      16A     -0.989196    17A     -0.965156    18A     -0.949768
      19A     -0.907837    20A     -0.856331    21A     -0.821046
      22A     -0.796049    23A     -0.727592    24A     -0.720211
      25A     -0.710187    26A     -0.687442    27A     -0.677814
      28A     -0.654604    29A     -0.642437    30A     -0.631852
      31A     -0.628057    32A     -0.485812    33A     -0.473927

  @DF-RHF Final Energy:  -364.29100683007869

   => Energetics <=

    Nuclear Repulsion Energy =            433.1991138032791469
    One-Electron Energy =               -1339.6368086279996987
    Two-Electron Energy =                 542.1466879946418658
    Total Energy =                       -364.2910068300786861
  Basis Set: (AUG-CC-PVTZ AUX)
    Blend: AUG-CC-PVTZ-RI
    Molecular point group: c1

    Geometry (in Angstrom), charge = 1, multiplicity = 1:

       Center              X                  Y                   Z               Mass
    ------------   -----------------  -----------------  -----------------  -----------------
         N           -2.805999237896     0.004147936757     0.014395172409    14.003074004430
         C           -1.315567237896     0.004191936757    -0.013641827591    12.000000000000
         C            0.735873762104     1.234501936757    -0.011759827591    12.000000000000
         C            0.735939762104    -1.226005063243    -0.011751827591    12.000000000000
         C           -0.664758237896    -1.222205063243    -0.005763827591    12.000000000000
         C           -0.664827237896     1.230622936757    -0.005770827591    12.000000000000
         C            1.406715762104     0.004267936757    -0.009562827591    12.000000000000
         C            1.476634562104     2.486526236757     0.013779472409    12.000000000000
         C            1.502239762104    -2.521006063243     0.014653172409    12.000000000000
         H           -1.216358237896    -2.161736063243    -0.012624827591     1.007825032230
         H           -1.216477237896     2.170124936757    -0.012636827591     1.007825032230
         H            2.495772762104     0.004296936757    -0.022792827591     1.007825032230
         H           -3.187860237896     0.832784936757    -0.462399827591     1.007825032230
         H           -3.187819237896    -0.824366063243    -0.462646827591     1.007825032230
         H           -3.174947237896     0.003995936757     0.976221172409     1.007825032230
         H            0.885753762104     3.364819936757    -0.326393827591     1.007825032230
         H            1.843631762104     2.753787936757     1.030152172409     1.007825032230
         H            2.384106762104     2.471806936757    -0.627788827591     1.007825032230
         H            2.384075762104    -2.463306063243    -0.628045827591     1.007825032230
         H            0.885859762104    -3.356364063243    -0.326099827591     1.007825032230
         H            1.844076762104    -2.745064063243     1.030086172409     1.007825032230

  Basis Set: AUG-CC-PVTZ
    Blend: AUG-CC-PVTZ
  Basis Set: (AUG-CC-PVTZ AUX)
    Blend: AUG-CC-PVTZ-JKFIT
	 Reference Energy          =    -364.2910068300786861 [Eh]
	 Singles Energy            =      -0.0000000000000000 [Eh]
	 Same-Spin Energy          =      -0.3977258390264219 [Eh]
	 Opposite-Spin Energy      =      -1.3058867055163976 [Eh]
	 Correlation Energy        =      -1.7036125445428196 [Eh]
	 Total Energy              =    -365.9946193746214931 [Eh]

	 ================> DF-SCS-MP2 Energies <==================
	-----------------------------------------------------------
	 SCS Same-Spin Scale       =       0.3333333333333333 [-]
	 SCS Opposite-Spin Scale   =       1.2000000000000000 [-]
	 SCS Same-Spin Energy      =      -0.1325752796754740 [Eh]
	 SCS Opposite-Spin Energy  =      -1.5670640466196770 [Eh]
	 SCS Correlation Energy    =      -1.6996393262951510 [Eh]
	 SCS Total Energy          =    -365.9906461563738276 [Eh]
	-----------------------------------------------------------

  Dipole Moment: [D]
     X:    -8.3408      Y:     0.0371      Z:     0.1746     Total:     8.3427

*** Psi4 exiting successfully. Buy a developer a beer!
