                               Psi4 1.4a3.dev225

  ==> Input File <==

--------------------------------------------------------------------------
#psi4
#
memory 32 gb

molecule  {
1 1
  N       -2.8138210    -0.0000810     0.0131690
  C       -1.3233890    -0.0000370    -0.0148680
  C        0.7280520     1.2302730    -0.0129860
  C        0.7281180    -1.2302340    -0.0129780
  C       -0.6725800    -1.2264340    -0.0069900
  C       -0.6726490     1.2263940    -0.0069970
  C        1.3988940     0.0000390    -0.0107890
  C        1.4942690     2.5253230     0.0134310
  C        1.4944180    -2.5252350     0.0134270
  H       -1.2241800    -2.1659650    -0.0138510
  H       -1.2242990     2.1658960    -0.0138630
  H        2.4879510     0.0000680    -0.0240190
  H       -3.1956820     0.8285560    -0.4636260
  H       -3.1956410    -0.8285950    -0.4638730
  H       -3.1827690    -0.0002330     0.9749950
  H        0.8779320     3.3605910    -0.3276200
  H        1.8358100     2.7495590     1.0289260
  H        2.3762850     2.4675780    -0.6290150
  H        2.2955526    -2.4728154    -0.5704553
  H        0.8780380    -3.3605930    -0.3273260
  H        1.8362550    -2.7492930     1.0288600
units angstrom
no_reorient  #important for SAPT in psi4, default
symmetry c1  #important for SAPT in psi4, default
}

set PROPERTIES_ORIGIN ["COM"]
properties('MP2/aug-cc-pvtz', properties = ['dipole'])
--------------------------------------------------------------------------

    Molecular point group: c1
  Charge       = 1
  Multiplicity = 1
  Basis Set: AUG-CC-PVTZ
    Blend: AUG-CC-PVTZ
  Basis Set: (AUG-CC-PVTZ AUX)
    Blend: AUG-CC-PVTZ-JKFIT

    Orbital Energies [Eh]
    ---------------------

    Doubly Occupied:

       1A    -15.888574     2A    -11.458747     3A    -11.394791
       4A    -11.394342     5A    -11.393394     6A    -11.393085
       7A    -11.371554     8A    -11.344960     9A    -11.333281
      10A     -1.502421    11A     -1.309226    12A     -1.205762
      13A     -1.182816    14A     -1.087524    15A     -1.073454
      16A     -0.989543    17A     -0.967494    18A     -0.949541
      19A     -0.908487    20A     -0.857068    21A     -0.820648
      22A     -0.795949    23A     -0.724049    24A     -0.717585
      25A     -0.713077    26A     -0.695712    27A     -0.681880
      28A     -0.661615    29A     -0.642978    30A     -0.634901
      31A     -0.628235    32A     -0.486666    33A     -0.475010

  @DF-RHF Final Energy:  -364.28834989966003

   => Energetics <=

    Nuclear Repulsion Energy =            432.7951450157336808
    One-Electron Energy =               -1338.7982530997305730
    Two-Electron Energy =                 541.7147581843369153
    Total Energy =                       -364.2883498996600338
  Basis Set: (AUG-CC-PVTZ AUX)
    Blend: AUG-CC-PVTZ-RI
    Molecular point group: c1

    Geometry (in Angstrom), charge = 1, multiplicity = 1:

       Center              X                  Y                   Z               Mass
    ------------   -----------------  -----------------  -----------------  -----------------
         N           -2.807835004179    -0.000037152048     0.013823419154    14.003074004430
         C           -1.317403004179     0.000006847952    -0.014213580846    12.000000000000
         C            0.734037995821     1.230316847952    -0.012331580846    12.000000000000
         C            0.734103995821    -1.230190152048    -0.012323580846    12.000000000000
         C           -0.666594004179    -1.226390152048    -0.006335580846    12.000000000000
         C           -0.666663004179     1.226437847952    -0.006342580846    12.000000000000
         C            1.404879995821     0.000082847952    -0.010134580846    12.000000000000
         C            1.500254995821     2.525366847952     0.014085419154    12.000000000000
         C            1.500403995821    -2.525191152048     0.014081419154    12.000000000000
         H           -1.218194004179    -2.165921152048    -0.013196580846     1.007825032230
         H           -1.218313004179     2.165939847952    -0.013208580846     1.007825032230
         H            2.493936995821     0.000111847952    -0.023364580846     1.007825032230
         H           -3.189696004179     0.828599847952    -0.462971580846     1.007825032230
         H           -3.189655004179    -0.828551152048    -0.463218580846     1.007825032230
         H           -3.176783004179    -0.000189152048     0.975649419154     1.007825032230
         H            0.883917995821     3.360634847952    -0.326965580846     1.007825032230
         H            1.841795995821     2.749602847952     1.029580419154     1.007825032230
         H            2.382270995821     2.467621847952    -0.628360580846     1.007825032230
         H            2.301538595821    -2.472771552048    -0.569800880846     1.007825032230
         H            0.884023995821    -3.360549152048    -0.326671580846     1.007825032230
         H            1.842240995821    -2.749249152048     1.029514419154     1.007825032230

  Basis Set: AUG-CC-PVTZ
    Blend: AUG-CC-PVTZ
  Basis Set: (AUG-CC-PVTZ AUX)
    Blend: AUG-CC-PVTZ-JKFIT
	 Reference Energy          =    -364.2883498996600338 [Eh]
	 Singles Energy            =      -0.0000000000000000 [Eh]
	 Same-Spin Energy          =      -0.3971434113684494 [Eh]
	 Opposite-Spin Energy      =      -1.3047991618270172 [Eh]
	 Correlation Energy        =      -1.7019425731954665 [Eh]
	 Total Energy              =    -365.9902924728555149 [Eh]

	 ================> DF-SCS-MP2 Energies <==================
	-----------------------------------------------------------
	 SCS Same-Spin Scale       =       0.3333333333333333 [-]
	 SCS Opposite-Spin Scale   =       1.2000000000000000 [-]
	 SCS Same-Spin Energy      =      -0.1323811371228165 [Eh]
	 SCS Opposite-Spin Energy  =      -1.5657589941924206 [Eh]
	 SCS Correlation Energy    =      -1.6981401313152371 [Eh]
	 SCS Total Energy          =    -365.9864900309752898 [Eh]
	-----------------------------------------------------------

  Dipole Moment: [D]
     X:    -8.3517      Y:    -0.0046      Z:     0.1637     Total:     8.3533

*** Psi4 exiting successfully. Buy a developer a beer!
