                               Psi4 1.4a3.dev225

  ==> Input File <==

--------------------------------------------------------------------------
#psi4
#
memory 32 gb

molecule  {
1 1
  N       -2.8138210    -0.0000810     0.0131690
  C       -1.3233890    -0.0000370    -0.0148680
  C        0.7280520     1.2302730    -0.0129860
  C        0.7281180    -1.2302340    -0.0129780
  C       -0.6725800    -1.2264340    -0.0069900
  C       -0.6726490     1.2263940    -0.0069970
  C        1.3988940     0.0000390    -0.0107890
  C        1.4942690     2.5253230     0.0134310
  C        1.4944180    -2.5252350     0.0134270
  H       -1.1988658    -2.1228478    -0.0135361
  H       -1.2242990     2.1658960    -0.0138630
  H        2.4879510     0.0000680    -0.0240190
  H       -3.1956820     0.8285560    -0.4636260
  H       -3.1956410    -0.8285950    -0.4638730
  H       -3.1827690    -0.0002330     0.9749950
  H        0.8779320     3.3605910    -0.3276200
  H        1.8358100     2.7495590     1.0289260
  H        2.3762850     2.4675780    -0.6290150
  H        2.3762540    -2.4675350    -0.6292720
  H        0.8780380    -3.3605930    -0.3273260
  H        1.8362550    -2.7492930     1.0288600
units angstrom
no_reorient  #important for SAPT in psi4, default
symmetry c1  #important for SAPT in psi4, default
}

set PROPERTIES_ORIGIN ["COM"]
properties('MP2/aug-cc-pvtz', properties = ['dipole'])
--------------------------------------------------------------------------

    Molecular point group: c1
  Charge       = 1
  Multiplicity = 1
  Basis Set: AUG-CC-PVTZ
    Blend: AUG-CC-PVTZ
  Basis Set: (AUG-CC-PVTZ AUX)
    Blend: AUG-CC-PVTZ-JKFIT

    Orbital Energies [Eh]
    ---------------------

    Doubly Occupied:

       1A    -15.888868     2A    -11.458574     3A    -11.394690
       4A    -11.394137     5A    -11.393295     6A    -11.388111
       7A    -11.371211     8A    -11.344972     9A    -11.344892
      10A     -1.502720    11A     -1.309373    12A     -1.205692
      13A     -1.182190    14A     -1.084687    15A     -1.070477
      16A     -0.989615    17A     -0.966144    18A     -0.949830
      19A     -0.909460    20A     -0.859227    21A     -0.823477
      22A     -0.794730    23A     -0.728561    24A     -0.715795
      25A     -0.710613    26A     -0.690292    27A     -0.679401
      28A     -0.657001    29A     -0.641028    30A     -0.634443
      31A     -0.628735    32A     -0.486213    33A     -0.474865

  @DF-RHF Final Energy:  -364.29367509548905

   => Energetics <=

    Nuclear Repulsion Energy =            432.6029773750464074
    One-Electron Energy =               -1338.4466670042363603
    Two-Electron Energy =                 541.5500145337008462
    Total Energy =                       -364.2936750954891068
  Basis Set: (AUG-CC-PVTZ AUX)
    Blend: AUG-CC-PVTZ-RI
    Molecular point group: c1

    Geometry (in Angstrom), charge = 1, multiplicity = 1:

       Center              X                  Y                   Z               Mass
    ------------   -----------------  -----------------  -----------------  -----------------
         N           -2.808710088726    -0.000436640349     0.014306310550    14.003074004430
         C           -1.318278088726    -0.000392640349    -0.013730689450    12.000000000000
         C            0.733162911274     1.229917359651    -0.011848689450    12.000000000000
         C            0.733228911274    -1.230589640349    -0.011840689450    12.000000000000
         C           -0.667469088726    -1.226789640349    -0.005852689450    12.000000000000
         C           -0.667538088726     1.226038359651    -0.005859689450    12.000000000000
         C            1.404004911274    -0.000316640349    -0.009651689450    12.000000000000
         C            1.499379911274     2.524967359651     0.014568310550    12.000000000000
         C            1.499528911274    -2.525590640349     0.014564310550    12.000000000000
         H           -1.193754888726    -2.123203440349    -0.012398789450     1.007825032230
         H           -1.219188088726     2.165540359651    -0.012725689450     1.007825032230
         H            2.493061911274    -0.000287640349    -0.022881689450     1.007825032230
         H           -3.190571088726     0.828200359651    -0.462488689450     1.007825032230
         H           -3.190530088726    -0.828950640349    -0.462735689450     1.007825032230
         H           -3.177658088726    -0.000588640349     0.976132310550     1.007825032230
         H            0.883042911274     3.360235359651    -0.326482689450     1.007825032230
         H            1.840920911274     2.749203359651     1.030063310550     1.007825032230
         H            2.381395911274     2.467222359651    -0.627877689450     1.007825032230
         H            2.381364911274    -2.467890640349    -0.628134689450     1.007825032230
         H            0.883148911274    -3.360948640349    -0.326188689450     1.007825032230
         H            1.841365911274    -2.749648640349     1.029997310550     1.007825032230

  Basis Set: AUG-CC-PVTZ
    Blend: AUG-CC-PVTZ
  Basis Set: (AUG-CC-PVTZ AUX)
    Blend: AUG-CC-PVTZ-JKFIT
	 Reference Energy          =    -364.2936750954890499 [Eh]
	 Singles Energy            =      -0.0000000000000000 [Eh]
	 Same-Spin Energy          =      -0.3970332441112616 [Eh]
	 Opposite-Spin Energy      =      -1.3049673089087483 [Eh]
	 Correlation Energy        =      -1.7020005530200100 [Eh]
	 Total Energy              =    -365.9956756485090636 [Eh]

	 ================> DF-SCS-MP2 Energies <==================
	-----------------------------------------------------------
	 SCS Same-Spin Scale       =       0.3333333333333333 [-]
	 SCS Opposite-Spin Scale   =       1.2000000000000000 [-]
	 SCS Same-Spin Energy      =      -0.1323444147037539 [Eh]
	 SCS Opposite-Spin Energy  =      -1.5659607706904979 [Eh]
	 SCS Correlation Energy    =      -1.6983051853942517 [Eh]
	 SCS Total Energy          =    -365.9919802808832969 [Eh]
	-----------------------------------------------------------

  Dipole Moment: [D]
     X:    -8.3769      Y:     0.0000      Z:     0.1696     Total:     8.3787

*** Psi4 exiting successfully. Buy a developer a beer!
