                               Psi4 1.4a3.dev225

  ==> Input File <==

--------------------------------------------------------------------------
#psi4
#
memory 32 gb

molecule  {
1 1
  N       -2.8138210    -0.0000810     0.0131690
  C       -1.3233890    -0.0000370    -0.0148680
  C        0.7280520     1.2302730    -0.0129860
  C        0.7281180    -1.2302340    -0.0129780
  C       -0.6725800    -1.2264340    -0.0069900
  C       -0.6726490     1.2263940    -0.0069970
  C        1.3988940     0.0000390    -0.0107890
  C        1.4942690     2.5253230     0.0134310
  C        1.4944180    -2.5252350     0.0134270
  H       -1.2241800    -2.1659650    -0.0138510
  H       -1.2242990     2.1658960    -0.0138630
  H        2.4879510     0.0000680    -0.0240190
  H       -3.1956820     0.8285560    -0.4636260
  H       -3.1956410    -0.8285950    -0.4638730
  H       -3.1827690    -0.0002330     0.9749950
  H        0.8779320     3.3605910    -0.3276200
  H        1.8358100     2.7495590     1.0289260
  H        2.3762850     2.4675780    -0.6290150
  H        2.3601137    -2.4685911    -0.6175087
  H        0.8780380    -3.3605930    -0.3273260
  H        1.8362550    -2.7492930     1.0288600
units angstrom
no_reorient  #important for SAPT in psi4, default
symmetry c1  #important for SAPT in psi4, default
}

set PROPERTIES_ORIGIN ["COM"]
properties('MP2/aug-cc-pvtz', properties = ['dipole'])
--------------------------------------------------------------------------

    Molecular point group: c1
  Charge       = 1
  Multiplicity = 1
  Basis Set: AUG-CC-PVTZ
    Blend: AUG-CC-PVTZ
  Basis Set: (AUG-CC-PVTZ AUX)
    Blend: AUG-CC-PVTZ-JKFIT

    Orbital Energies [Eh]
    ---------------------

    Doubly Occupied:

       1A    -15.888677     2A    -11.458876     3A    -11.394815
       4A    -11.394717     5A    -11.393476     6A    -11.393409
       7A    -11.371537     8A    -11.344971     9A    -11.342680
      10A     -1.502519    11A     -1.309233    12A     -1.204982
      13A     -1.182184    14A     -1.083702    15A     -1.071062
      16A     -0.988980    17A     -0.966306    18A     -0.949636
      19A     -0.907920    20A     -0.856150    21A     -0.820501
      22A     -0.795044    23A     -0.724071    24A     -0.715474
      25A     -0.711181    26A     -0.691163    27A     -0.679833
      28A     -0.658026    29A     -0.641653    30A     -0.634742
      31A     -0.628441    32A     -0.486471    33A     -0.475002

  @DF-RHF Final Energy:  -364.29441945600894

   => Energetics <=

    Nuclear Repulsion Energy =            432.4243674432890430
    One-Electron Energy =               -1338.1027028519706619
    Two-Electron Energy =                 541.3839159526726235
    Total Energy =                       -364.2944194560089954
  Basis Set: (AUG-CC-PVTZ AUX)
    Blend: AUG-CC-PVTZ-RI
    Molecular point group: c1

    Geometry (in Angstrom), charge = 1, multiplicity = 1:

       Center              X                  Y                   Z               Mass
    ------------   -----------------  -----------------  -----------------  -----------------
         N           -2.808367910855    -0.000072020687     0.014211812024    14.003074004430
         C           -1.317935910855    -0.000028020687    -0.013825187976    12.000000000000
         C            0.733505089145     1.230281979313    -0.011943187976    12.000000000000
         C            0.733571089145    -1.230225020687    -0.011935187976    12.000000000000
         C           -0.667126910855    -1.226425020687    -0.005947187976    12.000000000000
         C           -0.667195910855     1.226402979313    -0.005954187976    12.000000000000
         C            1.404347089145     0.000047979313    -0.009746187976    12.000000000000
         C            1.499722089145     2.525331979313     0.014473812024    12.000000000000
         C            1.499871089145    -2.525226020687     0.014469812024    12.000000000000
         H           -1.218726910855    -2.165956020687    -0.012808187976     1.007825032230
         H           -1.218845910855     2.165904979313    -0.012820187976     1.007825032230
         H            2.493404089145     0.000076979313    -0.022976187976     1.007825032230
         H           -3.190228910855     0.828564979313    -0.462583187976     1.007825032230
         H           -3.190187910855    -0.828586020687    -0.462830187976     1.007825032230
         H           -3.177315910855    -0.000224020687     0.976037812024     1.007825032230
         H            0.883385089145     3.360599979313    -0.326577187976     1.007825032230
         H            1.841263089145     2.749567979313     1.029968812024     1.007825032230
         H            2.381738089145     2.467586979313    -0.627972187976     1.007825032230
         H            2.365566789145    -2.468582120687    -0.616465887976     1.007825032230
         H            0.883491089145    -3.360584020687    -0.326283187976     1.007825032230
         H            1.841708089145    -2.749284020687     1.029902812024     1.007825032230

  Basis Set: AUG-CC-PVTZ
    Blend: AUG-CC-PVTZ
  Basis Set: (AUG-CC-PVTZ AUX)
    Blend: AUG-CC-PVTZ-JKFIT
	 Reference Energy          =    -364.2944194560089386 [Eh]
	 Singles Energy            =      -0.0000000000000000 [Eh]
	 Same-Spin Energy          =      -0.3971502117774552 [Eh]
	 Opposite-Spin Energy      =      -1.3051844341585175 [Eh]
	 Correlation Energy        =      -1.7023346459359727 [Eh]
	 Total Energy              =    -365.9967541019449300 [Eh]

	 ================> DF-SCS-MP2 Energies <==================
	-----------------------------------------------------------
	 SCS Same-Spin Scale       =       0.3333333333333333 [-]
	 SCS Opposite-Spin Scale   =       1.2000000000000000 [-]
	 SCS Same-Spin Energy      =      -0.1323834039258184 [Eh]
	 SCS Opposite-Spin Energy  =      -1.5662213209902209 [Eh]
	 SCS Correlation Energy    =      -1.6986047249160394 [Eh]
	 SCS Total Energy          =    -365.9930241809249765 [Eh]
	-----------------------------------------------------------

  Dipole Moment: [D]
     X:    -8.3626      Y:    -0.0015      Z:     0.1685     Total:     8.3643

*** Psi4 exiting successfully. Buy a developer a beer!
