                               Psi4 1.4a3.dev225

  ==> Input File <==

--------------------------------------------------------------------------
#psi4
#
memory 32 gb

molecule  {
1 1
  N       -2.8138210    -0.0000810     0.0131690
  C       -1.3233890    -0.0000370    -0.0148680
  C        0.6933263     1.2512026     0.0204140
  C        0.7281180    -1.2302340    -0.0129780
  C       -0.6725800    -1.2264340    -0.0069900
  C       -0.6726490     1.2263940    -0.0069970
  C        1.3988940     0.0000390    -0.0107890
  C        1.4942690     2.5253230     0.0134310
  C        1.4944180    -2.5252350     0.0134270
  H       -1.2241800    -2.1659650    -0.0138510
  H       -1.2242990     2.1658960    -0.0138630
  H        2.4879510     0.0000680    -0.0240190
  H       -3.1956820     0.8285560    -0.4636260
  H       -3.1956410    -0.8285950    -0.4638730
  H       -3.1827690    -0.0002330     0.9749950
  H        0.8779320     3.3605910    -0.3276200
  H        1.8358100     2.7495590     1.0289260
  H        2.3762850     2.4675780    -0.6290150
  H        2.3762540    -2.4675350    -0.6292720
  H        0.8780380    -3.3605930    -0.3273260
  H        1.8362550    -2.7492930     1.0288600
units angstrom
no_reorient  #important for SAPT in psi4, default
symmetry c1  #important for SAPT in psi4, default
}

set PROPERTIES_ORIGIN ["COM"]
properties('MP2/aug-cc-pvtz', properties = ['dipole'])
--------------------------------------------------------------------------

    Molecular point group: c1
  Charge       = 1
  Multiplicity = 1
  Basis Set: AUG-CC-PVTZ
    Blend: AUG-CC-PVTZ
  Basis Set: (AUG-CC-PVTZ AUX)
    Blend: AUG-CC-PVTZ-JKFIT

    Orbital Energies [Eh]
    ---------------------

    Doubly Occupied:

       1A    -15.888852     2A    -11.458596     3A    -11.395996
       4A    -11.394290     5A    -11.392615     6A    -11.389845
       7A    -11.375533     8A    -11.345096     9A    -11.344471
      10A     -1.502577    11A     -1.309674    12A     -1.207772
      13A     -1.179304    14A     -1.083986    15A     -1.067684
      16A     -0.991959    17A     -0.966208    18A     -0.949710
      19A     -0.904581    20A     -0.857455    21A     -0.820777
      22A     -0.795014    23A     -0.725873    24A     -0.711901
      25A     -0.710378    26A     -0.690493    27A     -0.679249
      28A     -0.660278    29A     -0.645497    30A     -0.635084
      31A     -0.621141    32A     -0.482003    33A     -0.478952

  @DF-RHF Final Energy:  -364.29203432967972

   => Energetics <=

    Nuclear Repulsion Energy =            432.3409439797637788
    One-Electron Energy =               -1337.9402648495356516
    Two-Electron Energy =                 541.3072865400921501
    Total Energy =                       -364.2920343296797228
  Basis Set: (AUG-CC-PVTZ AUX)
    Blend: AUG-CC-PVTZ-RI
    Molecular point group: c1

    Geometry (in Angstrom), charge = 1, multiplicity = 1:

       Center              X                  Y                   Z               Mass
    ------------   -----------------  -----------------  -----------------  -----------------
         N           -2.805088207950    -0.002137752170     0.011026273204    14.003074004430
         C           -1.314656207950    -0.002093752170    -0.017010726796    12.000000000000
         C            0.702059092050     1.249145847830     0.018271273204    12.000000000000
         C            0.736850792050    -1.232290752170    -0.015120726796    12.000000000000
         C           -0.663847207950    -1.228490752170    -0.009132726796    12.000000000000
         C           -0.663916207950     1.224337247830    -0.009139726796    12.000000000000
         C            1.407626792050    -0.002017752170    -0.012931726796    12.000000000000
         C            1.503001792050     2.523266247830     0.011288273204    12.000000000000
         C            1.503150792050    -2.527291752170     0.011284273204    12.000000000000
         H           -1.215447207950    -2.168021752170    -0.015993726796     1.007825032230
         H           -1.215566207950     2.163839247830    -0.016005726796     1.007825032230
         H            2.496683792050    -0.001988752170    -0.026161726796     1.007825032230
         H           -3.186949207950     0.826499247830    -0.465768726796     1.007825032230
         H           -3.186908207950    -0.830651752170    -0.466015726796     1.007825032230
         H           -3.174036207950    -0.002289752170     0.972852273204     1.007825032230
         H            0.886664792050     3.358534247830    -0.329762726796     1.007825032230
         H            1.844542792050     2.747502247830     1.026783273204     1.007825032230
         H            2.385017792050     2.465521247830    -0.631157726796     1.007825032230
         H            2.384986792050    -2.469591752170    -0.631414726796     1.007825032230
         H            0.886770792050    -3.362649752170    -0.329468726796     1.007825032230
         H            1.844987792050    -2.751349752170     1.026717273204     1.007825032230

  Basis Set: AUG-CC-PVTZ
    Blend: AUG-CC-PVTZ
  Basis Set: (AUG-CC-PVTZ AUX)
    Blend: AUG-CC-PVTZ-JKFIT
	 Reference Energy          =    -364.2920343296797228 [Eh]
	 Singles Energy            =      -0.0000000000000000 [Eh]
	 Same-Spin Energy          =      -0.3971263759392997 [Eh]
	 Opposite-Spin Energy      =      -1.3054712015959384 [Eh]
	 Correlation Energy        =      -1.7025975775352382 [Eh]
	 Total Energy              =    -365.9946319072149663 [Eh]

	 ================> DF-SCS-MP2 Energies <==================
	-----------------------------------------------------------
	 SCS Same-Spin Scale       =       0.3333333333333333 [-]
	 SCS Opposite-Spin Scale   =       1.2000000000000000 [-]
	 SCS Same-Spin Energy      =      -0.1323754586464332 [Eh]
	 SCS Opposite-Spin Energy  =      -1.5665654419151260 [Eh]
	 SCS Correlation Energy    =      -1.6989409005615592 [Eh]
	 SCS Total Energy          =    -365.9909752302413040 [Eh]
	-----------------------------------------------------------

  Dipole Moment: [D]
     X:    -8.3437      Y:    -0.0088      Z:     0.1459     Total:     8.3450

*** Psi4 exiting successfully. Buy a developer a beer!
