                               Psi4 1.4a3.dev225

  ==> Input File <==

--------------------------------------------------------------------------
#psi4
#
memory 32 gb

molecule  {
1 1
  N       -2.8138210    -0.0000810     0.0131690
  C       -1.3233890    -0.0000370    -0.0148680
  C        0.7280520     1.2302730    -0.0129860
  C        0.7281180    -1.2302340    -0.0129780
  C       -0.6725800    -1.2264340    -0.0069900
  C       -0.6726490     1.2263940    -0.0069970
  C        1.3988940     0.0000390    -0.0107890
  C        1.4942690     2.5253230     0.0134310
  C        1.4944180    -2.5252350     0.0134270
  H       -1.2241800    -2.1659650    -0.0138510
  H       -1.2242990     2.1658960    -0.0138630
  H        2.4879510     0.0000680    -0.0240190
  H       -3.1956820     0.8285560    -0.4636260
  H       -3.1956410    -0.8285950    -0.4638730
  H       -3.1827690    -0.0002330     0.9749950
  H        0.8779320     3.3605910    -0.3276200
  H        1.8358100     2.7495590     1.0289260
  H        2.3762850     2.4675780    -0.6290150
  H        2.3762540    -2.4675350    -0.6292720
  H        0.8780380    -3.3605930    -0.3273260
  H        1.8300091    -2.7451991     1.0103066
units angstrom
no_reorient  #important for SAPT in psi4, default
symmetry c1  #important for SAPT in psi4, default
}

set PROPERTIES_ORIGIN ["COM"]
properties('MP2/aug-cc-pvtz', properties = ['dipole'])
--------------------------------------------------------------------------

    Molecular point group: c1
  Charge       = 1
  Multiplicity = 1
  Basis Set: AUG-CC-PVTZ
    Blend: AUG-CC-PVTZ
  Basis Set: (AUG-CC-PVTZ AUX)
    Blend: AUG-CC-PVTZ-JKFIT

    Orbital Energies [Eh]
    ---------------------

    Doubly Occupied:

       1A    -15.888691     2A    -11.458891     3A    -11.394813
       4A    -11.394740     5A    -11.393485     6A    -11.393443
       7A    -11.371516     8A    -11.344968     9A    -11.342676
      10A     -1.502533    11A     -1.309242    12A     -1.205006
      13A     -1.182165    14A     -1.083667    15A     -1.071128
      16A     -0.988926    17A     -0.966312    18A     -0.949650
      19A     -0.907988    20A     -0.856114    21A     -0.820463
      22A     -0.794844    23A     -0.724208    24A     -0.715661
      25A     -0.711920    26A     -0.692044    27A     -0.679015
      28A     -0.656933    29A     -0.641117    30A     -0.635326
      31A     -0.628445    32A     -0.486519    33A     -0.475115

  @DF-RHF Final Energy:  -364.29440708593518

   => Energetics <=

    Nuclear Repulsion Energy =            432.4252449877276945
    One-Electron Energy =               -1338.1041764965862058
    Two-Electron Energy =                 541.3845244229233913
    Total Energy =                       -364.2944070859351768
  Basis Set: (AUG-CC-PVTZ AUX)
    Blend: AUG-CC-PVTZ-RI
    Molecular point group: c1

    Geometry (in Angstrom), charge = 1, multiplicity = 1:

       Center              X                  Y                   Z               Mass
    ------------   -----------------  -----------------  -----------------  -----------------
         N           -2.808449582199    -0.000114530331     0.014462055155    14.003074004430
         C           -1.318017582199    -0.000070530331    -0.013574944845    12.000000000000
         C            0.733423417801     1.230239469669    -0.011692944845    12.000000000000
         C            0.733489417801    -1.230267530331    -0.011684944845    12.000000000000
         C           -0.667208582199    -1.226467530331    -0.005696944845    12.000000000000
         C           -0.667277582199     1.226360469669    -0.005703944845    12.000000000000
         C            1.404265417801     0.000005469669    -0.009495944845    12.000000000000
         C            1.499640417801     2.525289469669     0.014724055155    12.000000000000
         C            1.499789417801    -2.525268530331     0.014720055155    12.000000000000
         H           -1.218808582199    -2.165998530331    -0.012557944845     1.007825032230
         H           -1.218927582199     2.165862469669    -0.012569944845     1.007825032230
         H            2.493322417801     0.000034469669    -0.022725944845     1.007825032230
         H           -3.190310582199     0.828522469669    -0.462332944845     1.007825032230
         H           -3.190269582199    -0.828628530331    -0.462579944845     1.007825032230
         H           -3.177397582199    -0.000266530331     0.976288055155     1.007825032230
         H            0.883303417801     3.360557469669    -0.326326944845     1.007825032230
         H            1.841181417801     2.749525469669     1.030219055155     1.007825032230
         H            2.381656417801     2.467544469669    -0.627721944845     1.007825032230
         H            2.381625417801    -2.467568530331    -0.627978944845     1.007825032230
         H            0.883409417801    -3.360626530331    -0.326032944845     1.007825032230
         H            1.835380517801    -2.745232630331     1.011599655155     1.007825032230

  Basis Set: AUG-CC-PVTZ
    Blend: AUG-CC-PVTZ
  Basis Set: (AUG-CC-PVTZ AUX)
    Blend: AUG-CC-PVTZ-JKFIT
	 Reference Energy          =    -364.2944070859351768 [Eh]
	 Singles Energy            =      -0.0000000000000000 [Eh]
	 Same-Spin Energy          =      -0.3971542525884445 [Eh]
	 Opposite-Spin Energy      =      -1.3051921637061985 [Eh]
	 Correlation Energy        =      -1.7023464162946431 [Eh]
	 Total Energy              =    -365.9967535022298080 [Eh]

	 ================> DF-SCS-MP2 Energies <==================
	-----------------------------------------------------------
	 SCS Same-Spin Scale       =       0.3333333333333333 [-]
	 SCS Opposite-Spin Scale   =       1.2000000000000000 [-]
	 SCS Same-Spin Energy      =      -0.1323847508628148 [Eh]
	 SCS Opposite-Spin Energy  =      -1.5662305964474381 [Eh]
	 SCS Correlation Energy    =      -1.6986153473102530 [Eh]
	 SCS Total Energy          =    -365.9930224332454145 [Eh]
	-----------------------------------------------------------

  Dipole Moment: [D]
     X:    -8.3653      Y:    -0.0012      Z:     0.1724     Total:     8.3671

*** Psi4 exiting successfully. Buy a developer a beer!
