                               Psi4 1.4a3.dev225

  ==> Input File <==

--------------------------------------------------------------------------
#psi4
#
memory 32 gb

molecule  {
1 1
  N       -2.8138210    -0.0000810     0.0131690
  C       -1.3233890    -0.0000370    -0.0148680
  C        0.6595764     1.2736845     0.0538055
  C        0.7281180    -1.2302340    -0.0129780
  C       -0.6725800    -1.2264340    -0.0069900
  C       -0.6726490     1.2263940    -0.0069970
  C        1.3988940     0.0000390    -0.0107890
  C        1.4942690     2.5253230     0.0134310
  C        1.4944180    -2.5252350     0.0134270
  H       -1.2241800    -2.1659650    -0.0138510
  H       -1.2242990     2.1658960    -0.0138630
  H        2.4879510     0.0000680    -0.0240190
  H       -3.1956820     0.8285560    -0.4636260
  H       -3.1956410    -0.8285950    -0.4638730
  H       -3.1827690    -0.0002330     0.9749950
  H        0.8779320     3.3605910    -0.3276200
  H        1.8358100     2.7495590     1.0289260
  H        2.3762850     2.4675780    -0.6290150
  H        2.3762540    -2.4675350    -0.6292720
  H        0.8780380    -3.3605930    -0.3273260
  H        1.8362550    -2.7492930     1.0288600
units angstrom
no_reorient  #important for SAPT in psi4, default
symmetry c1  #important for SAPT in psi4, default
}

set PROPERTIES_ORIGIN ["COM"]
properties('MP2/aug-cc-pvtz', properties = ['dipole'])
--------------------------------------------------------------------------

    Molecular point group: c1
  Charge       = 1
  Multiplicity = 1
  Basis Set: AUG-CC-PVTZ
    Blend: AUG-CC-PVTZ
  Basis Set: (AUG-CC-PVTZ AUX)
    Blend: AUG-CC-PVTZ-JKFIT

    Orbital Energies [Eh]
    ---------------------

    Doubly Occupied:

       1A    -15.888941     2A    -11.458169     3A    -11.398130
       4A    -11.393825     5A    -11.390907     6A    -11.385952
       7A    -11.379341     8A    -11.345362     9A    -11.343965
      10A     -1.502547    11A     -1.310244    12A     -1.210940
      13A     -1.176634    14A     -1.084936    15A     -1.064974
      16A     -0.995338    17A     -0.965940    18A     -0.949702
      19A     -0.901191    20A     -0.859048    21A     -0.820951
      22A     -0.794681    23A     -0.727757    24A     -0.711237
      25A     -0.707670    26A     -0.690679    27A     -0.679379
      28A     -0.664967    29A     -0.647601    30A     -0.635417
      31A     -0.612607    32A     -0.484598    33A     -0.476535

  @DF-RHF Final Energy:  -364.28492537276725

   => Energetics <=

    Nuclear Repulsion Energy =            432.3130016255062742
    One-Electron Energy =               -1337.8755264368248845
    Two-Electron Energy =                 541.2775994385513059
    Total Energy =                       -364.2849253727672476
  Basis Set: (AUG-CC-PVTZ AUX)
    Blend: AUG-CC-PVTZ-RI
    Molecular point group: c1

    Geometry (in Angstrom), charge = 1, multiplicity = 1:

       Center              X                  Y                   Z               Mass
    ------------   -----------------  -----------------  -----------------  -----------------
         N           -2.801771182265    -0.004347330265     0.007744471980    14.003074004430
         C           -1.311339182265    -0.004303330265    -0.020292528020    12.000000000000
         C            0.671626217735     1.269418169735     0.048380971980    12.000000000000
         C            0.740167817735    -1.234500330265    -0.018402528020    12.000000000000
         C           -0.660530182265    -1.230700330265    -0.012414528020    12.000000000000
         C           -0.660599182265     1.222127669735    -0.012421528020    12.000000000000
         C            1.410943817735    -0.004227330265    -0.016213528020    12.000000000000
         C            1.506318817735     2.521056669735     0.008006471980    12.000000000000
         C            1.506467817735    -2.529501330265     0.008002471980    12.000000000000
         H           -1.212130182265    -2.170231330265    -0.019275528020     1.007825032230
         H           -1.212249182265     2.161629669735    -0.019287528020     1.007825032230
         H            2.500000817735    -0.004198330265    -0.029443528020     1.007825032230
         H           -3.183632182265     0.824289669735    -0.469050528020     1.007825032230
         H           -3.183591182265    -0.832861330265    -0.469297528020     1.007825032230
         H           -3.170719182265    -0.004499330265     0.969570471980     1.007825032230
         H            0.889981817735     3.356324669735    -0.333044528020     1.007825032230
         H            1.847859817735     2.745292669735     1.023501471980     1.007825032230
         H            2.388334817735     2.463311669735    -0.634439528020     1.007825032230
         H            2.388303817735    -2.471801330265    -0.634696528020     1.007825032230
         H            0.890087817735    -3.364859330265    -0.332750528020     1.007825032230
         H            1.848304817735    -2.753559330265     1.023435471980     1.007825032230

  Basis Set: AUG-CC-PVTZ
    Blend: AUG-CC-PVTZ
  Basis Set: (AUG-CC-PVTZ AUX)
    Blend: AUG-CC-PVTZ-JKFIT
	 Reference Energy          =    -364.2849253727672476 [Eh]
	 Singles Energy            =      -0.0000000000000000 [Eh]
	 Same-Spin Energy          =      -0.3970407918672470 [Eh]
	 Opposite-Spin Energy      =      -1.3058867683066722 [Eh]
	 Correlation Energy        =      -1.7029275601739191 [Eh]
	 Total Energy              =    -365.9878529329411663 [Eh]

	 ================> DF-SCS-MP2 Energies <==================
	-----------------------------------------------------------
	 SCS Same-Spin Scale       =       0.3333333333333333 [-]
	 SCS Opposite-Spin Scale   =       1.2000000000000000 [-]
	 SCS Same-Spin Energy      =      -0.1323469306224156 [Eh]
	 SCS Opposite-Spin Energy  =      -1.5670641219680066 [Eh]
	 SCS Correlation Energy    =      -1.6994110525904222 [Eh]
	 SCS Total Energy          =    -365.9843364253576965 [Eh]
	-----------------------------------------------------------

  Dipole Moment: [D]
     X:    -8.3235      Y:    -0.0198      Z:     0.1219     Total:     8.3244

*** Psi4 exiting successfully. Buy a developer a beer!
