                               Psi4 1.4a3.dev225

  ==> Input File <==

--------------------------------------------------------------------------
#psi4
#
memory 32 gb

molecule  {
1 1
  N       -2.8138210    -0.0000810     0.0131690
  C       -1.3233890    -0.0000370    -0.0148680
  C        0.7280520     1.2302730    -0.0129860
  C        0.7281180    -1.2302340    -0.0129780
  C       -0.6725800    -1.2264340    -0.0069900
  C       -0.6726490     1.2263940    -0.0069970
  C        1.3988940     0.0000390    -0.0107890
  C        1.4942690     2.5253230     0.0134310
  C        1.4944180    -2.5252350     0.0134270
  H       -1.2241800    -2.1659650    -0.0138510
  H       -1.2242990     2.1658960    -0.0138630
  H        2.4879510     0.0000680    -0.0240190
  H       -3.1586288     0.8691490    -0.4173393
  H       -3.1956410    -0.8285950    -0.4638730
  H       -3.1827690    -0.0002330     0.9749950
  H        0.8779320     3.3605910    -0.3276200
  H        1.8358100     2.7495590     1.0289260
  H        2.3762850     2.4675780    -0.6290150
  H        2.3762540    -2.4675350    -0.6292720
  H        0.8780380    -3.3605930    -0.3273260
  H        1.8362550    -2.7492930     1.0288600
units angstrom
no_reorient  #important for SAPT in psi4, default
symmetry c1  #important for SAPT in psi4, default
}

set PROPERTIES_ORIGIN ["COM"]
properties('MP2/aug-cc-pvtz', properties = ['dipole'])
--------------------------------------------------------------------------

    Molecular point group: c1
  Charge       = 1
  Multiplicity = 1
  Basis Set: AUG-CC-PVTZ
    Blend: AUG-CC-PVTZ
  Basis Set: (AUG-CC-PVTZ AUX)
    Blend: AUG-CC-PVTZ-JKFIT

    Orbital Energies [Eh]
    ---------------------

    Doubly Occupied:

       1A    -15.888703     2A    -11.458977     3A    -11.395248
       4A    -11.394981     5A    -11.393956     6A    -11.393489
       7A    -11.371631     8A    -11.345246     9A    -11.345083
      10A     -1.502802    11A     -1.309305    12A     -1.205150
      13A     -1.181840    14A     -1.083815    15A     -1.070555
      16A     -0.988201    17A     -0.970833    18A     -0.944910
      19A     -0.910296    20A     -0.855381    21A     -0.820435
      22A     -0.795452    23A     -0.724486    24A     -0.715579
      25A     -0.710863    26A     -0.690514    27A     -0.679302
      28A     -0.657096    29A     -0.641320    30A     -0.634607
      31A     -0.628732    32A     -0.486438    33A     -0.475326

  @DF-RHF Final Energy:  -364.29382046033720

   => Energetics <=

    Nuclear Repulsion Energy =            432.4125819444590775
    One-Electron Energy =               -1338.0717005331928249
    Two-Electron Energy =                 541.3652981283964891
    Total Energy =                       -364.2938204603372014
  Basis Set: (AUG-CC-PVTZ AUX)
    Blend: AUG-CC-PVTZ-RI
    Molecular point group: c1

    Geometry (in Angstrom), charge = 1, multiplicity = 1:

       Center              X                  Y                   Z               Mass
    ------------   -----------------  -----------------  -----------------  -----------------
         N           -2.808806985952    -0.000415804845     0.013926845530    14.003074004430
         C           -1.318374985952    -0.000371804845    -0.014110154470    12.000000000000
         C            0.733066014048     1.229938195155    -0.012228154470    12.000000000000
         C            0.733132014048    -1.230568804845    -0.012220154470    12.000000000000
         C           -0.667565985952    -1.226768804845    -0.006232154470    12.000000000000
         C           -0.667634985952     1.226059195155    -0.006239154470    12.000000000000
         C            1.403908014048    -0.000295804845    -0.010031154470    12.000000000000
         C            1.499283014048     2.524988195155     0.014188845530    12.000000000000
         C            1.499432014048    -2.525569804845     0.014184845530    12.000000000000
         H           -1.219165985952    -2.166299804845    -0.013093154470     1.007825032230
         H           -1.219284985952     2.165561195155    -0.013105154470     1.007825032230
         H            2.492965014048    -0.000266804845    -0.023261154470     1.007825032230
         H           -3.153614785952     0.868814195155    -0.416581454470     1.007825032230
         H           -3.190626985952    -0.828929804845    -0.463115154470     1.007825032230
         H           -3.177754985952    -0.000567804845     0.975752845530     1.007825032230
         H            0.882946014048     3.360256195155    -0.326862154470     1.007825032230
         H            1.840824014048     2.749224195155     1.029683845530     1.007825032230
         H            2.381299014048     2.467243195155    -0.628257154470     1.007825032230
         H            2.381268014048    -2.467869804845    -0.628514154470     1.007825032230
         H            0.883052014048    -3.360927804845    -0.326568154470     1.007825032230
         H            1.841269014048    -2.749627804845     1.029617845530     1.007825032230

  Basis Set: AUG-CC-PVTZ
    Blend: AUG-CC-PVTZ
  Basis Set: (AUG-CC-PVTZ AUX)
    Blend: AUG-CC-PVTZ-JKFIT
	 Reference Energy          =    -364.2938204603372014 [Eh]
	 Singles Energy            =      -0.0000000000000000 [Eh]
	 Same-Spin Energy          =      -0.3972169510380259 [Eh]
	 Opposite-Spin Energy      =      -1.3053823159719724 [Eh]
	 Correlation Energy        =      -1.7025992670099983 [Eh]
	 Total Energy              =    -365.9964197273471882 [Eh]

	 ================> DF-SCS-MP2 Energies <==================
	-----------------------------------------------------------
	 SCS Same-Spin Scale       =       0.3333333333333333 [-]
	 SCS Opposite-Spin Scale   =       1.2000000000000000 [-]
	 SCS Same-Spin Energy      =      -0.1324056503460086 [Eh]
	 SCS Opposite-Spin Energy  =      -1.5664587791663669 [Eh]
	 SCS Correlation Energy    =      -1.6988644295123756 [Eh]
	 SCS Total Energy          =    -365.9926848898495564 [Eh]
	-----------------------------------------------------------

  Dipole Moment: [D]
     X:    -8.3176      Y:     0.0279      Z:     0.2235     Total:     8.3207

*** Psi4 exiting successfully. Buy a developer a beer!
