                               Psi4 1.4a3.dev225

  ==> Input File <==

--------------------------------------------------------------------------
#psi4
#
memory 32 gb

molecule  {
1 1
  N       -2.8138210    -0.0000810     0.0131690
  C       -1.3233890    -0.0000370    -0.0148680
  C        0.7280520     1.2302730    -0.0129860
  C        0.7281180    -1.2302340    -0.0129780
  C       -0.6725800    -1.2264340    -0.0069900
  C       -0.6726490     1.2263940    -0.0069970
  C        1.3988940     0.0000390    -0.0107890
  C        1.4942690     2.5253230     0.0134310
  C        1.5453359    -2.6112832     0.0151815
  H       -1.2241800    -2.1659650    -0.0138510
  H       -1.2242990     2.1658960    -0.0138630
  H        2.4879510     0.0000680    -0.0240190
  H       -3.1956820     0.8285560    -0.4636260
  H       -3.1956410    -0.8285950    -0.4638730
  H       -3.1827690    -0.0002330     0.9749950
  H        0.8779320     3.3605910    -0.3276200
  H        1.8358100     2.7495590     1.0289260
  H        2.3762850     2.4675780    -0.6290150
  H        2.3762540    -2.4675350    -0.6292720
  H        0.8780380    -3.3605930    -0.3273260
  H        1.8362550    -2.7492930     1.0288600
units angstrom
no_reorient  #important for SAPT in psi4, default
symmetry c1  #important for SAPT in psi4, default
}

set PROPERTIES_ORIGIN ["COM"]
properties('MP2/aug-cc-pvtz', properties = ['dipole'])
--------------------------------------------------------------------------

    Molecular point group: c1
  Charge       = 1
  Multiplicity = 1
  Basis Set: AUG-CC-PVTZ
    Blend: AUG-CC-PVTZ
  Basis Set: (AUG-CC-PVTZ AUX)
    Blend: AUG-CC-PVTZ-JKFIT

    Orbital Energies [Eh]
    ---------------------

    Doubly Occupied:

       1A    -15.888316     2A    -11.458381     3A    -11.396548
       4A    -11.394396     5A    -11.393545     6A    -11.393122
       7A    -11.371307     8A    -11.344822     9A    -11.344660
      10A     -1.502153    11A     -1.306818    12A     -1.199260
      13A     -1.177966    14A     -1.082076    15A     -1.070685
      16A     -0.988119    17A     -0.967175    18A     -0.949293
      19A     -0.907303    20A     -0.855085    21A     -0.819353
      22A     -0.792721    23A     -0.722543    24A     -0.714447
      25A     -0.705091    26A     -0.696170    27A     -0.689282
      28A     -0.659612    29A     -0.642323    30A     -0.638302
      31A     -0.611274    32A     -0.487235    33A     -0.475814

  @DF-RHF Final Energy:  -364.28737162595053

   => Energetics <=

    Nuclear Repulsion Energy =            430.6996709054477606
    One-Electron Energy =               -1334.6836921121025625
    Two-Electron Energy =                 539.6966495807042747
    Total Energy =                       -364.2873716259505272
  Basis Set: (AUG-CC-PVTZ AUX)
    Blend: AUG-CC-PVTZ-RI
    Molecular point group: c1

    Geometry (in Angstrom), charge = 1, multiplicity = 1:

       Center              X                  Y                   Z               Mass
    ------------   -----------------  -----------------  -----------------  -----------------
         N           -2.813505477953     0.008376297063     0.014136473124    14.003074004430
         C           -1.323073477953     0.008420297063    -0.013900526876    12.000000000000
         C            0.728367522047     1.238730297063    -0.012018526876    12.000000000000
         C            0.728433522047    -1.221776702937    -0.012010526876    12.000000000000
         C           -0.672264477953    -1.217976702937    -0.006022526876    12.000000000000
         C           -0.672333477953     1.234851297063    -0.006029526876    12.000000000000
         C            1.399209522047     0.008496297063    -0.009821526876    12.000000000000
         C            1.494584522047     2.533780297063     0.014398473124    12.000000000000
         C            1.545651422047    -2.602825902937     0.016148973124    12.000000000000
         H           -1.223864477953    -2.157507702937    -0.012883526876     1.007825032230
         H           -1.223983477953     2.174353297063    -0.012895526876     1.007825032230
         H            2.488266522047     0.008525297063    -0.023051526876     1.007825032230
         H           -3.195366477953     0.837013297063    -0.462658526876     1.007825032230
         H           -3.195325477953    -0.820137702937    -0.462905526876     1.007825032230
         H           -3.182453477953     0.008224297063     0.975962473124     1.007825032230
         H            0.878247522047     3.369048297063    -0.326652526876     1.007825032230
         H            1.836125522047     2.758016297063     1.029893473124     1.007825032230
         H            2.376600522047     2.476035297063    -0.628047526876     1.007825032230
         H            2.376569522047    -2.459077702937    -0.628304526876     1.007825032230
         H            0.878353522047    -3.352135702937    -0.326358526876     1.007825032230
         H            1.836570522047    -2.740835702937     1.029827473124     1.007825032230

  Basis Set: AUG-CC-PVTZ
    Blend: AUG-CC-PVTZ
  Basis Set: (AUG-CC-PVTZ AUX)
    Blend: AUG-CC-PVTZ-JKFIT
	 Reference Energy          =    -364.2873716259505272 [Eh]
	 Singles Energy            =      -0.0000000000000000 [Eh]
	 Same-Spin Energy          =      -0.3966065226819528 [Eh]
	 Opposite-Spin Energy      =      -1.3051424357324239 [Eh]
	 Correlation Energy        =      -1.7017489584143768 [Eh]
	 Total Energy              =    -365.9891205843649118 [Eh]

	 ================> DF-SCS-MP2 Energies <==================
	-----------------------------------------------------------
	 SCS Same-Spin Scale       =       0.3333333333333333 [-]
	 SCS Opposite-Spin Scale   =       1.2000000000000000 [-]
	 SCS Same-Spin Energy      =      -0.1322021742273176 [Eh]
	 SCS Opposite-Spin Energy  =      -1.5661709228789087 [Eh]
	 SCS Correlation Energy    =      -1.6983730971062263 [Eh]
	 SCS Total Energy          =    -365.9857447230567686 [Eh]
	-----------------------------------------------------------

  Dipole Moment: [D]
     X:    -8.4001      Y:     0.0503      Z:     0.1641     Total:     8.4019

*** Psi4 exiting successfully. Buy a developer a beer!
