                               Psi4 1.4a3.dev225

  ==> Input File <==

--------------------------------------------------------------------------
#psi4
#
memory 32 gb

molecule  {
1 1
  N       -2.8138210    -0.0000810     0.0131690
  C       -1.3233890    -0.0000370    -0.0148680
  C        0.7280520     1.2302730    -0.0129860
  C        0.7281180    -1.2302340    -0.0129780
  C       -0.6725800    -1.2264340    -0.0069900
  C       -0.6726490     1.2263940    -0.0069970
  C        1.3031451     0.1756296    -0.0111026
  C        1.4942690     2.5253230     0.0134310
  C        1.4944180    -2.5252350     0.0134270
  H       -1.2241800    -2.1659650    -0.0138510
  H       -1.2242990     2.1658960    -0.0138630
  H        2.4879510     0.0000680    -0.0240190
  H       -3.1956820     0.8285560    -0.4636260
  H       -3.1956410    -0.8285950    -0.4638730
  H       -3.1827690    -0.0002330     0.9749950
  H        0.8779320     3.3605910    -0.3276200
  H        1.8358100     2.7495590     1.0289260
  H        2.3762850     2.4675780    -0.6290150
  H        2.3762540    -2.4675350    -0.6292720
  H        0.8780380    -3.3605930    -0.3273260
  H        1.8362550    -2.7492930     1.0288600
units angstrom
no_reorient  #important for SAPT in psi4, default
symmetry c1  #important for SAPT in psi4, default
}

set PROPERTIES_ORIGIN ["COM"]
properties('MP2/aug-cc-pvtz', properties = ['dipole'])
--------------------------------------------------------------------------

    Molecular point group: c1
  Charge       = 1
  Multiplicity = 1
  Basis Set: AUG-CC-PVTZ
    Blend: AUG-CC-PVTZ
  Basis Set: (AUG-CC-PVTZ AUX)
    Blend: AUG-CC-PVTZ-JKFIT

    Orbital Energies [Eh]
    ---------------------

    Doubly Occupied:

       1A    -15.888845     2A    -11.458594     3A    -11.409955
       4A    -11.399739     5A    -11.388849     6A    -11.365955
       7A    -11.360464     8A    -11.352688     9A    -11.340863
      10A     -1.502653    11A     -1.324469    12A     -1.218529
      13A     -1.179269    14A     -1.086969    15A     -1.072544
      16A     -0.989196    17A     -0.965601    18A     -0.949754
      19A     -0.911821    20A     -0.856747    21A     -0.806419
      22A     -0.799088    23A     -0.724849    24A     -0.716711
      25A     -0.716322    26A     -0.692872    27A     -0.675129
      28A     -0.657989    29A     -0.653163    30A     -0.637950
      31A     -0.587330    32A     -0.514258    33A     -0.466348

  @DF-RHF Final Energy:  -364.23251624874189

   => Energetics <=

    Nuclear Repulsion Energy =            434.2938109964903788
    One-Electron Energy =               -1341.7087866020744968
    Two-Electron Energy =                 543.1824593568422870
    Total Energy =                       -364.2325162487418311
  Basis Set: (AUG-CC-PVTZ AUX)
    Blend: AUG-CC-PVTZ-RI
    Molecular point group: c1

    Geometry (in Angstrom), charge = 1, multiplicity = 1:

       Center              X                  Y                   Z               Mass
    ------------   -----------------  -----------------  -----------------  -----------------
         N           -2.799090693239    -0.017338227114     0.014339731232    14.003074004430
         C           -1.308658693239    -0.017294227114    -0.013697268768    12.000000000000
         C            0.742782306761     1.213015772886    -0.011815268768    12.000000000000
         C            0.742848306761    -1.247491227114    -0.011807268768    12.000000000000
         C           -0.657849693239    -1.243691227114    -0.005819268768    12.000000000000
         C           -0.657918693239     1.209136772886    -0.005826268768    12.000000000000
         C            1.317875406761     0.158372372886    -0.009931868768    12.000000000000
         C            1.508999306761     2.508065772886     0.014601731232    12.000000000000
         C            1.509148306761    -2.542492227114     0.014597731232    12.000000000000
         H           -1.209449693239    -2.183222227114    -0.012680268768     1.007825032230
         H           -1.209568693239     2.148638772886    -0.012692268768     1.007825032230
         H            2.502681306761    -0.017189227114    -0.022848268768     1.007825032230
         H           -3.180951693239     0.811298772886    -0.462455268768     1.007825032230
         H           -3.180910693239    -0.845852227114    -0.462702268768     1.007825032230
         H           -3.168038693239    -0.017490227114     0.976165731232     1.007825032230
         H            0.892662306761     3.343333772886    -0.326449268768     1.007825032230
         H            1.850540306761     2.732301772886     1.030096731232     1.007825032230
         H            2.391015306761     2.450320772886    -0.627844268768     1.007825032230
         H            2.390984306761    -2.484792227114    -0.628101268768     1.007825032230
         H            0.892768306761    -3.377850227114    -0.326155268768     1.007825032230
         H            1.850985306761    -2.766550227114     1.030030731232     1.007825032230

  Basis Set: AUG-CC-PVTZ
    Blend: AUG-CC-PVTZ
  Basis Set: (AUG-CC-PVTZ AUX)
    Blend: AUG-CC-PVTZ-JKFIT
	 Reference Energy          =    -364.2325162487418879 [Eh]
	 Singles Energy            =      -0.0000000000000000 [Eh]
	 Same-Spin Energy          =      -0.3968138759733530 [Eh]
	 Opposite-Spin Energy      =      -1.3068148657277063 [Eh]
	 Correlation Energy        =      -1.7036287417010594 [Eh]
	 Total Energy              =    -365.9361449904429264 [Eh]

	 ================> DF-SCS-MP2 Energies <==================
	-----------------------------------------------------------
	 SCS Same-Spin Scale       =       0.3333333333333333 [-]
	 SCS Opposite-Spin Scale   =       1.2000000000000000 [-]
	 SCS Same-Spin Energy      =      -0.1322712919911176 [Eh]
	 SCS Opposite-Spin Energy  =      -1.5681778388732475 [Eh]
	 SCS Correlation Energy    =      -1.7004491308643652 [Eh]
	 SCS Total Energy          =    -365.9329653796062303 [Eh]
	-----------------------------------------------------------

  Dipole Moment: [D]
     X:    -8.4487      Y:    -0.3520      Z:     0.1692     Total:     8.4577

*** Psi4 exiting successfully. Buy a developer a beer!
