                               Psi4 1.4a3.dev225

  ==> Input File <==

--------------------------------------------------------------------------
#psi4
#
memory 32 gb

molecule  {
1 1
  N       -2.8138210    -0.0000810     0.0131690
  C       -1.3233890    -0.0000370    -0.0148680
  C        0.7280520     1.2302730    -0.0129860
  C        0.7281180    -1.2302340    -0.0129780
  C       -0.7157740    -1.2484015    -0.0075126
  C       -0.6726490     1.2263940    -0.0069970
  C        1.3988940     0.0000390    -0.0107890
  C        1.4942690     2.5253230     0.0134310
  C        1.4944180    -2.5252350     0.0134270
  H       -1.2241800    -2.1659650    -0.0138510
  H       -1.2242990     2.1658960    -0.0138630
  H        2.4879510     0.0000680    -0.0240190
  H       -3.1956820     0.8285560    -0.4636260
  H       -3.1956410    -0.8285950    -0.4638730
  H       -3.1827690    -0.0002330     0.9749950
  H        0.8779320     3.3605910    -0.3276200
  H        1.8358100     2.7495590     1.0289260
  H        2.3762850     2.4675780    -0.6290150
  H        2.3762540    -2.4675350    -0.6292720
  H        0.8780380    -3.3605930    -0.3273260
  H        1.8362550    -2.7492930     1.0288600
units angstrom
no_reorient  #important for SAPT in psi4, default
symmetry c1  #important for SAPT in psi4, default
}

set PROPERTIES_ORIGIN ["COM"]
properties('MP2/aug-cc-pvtz', properties = ['dipole'])
--------------------------------------------------------------------------

    Molecular point group: c1
  Charge       = 1
  Multiplicity = 1
  Basis Set: AUG-CC-PVTZ
    Blend: AUG-CC-PVTZ
  Basis Set: (AUG-CC-PVTZ AUX)
    Blend: AUG-CC-PVTZ-JKFIT

    Orbital Energies [Eh]
    ---------------------

    Doubly Occupied:

       1A    -15.886605     2A    -11.460567     3A    -11.400345
       4A    -11.396536     5A    -11.394758     6A    -11.392552
       7A    -11.370908     8A    -11.345649     9A    -11.345211
      10A     -1.501729    11A     -1.305591    12A     -1.202504
      13A     -1.182462    14A     -1.085293    15A     -1.070623
      16A     -0.986712    17A     -0.963885    18A     -0.948426
      19A     -0.908717    20A     -0.857439    21A     -0.821387
      22A     -0.792735    23A     -0.731225    24A     -0.716107
      25A     -0.709946    26A     -0.690468    27A     -0.679796
      28A     -0.657039    29A     -0.637537    30A     -0.633309
      31A     -0.630606    32A     -0.487907    33A     -0.471185

  @DF-RHF Final Energy:  -364.29088339274904

   => Energetics <=

    Nuclear Repulsion Energy =            431.6800357292669901
    One-Electron Energy =               -1336.6103197059264858
    Two-Electron Energy =                 540.6394005839104011
    Total Energy =                       -364.2908833927490377
  Basis Set: (AUG-CC-PVTZ AUX)
    Blend: AUG-CC-PVTZ-RI
    Molecular point group: c1

    Geometry (in Angstrom), charge = 1, multiplicity = 1:

       Center              X                  Y                   Z               Mass
    ------------   -----------------  -----------------  -----------------  -----------------
         N           -2.804255921969     0.002078283506     0.014360272281    14.003074004430
         C           -1.313823921969     0.002122283506    -0.013676727719    12.000000000000
         C            0.737617078031     1.232432283506    -0.011794727719    12.000000000000
         C            0.737683078031    -1.228074716494    -0.011786727719    12.000000000000
         C           -0.706208921969    -1.246242216494    -0.006321327719    12.000000000000
         C           -0.663083921969     1.228553283506    -0.005805727719    12.000000000000
         C            1.408459078031     0.002198283506    -0.009597727719    12.000000000000
         C            1.503834078031     2.527482283506     0.014622272281    12.000000000000
         C            1.503983078031    -2.523075716494     0.014618272281    12.000000000000
         H           -1.214614921969    -2.163805716494    -0.012659727719     1.007825032230
         H           -1.214733921969     2.168055283506    -0.012671727719     1.007825032230
         H            2.497516078031     0.002227283506    -0.022827727719     1.007825032230
         H           -3.186116921969     0.830715283506    -0.462434727719     1.007825032230
         H           -3.186075921969    -0.826435716494    -0.462681727719     1.007825032230
         H           -3.173203921969     0.001926283506     0.976186272281     1.007825032230
         H            0.887497078031     3.362750283506    -0.326428727719     1.007825032230
         H            1.845375078031     2.751718283506     1.030117272281     1.007825032230
         H            2.385850078031     2.469737283506    -0.627823727719     1.007825032230
         H            2.385819078031    -2.465375716494    -0.628080727719     1.007825032230
         H            0.887603078031    -3.358433716494    -0.326134727719     1.007825032230
         H            1.845820078031    -2.747133716494     1.030051272281     1.007825032230

  Basis Set: AUG-CC-PVTZ
    Blend: AUG-CC-PVTZ
  Basis Set: (AUG-CC-PVTZ AUX)
    Blend: AUG-CC-PVTZ-JKFIT
	 Reference Energy          =    -364.2908833927490377 [Eh]
	 Singles Energy            =      -0.0000000000000000 [Eh]
	 Same-Spin Energy          =      -0.3971217493221655 [Eh]
	 Opposite-Spin Energy      =      -1.3055501595909758 [Eh]
	 Correlation Energy        =      -1.7026719089131412 [Eh]
	 Total Energy              =    -365.9935553016621839 [Eh]

	 ================> DF-SCS-MP2 Energies <==================
	-----------------------------------------------------------
	 SCS Same-Spin Scale       =       0.3333333333333333 [-]
	 SCS Opposite-Spin Scale   =       1.2000000000000000 [-]
	 SCS Same-Spin Energy      =      -0.1323739164407218 [Eh]
	 SCS Opposite-Spin Energy  =      -1.5666601915091709 [Eh]
	 SCS Correlation Energy    =      -1.6990341079498927 [Eh]
	 SCS Total Energy          =    -365.9899175006989367 [Eh]
	-----------------------------------------------------------

  Dipole Moment: [D]
     X:    -8.3013      Y:     0.0030      Z:     0.1715     Total:     8.3031

*** Psi4 exiting successfully. Buy a developer a beer!
