                               Psi4 1.4a3.dev225

  ==> Input File <==

--------------------------------------------------------------------------
#psi4
#
memory 32 gb

molecule  {
1 1
  N       -2.8138210    -0.0000810     0.0131690
  C       -1.3233890    -0.0000370    -0.0148680
  C        0.7280520     1.2302730    -0.0129860
  C        0.7281180    -1.2302340    -0.0129780
  C       -0.6725800    -1.2264340    -0.0069900
  C       -0.6726490     1.2263940    -0.0069970
  C        1.3988940     0.0000390    -0.0107890
  C        1.4942690     2.5253230     0.0134310
  C        1.4944180    -2.5252350     0.0134270
  H       -1.2241800    -2.1659650    -0.0138510
  H       -1.2242990     2.1658960    -0.0138630
  H        2.4879510     0.0000680    -0.0240190
  H       -3.1956820     0.8285560    -0.4636260
  H       -3.2030589    -0.8446911    -0.4731408
  H       -3.1827690    -0.0002330     0.9749950
  H        0.8779320     3.3605910    -0.3276200
  H        1.8358100     2.7495590     1.0289260
  H        2.3762850     2.4675780    -0.6290150
  H        2.3762540    -2.4675350    -0.6292720
  H        0.8780380    -3.3605930    -0.3273260
  H        1.8362550    -2.7492930     1.0288600
units angstrom
no_reorient  #important for SAPT in psi4, default
symmetry c1  #important for SAPT in psi4, default
}

set PROPERTIES_ORIGIN ["COM"]
properties('MP2/aug-cc-pvtz', properties = ['dipole'])
--------------------------------------------------------------------------

    Molecular point group: c1
  Charge       = 1
  Multiplicity = 1
  Basis Set: AUG-CC-PVTZ
    Blend: AUG-CC-PVTZ
  Basis Set: (AUG-CC-PVTZ AUX)
    Blend: AUG-CC-PVTZ-JKFIT

    Orbital Energies [Eh]
    ---------------------

    Doubly Occupied:

       1A    -15.889850     2A    -11.458738     3A    -11.394722
       4A    -11.394703     5A    -11.393384     6A    -11.393352
       7A    -11.371413     8A    -11.344919     9A    -11.344899
      10A     -1.499457    11A     -1.308890    12A     -1.204733
      13A     -1.181552    14A     -1.082824    15A     -1.070281
      16A     -0.988262    17A     -0.963636    18A     -0.947515
      19A     -0.905813    20A     -0.855547    21A     -0.820238
      22A     -0.794396    23A     -0.723993    24A     -0.715272
      25A     -0.710620    26A     -0.690260    27A     -0.679020
      28A     -0.656755    29A     -0.641018    30A     -0.634437
      31A     -0.628400    32A     -0.486255    33A     -0.474898

  @DF-RHF Final Energy:  -364.29335759851966

   => Energetics <=

    Nuclear Repulsion Energy =            432.2352576911486608
    One-Electron Energy =               -1337.7571246428556151
    Two-Electron Energy =                 541.2285093531872917
    Total Energy =                       -364.2933575985196057
  Basis Set: (AUG-CC-PVTZ AUX)
    Blend: AUG-CC-PVTZ-RI
    Molecular point group: c1

    Geometry (in Angstrom), charge = 1, multiplicity = 1:

       Center              X                  Y                   Z               Mass
    ------------   -----------------  -----------------  -----------------  -----------------
         N           -2.808439908159     0.000052123982     0.014385409029    14.003074004430
         C           -1.318007908159     0.000096123982    -0.013651590971    12.000000000000
         C            0.733433091841     1.230406123982    -0.011769590971    12.000000000000
         C            0.733499091841    -1.230100876018    -0.011761590971    12.000000000000
         C           -0.667198908159    -1.226300876018    -0.005773590971    12.000000000000
         C           -0.667267908159     1.226527123982    -0.005780590971    12.000000000000
         C            1.404275091841     0.000172123982    -0.009572590971    12.000000000000
         C            1.499650091841     2.525456123982     0.014647409029    12.000000000000
         C            1.499799091841    -2.525101876018     0.014643409029    12.000000000000
         H           -1.218798908159    -2.165831876018    -0.012634590971     1.007825032230
         H           -1.218917908159     2.166029123982    -0.012646590971     1.007825032230
         H            2.493332091841     0.000201123982    -0.022802590971     1.007825032230
         H           -3.190300908159     0.828689123982    -0.462409590971     1.007825032230
         H           -3.197677808159    -0.844557976018    -0.471924390971     1.007825032230
         H           -3.177387908159    -0.000099876018     0.976211409029     1.007825032230
         H            0.883313091841     3.360724123982    -0.326403590971     1.007825032230
         H            1.841191091841     2.749692123982     1.030142409029     1.007825032230
         H            2.381666091841     2.467711123982    -0.627798590971     1.007825032230
         H            2.381635091841    -2.467401876018    -0.628055590971     1.007825032230
         H            0.883419091841    -3.360459876018    -0.326109590971     1.007825032230
         H            1.841636091841    -2.749159876018     1.030076409029     1.007825032230

  Basis Set: AUG-CC-PVTZ
    Blend: AUG-CC-PVTZ
  Basis Set: (AUG-CC-PVTZ AUX)
    Blend: AUG-CC-PVTZ-JKFIT
	 Reference Energy          =    -364.2933575985196626 [Eh]
	 Singles Energy            =      -0.0000000000000000 [Eh]
	 Same-Spin Energy          =      -0.3972784696086708 [Eh]
	 Opposite-Spin Energy      =      -1.3056668406871794 [Eh]
	 Correlation Energy        =      -1.7029453102958503 [Eh]
	 Total Energy              =    -365.9963029088154940 [Eh]

	 ================> DF-SCS-MP2 Energies <==================
	-----------------------------------------------------------
	 SCS Same-Spin Scale       =       0.3333333333333333 [-]
	 SCS Opposite-Spin Scale   =       1.2000000000000000 [-]
	 SCS Same-Spin Energy      =      -0.1324261565362236 [Eh]
	 SCS Opposite-Spin Energy  =      -1.5668002088246153 [Eh]
	 SCS Correlation Energy    =      -1.6992263653608390 [Eh]
	 SCS Total Energy          =    -365.9925839638805201 [Eh]
	-----------------------------------------------------------

  Dipole Moment: [D]
     X:    -8.3802      Y:    -0.0210      Z:     0.1566     Total:     8.3817

*** Psi4 exiting successfully. Buy a developer a beer!
