                               Psi4 1.4a3.dev225

  ==> Input File <==

--------------------------------------------------------------------------
#psi4
#
memory 32 gb

molecule  {
1 1
  N       -2.8138210    -0.0000810     0.0131690
  C       -1.3233890    -0.0000370    -0.0148680
  C        0.7280520     1.2302730    -0.0129860
  C        0.7281180    -1.2302340    -0.0129780
  C       -0.6725800    -1.2264340    -0.0069900
  C       -0.6726490     1.2263940    -0.0069970
  C        1.3988940     0.0000390    -0.0107890
  C        1.4942690     2.5253230     0.0134310
  C        1.4944180    -2.5252350     0.0134270
  H       -1.2241800    -2.1659650    -0.0138510
  H       -1.2242990     2.1658960    -0.0138630
  H        2.4879510     0.0000680    -0.0240190
  H       -3.1956820     0.8285560    -0.4636260
  H       -3.1956410    -0.8285950    -0.4638730
  H       -3.1827690    -0.0002330     0.9749950
  H        0.8779320     3.3605910    -0.3276200
  H        1.8358100     2.7495590     1.0289260
  H        2.3762850     2.4675780    -0.6290150
  H        2.3762540    -2.4675350    -0.6292720
  H        0.8780380    -3.3605930    -0.3273260
  H        1.8425009    -2.7533869     1.0474134
units angstrom
no_reorient  #important for SAPT in psi4, default
symmetry c1  #important for SAPT in psi4, default
}

set PROPERTIES_ORIGIN ["COM"]
properties('MP2/aug-cc-pvtz', properties = ['dipole'])
--------------------------------------------------------------------------

    Molecular point group: c1
  Charge       = 1
  Multiplicity = 1
  Basis Set: AUG-CC-PVTZ
    Blend: AUG-CC-PVTZ
  Basis Set: (AUG-CC-PVTZ AUX)
    Blend: AUG-CC-PVTZ-JKFIT

    Orbital Energies [Eh]
    ---------------------

    Doubly Occupied:

       1A    -15.888730     2A    -11.458945     3A    -11.394923
       4A    -11.394849     5A    -11.393571     6A    -11.393531
       7A    -11.371577     8A    -11.347250     9A    -11.344990
      10A     -1.502571    11A     -1.309265    12A     -1.204723
      13A     -1.181978    14A     -1.082635    15A     -1.069628
      16A     -0.988817    17A     -0.965788    18A     -0.949686
      19A     -0.907644    20A     -0.855832    21A     -0.820498
      22A     -0.794889    23A     -0.724061    24A     -0.715282
      25A     -0.709612    26A     -0.688435    27A     -0.679191
      28A     -0.656786    29A     -0.641157    30A     -0.633826
      31A     -0.628530    32A     -0.486333    33A     -0.474891

  @DF-RHF Final Energy:  -364.29385664370938

   => Energetics <=

    Nuclear Repulsion Energy =            432.2518345338655195
    One-Electron Energy =               -1337.7705318069031364
    Two-Electron Energy =                 541.2248406293281278
    Total Energy =                       -364.2938566437094323
  Basis Set: (AUG-CC-PVTZ AUX)
    Blend: AUG-CC-PVTZ-RI
    Molecular point group: c1

    Geometry (in Angstrom), charge = 1, multiplicity = 1:

       Center              X                  Y                   Z               Mass
    ------------   -----------------  -----------------  -----------------  -----------------
         N           -2.808552693261    -0.000046945775     0.014155764503    14.003074004430
         C           -1.318120693261    -0.000002945775    -0.013881235497    12.000000000000
         C            0.733320306739     1.230307054225    -0.011999235497    12.000000000000
         C            0.733386306739    -1.230199945775    -0.011991235497    12.000000000000
         C           -0.667311693261    -1.226399945775    -0.006003235497    12.000000000000
         C           -0.667380693261     1.226428054225    -0.006010235497    12.000000000000
         C            1.404162306739     0.000073054225    -0.009802235497    12.000000000000
         C            1.499537306739     2.525357054225     0.014417764503    12.000000000000
         C            1.499686306739    -2.525200945775     0.014413764503    12.000000000000
         H           -1.218911693261    -2.165930945775    -0.012864235497     1.007825032230
         H           -1.219030693261     2.165930054225    -0.012876235497     1.007825032230
         H            2.493219306739     0.000102054225    -0.023032235497     1.007825032230
         H           -3.190413693261     0.828590054225    -0.462639235497     1.007825032230
         H           -3.190372693261    -0.828560945775    -0.462886235497     1.007825032230
         H           -3.177500693261    -0.000198945775     0.975981764503     1.007825032230
         H            0.883200306739     3.360625054225    -0.326633235497     1.007825032230
         H            1.841078306739     2.749593054225     1.029912764503     1.007825032230
         H            2.381553306739     2.467612054225    -0.628028235497     1.007825032230
         H            2.381522306739    -2.467500945775    -0.628285235497     1.007825032230
         H            0.883306306739    -3.360558945775    -0.326339235497     1.007825032230
         H            1.847769206739    -2.753352845775     1.048400164503     1.007825032230

  Basis Set: AUG-CC-PVTZ
    Blend: AUG-CC-PVTZ
  Basis Set: (AUG-CC-PVTZ AUX)
    Blend: AUG-CC-PVTZ-JKFIT
	 Reference Energy          =    -364.2938566437093755 [Eh]
	 Singles Energy            =      -0.0000000000000000 [Eh]
	 Same-Spin Energy          =      -0.3971607411822233 [Eh]
	 Opposite-Spin Energy      =      -1.3054370621382034 [Eh]
	 Correlation Energy        =      -1.7025978033204268 [Eh]
	 Total Energy              =    -365.9964544470298051 [Eh]

	 ================> DF-SCS-MP2 Energies <==================
	-----------------------------------------------------------
	 SCS Same-Spin Scale       =       0.3333333333333333 [-]
	 SCS Opposite-Spin Scale   =       1.2000000000000000 [-]
	 SCS Same-Spin Energy      =      -0.1323869137274078 [Eh]
	 SCS Opposite-Spin Energy  =      -1.5665244745658440 [Eh]
	 SCS Correlation Energy    =      -1.6989113882932518 [Eh]
	 SCS Total Energy          =    -365.9927680320026298 [Eh]
	-----------------------------------------------------------

  Dipole Moment: [D]
     X:    -8.3675      Y:     0.0011      Z:     0.1676     Total:     8.3692

*** Psi4 exiting successfully. Buy a developer a beer!
