                               Psi4 1.4a3.dev225

  ==> Input File <==

--------------------------------------------------------------------------
#psi4
#
memory 32 gb

molecule  {
1 1
  N       -2.8138210    -0.0000810     0.0131690
  C       -1.3233890    -0.0000370    -0.0148680
  C        0.7280520     1.2302730    -0.0129860
  C        0.7281180    -1.2302340    -0.0129780
  C       -0.6725800    -1.2264340    -0.0069900
  C       -0.6726490     1.2263940    -0.0069970
  C        1.3988940     0.0000390    -0.0107890
  C        1.4942690     2.5253230     0.0134310
  C        1.4944180    -2.5252350     0.0134270
  H       -1.2241800    -2.1659650    -0.0138510
  H       -1.3255648     2.3383594    -0.0151234
  H        2.4879510     0.0000680    -0.0240190
  H       -3.1956820     0.8285560    -0.4636260
  H       -3.1956410    -0.8285950    -0.4638730
  H       -3.1827690    -0.0002330     0.9749950
  H        0.8779320     3.3605910    -0.3276200
  H        1.8358100     2.7495590     1.0289260
  H        2.3762850     2.4675780    -0.6290150
  H        2.3762540    -2.4675350    -0.6292720
  H        0.8780380    -3.3605930    -0.3273260
  H        1.8362550    -2.7492930     1.0288600
units angstrom
no_reorient  #important for SAPT in psi4, default
symmetry c1  #important for SAPT in psi4, default
}

set PROPERTIES_ORIGIN ["COM"]
properties('MP2/aug-cc-pvtz', properties = ['dipole'])
--------------------------------------------------------------------------

    Molecular point group: c1
  Charge       = 1
  Multiplicity = 1
  Basis Set: AUG-CC-PVTZ
    Blend: AUG-CC-PVTZ
  Basis Set: (AUG-CC-PVTZ AUX)
    Blend: AUG-CC-PVTZ-JKFIT

    Orbital Energies [Eh]
    ---------------------

    Doubly Occupied:

       1A    -15.888100     2A    -11.460836     3A    -11.414262
       4A    -11.396490     5A    -11.395768     6A    -11.394581
       7A    -11.373162     8A    -11.345527     9A    -11.345070
      10A     -1.501952    11A     -1.309650    12A     -1.203336
      13A     -1.182178    14A     -1.079655    15A     -1.070077
      16A     -0.987437    17A     -0.965738    18A     -0.949031
      19A     -0.904564    20A     -0.849131    21A     -0.808830
      22A     -0.795511    23A     -0.718191    24A     -0.711403
      25A     -0.700102    26A     -0.690538    27A     -0.676163
      28A     -0.655647    29A     -0.641341    30A     -0.635630
      31A     -0.626124    32A     -0.487544    33A     -0.476016

  @DF-RHF Final Energy:  -364.27219117153686

   => Energetics <=

    Nuclear Repulsion Energy =            431.4044554198578680
    One-Electron Energy =               -1336.0741244717519294
    Two-Electron Energy =                 540.3974778803572008
    Total Energy =                       -364.2721911715368606
  Basis Set: (AUG-CC-PVTZ AUX)
    Blend: AUG-CC-PVTZ-RI
    Molecular point group: c1

    Geometry (in Angstrom), charge = 1, multiplicity = 1:

       Center              X                  Y                   Z               Mass
    ------------   -----------------  -----------------  -----------------  -----------------
         N           -2.807665259456    -0.001504302662     0.014319313549    14.003074004430
         C           -1.317233259456    -0.001460302662    -0.013717686451    12.000000000000
         C            0.734207740544     1.228849697338    -0.011835686451    12.000000000000
         C            0.734273740544    -1.231657302662    -0.011827686451    12.000000000000
         C           -0.666424259456    -1.227857302662    -0.005839686451    12.000000000000
         C           -0.666493259456     1.224970697338    -0.005846686451    12.000000000000
         C            1.405049740544    -0.001384302662    -0.009638686451    12.000000000000
         C            1.500424740544     2.523899697338     0.014581313549    12.000000000000
         C            1.500573740544    -2.526658302662     0.014577313549    12.000000000000
         H           -1.218024259456    -2.167388302662    -0.012700686451     1.007825032230
         H           -1.319409059456     2.336936097338    -0.013973086451     1.007825032230
         H            2.494106740544    -0.001355302662    -0.022868686451     1.007825032230
         H           -3.189526259456     0.827132697338    -0.462475686451     1.007825032230
         H           -3.189485259456    -0.830018302662    -0.462722686451     1.007825032230
         H           -3.176613259456    -0.001656302662     0.976145313549     1.007825032230
         H            0.884087740544     3.359167697338    -0.326469686451     1.007825032230
         H            1.841965740544     2.748135697338     1.030076313549     1.007825032230
         H            2.382440740544     2.466154697338    -0.627864686451     1.007825032230
         H            2.382409740544    -2.468958302662    -0.628121686451     1.007825032230
         H            0.884193740544    -3.362016302662    -0.326175686451     1.007825032230
         H            1.842410740544    -2.750716302662     1.030010313549     1.007825032230

  Basis Set: AUG-CC-PVTZ
    Blend: AUG-CC-PVTZ
  Basis Set: (AUG-CC-PVTZ AUX)
    Blend: AUG-CC-PVTZ-JKFIT
	 Reference Energy          =    -364.2721911715368606 [Eh]
	 Singles Energy            =      -0.0000000000000000 [Eh]
	 Same-Spin Energy          =      -0.3978124475310766 [Eh]
	 Opposite-Spin Energy      =      -1.3075622653591235 [Eh]
	 Correlation Energy        =      -1.7053747128902002 [Eh]
	 Total Energy              =    -365.9775658844270652 [Eh]

	 ================> DF-SCS-MP2 Energies <==================
	-----------------------------------------------------------
	 SCS Same-Spin Scale       =       0.3333333333333333 [-]
	 SCS Opposite-Spin Scale   =       1.2000000000000000 [-]
	 SCS Same-Spin Energy      =      -0.1326041491770255 [Eh]
	 SCS Opposite-Spin Energy  =      -1.5690747184309481 [Eh]
	 SCS Correlation Energy    =      -1.7016788676079737 [Eh]
	 SCS Total Energy          =    -365.9738700391448560 [Eh]
	-----------------------------------------------------------

  Dipole Moment: [D]
     X:    -8.3102      Y:    -0.0146      Z:     0.1728     Total:     8.3120

*** Psi4 exiting successfully. Buy a developer a beer!
