                               Psi4 1.4a3.dev225

  ==> Input File <==

--------------------------------------------------------------------------
#psi4
#
memory 32 gb

molecule  {
1 1
  N       -2.8138210    -0.0000810     0.0131690
  C       -1.3233890    -0.0000370    -0.0148680
  C        0.7457676     1.2203984    -0.0296765
  C        0.7281180    -1.2302340    -0.0129780
  C       -0.6725800    -1.2264340    -0.0069900
  C       -0.6726490     1.2263940    -0.0069970
  C        1.3988940     0.0000390    -0.0107890
  C        1.4942690     2.5253230     0.0134310
  C        1.4944180    -2.5252350     0.0134270
  H       -1.2241800    -2.1659650    -0.0138510
  H       -1.2242990     2.1658960    -0.0138630
  H        2.4879510     0.0000680    -0.0240190
  H       -3.1956820     0.8285560    -0.4636260
  H       -3.1956410    -0.8285950    -0.4638730
  H       -3.1827690    -0.0002330     0.9749950
  H        0.8779320     3.3605910    -0.3276200
  H        1.8358100     2.7495590     1.0289260
  H        2.3762850     2.4675780    -0.6290150
  H        2.3762540    -2.4675350    -0.6292720
  H        0.8780380    -3.3605930    -0.3273260
  H        1.8362550    -2.7492930     1.0288600
units angstrom
no_reorient  #important for SAPT in psi4, default
symmetry c1  #important for SAPT in psi4, default
}

set PROPERTIES_ORIGIN ["COM"]
properties('MP2/aug-cc-pvtz', properties = ['dipole'])
--------------------------------------------------------------------------

    Molecular point group: c1
  Charge       = 1
  Multiplicity = 1
  Basis Set: AUG-CC-PVTZ
    Blend: AUG-CC-PVTZ
  Basis Set: (AUG-CC-PVTZ AUX)
    Blend: AUG-CC-PVTZ-JKFIT

    Orbital Energies [Eh]
    ---------------------

    Doubly Occupied:

       1A    -15.888614     2A    -11.459029     3A    -11.395981
       4A    -11.395446     5A    -11.394332     6A    -11.392807
       7A    -11.369525     8A    -11.345228     9A    -11.344974
      10A     -1.502513    11A     -1.309096    12A     -1.203553
      13A     -1.183418    14A     -1.082680    15A     -1.071706
      16A     -0.987533    17A     -0.965712    18A     -0.949621
      19A     -0.909337    20A     -0.855268    21A     -0.820280
      22A     -0.794596    23A     -0.723281    24A     -0.717367
      25A     -0.710769    26A     -0.690258    27A     -0.679008
      28A     -0.655821    29A     -0.638333    30A     -0.634406
      31A     -0.631282    32A     -0.488998    33A     -0.472921

  @DF-RHF Final Energy:  -364.29373875802816

   => Energetics <=

    Nuclear Repulsion Energy =            432.3242202139634287
    One-Electron Energy =               -1337.9085237467213574
    Two-Electron Energy =                 541.2905647747297735
    Total Energy =                       -364.2937387580282120
  Basis Set: (AUG-CC-PVTZ AUX)
    Blend: AUG-CC-PVTZ-RI
    Molecular point group: c1

    Geometry (in Angstrom), charge = 1, multiplicity = 1:

       Center              X                  Y                   Z               Mass
    ------------   -----------------  -----------------  -----------------  -----------------
         N           -2.810242271784     0.000889762654     0.015949294458    14.003074004430
         C           -1.319810271784     0.000933762654    -0.012087705542    12.000000000000
         C            0.749346328216     1.221369162654    -0.026896205542    12.000000000000
         C            0.731696728216    -1.229263237346    -0.010197705542    12.000000000000
         C           -0.669001271784    -1.225463237346    -0.004209705542    12.000000000000
         C           -0.669070271784     1.227364762654    -0.004216705542    12.000000000000
         C            1.402472728216     0.001009762654    -0.008008705542    12.000000000000
         C            1.497847728216     2.526293762654     0.016211294458    12.000000000000
         C            1.497996728216    -2.524264237346     0.016207294458    12.000000000000
         H           -1.220601271784    -2.164994237346    -0.011070705542     1.007825032230
         H           -1.220720271784     2.166866762654    -0.011082705542     1.007825032230
         H            2.491529728216     0.001038762654    -0.021238705542     1.007825032230
         H           -3.192103271784     0.829526762654    -0.460845705542     1.007825032230
         H           -3.192062271784    -0.827624237346    -0.461092705542     1.007825032230
         H           -3.179190271784     0.000737762654     0.977775294458     1.007825032230
         H            0.881510728216     3.361561762654    -0.324839705542     1.007825032230
         H            1.839388728216     2.750529762654     1.031706294458     1.007825032230
         H            2.379863728216     2.468548762654    -0.626234705542     1.007825032230
         H            2.379832728216    -2.466564237346    -0.626491705542     1.007825032230
         H            0.881616728216    -3.359622237346    -0.324545705542     1.007825032230
         H            1.839833728216    -2.748322237346     1.031640294458     1.007825032230

  Basis Set: AUG-CC-PVTZ
    Blend: AUG-CC-PVTZ
  Basis Set: (AUG-CC-PVTZ AUX)
    Blend: AUG-CC-PVTZ-JKFIT
	 Reference Energy          =    -364.2937387580281552 [Eh]
	 Singles Energy            =      -0.0000000000000000 [Eh]
	 Same-Spin Energy          =      -0.3971475537199406 [Eh]
	 Opposite-Spin Energy      =      -1.3053277147276177 [Eh]
	 Correlation Energy        =      -1.7024752684475584 [Eh]
	 Total Energy              =    -365.9962140264757409 [Eh]

	 ================> DF-SCS-MP2 Energies <==================
	-----------------------------------------------------------
	 SCS Same-Spin Scale       =       0.3333333333333333 [-]
	 SCS Opposite-Spin Scale   =       1.2000000000000000 [-]
	 SCS Same-Spin Energy      =      -0.1323825179066469 [Eh]
	 SCS Opposite-Spin Energy  =      -1.5663932576731412 [Eh]
	 SCS Correlation Energy    =      -1.6987757755797881 [Eh]
	 SCS Total Energy          =    -365.9925145336079595 [Eh]
	-----------------------------------------------------------

  Dipole Moment: [D]
     X:    -8.3780      Y:     0.0032      Z:     0.1824     Total:     8.3800

*** Psi4 exiting successfully. Buy a developer a beer!
