                               Psi4 1.4a3.dev225

  ==> Input File <==

--------------------------------------------------------------------------
#psi4
#
memory 32 gb

molecule  {
1 1
  N       -2.8138210    -0.0000810     0.0131690
  C       -1.3233890    -0.0000370    -0.0148680
  C        0.7280520     1.2302730    -0.0129860
  C        0.7281180    -1.2302340    -0.0129780
  C       -0.6725800    -1.2264340    -0.0069900
  C       -0.6726490     1.2263940    -0.0069970
  C        1.3988940     0.0000390    -0.0107890
  C        1.4942690     2.5253230     0.0134310
  C        1.4944180    -2.5252350     0.0134270
  H       -1.2241800    -2.1659650    -0.0138510
  H       -1.2242990     2.1658960    -0.0138630
  H        2.4879510     0.0000680    -0.0240190
  H       -3.1956820     0.8285560    -0.4636260
  H       -3.1956410    -0.8285950    -0.4638730
  H       -3.1827690    -0.0002330     0.9749950
  H        0.8215239     3.4370360    -0.3588335
  H        1.8358100     2.7495590     1.0289260
  H        2.3762850     2.4675780    -0.6290150
  H        2.3762540    -2.4675350    -0.6292720
  H        0.8780380    -3.3605930    -0.3273260
  H        1.8362550    -2.7492930     1.0288600
units angstrom
no_reorient  #important for SAPT in psi4, default
symmetry c1  #important for SAPT in psi4, default
}

set PROPERTIES_ORIGIN ["COM"]
properties('MP2/aug-cc-pvtz', properties = ['dipole'])
--------------------------------------------------------------------------

    Molecular point group: c1
  Charge       = 1
  Multiplicity = 1
  Basis Set: AUG-CC-PVTZ
    Blend: AUG-CC-PVTZ
  Basis Set: (AUG-CC-PVTZ AUX)
    Blend: AUG-CC-PVTZ-JKFIT

    Orbital Energies [Eh]
    ---------------------

    Doubly Occupied:

       1A    -15.888809     2A    -11.459038     3A    -11.395533
       4A    -11.395177     5A    -11.393792     6A    -11.393770
       7A    -11.372238     8A    -11.356365     9A    -11.345245
      10A     -1.502655    11A     -1.309490    12A     -1.204351
      13A     -1.182070    14A     -1.081919    15A     -1.066402
      16A     -0.989065    17A     -0.964983    18A     -0.949763
      19A     -0.906431    20A     -0.855829    21A     -0.820784
      22A     -0.794309    23A     -0.723714    24A     -0.714878
      25A     -0.710369    26A     -0.690435    27A     -0.673183
      28A     -0.652471    29A     -0.640525    30A     -0.634473
      31A     -0.622857    32A     -0.486861    33A     -0.475106

  @DF-RHF Final Energy:  -364.28768429736027

   => Energetics <=

    Nuclear Repulsion Energy =            431.9357282668160565
    One-Electron Energy =               -1337.1410422488120275
    Two-Electron Energy =                 540.9176296846355854
    Total Energy =                       -364.2876842973603289
  Basis Set: (AUG-CC-PVTZ AUX)
    Blend: AUG-CC-PVTZ-RI
    Molecular point group: c1

    Geometry (in Angstrom), charge = 1, multiplicity = 1:

       Center              X                  Y                   Z               Mass
    ------------   -----------------  -----------------  -----------------  -----------------
         N           -2.808035528361    -0.000711738002     0.014566555416    14.003074004430
         C           -1.317603528361    -0.000667738002    -0.013470444584    12.000000000000
         C            0.733837471639     1.229642261998    -0.011588444584    12.000000000000
         C            0.733903471639    -1.230864738002    -0.011580444584    12.000000000000
         C           -0.666794528361    -1.227064738002    -0.005592444584    12.000000000000
         C           -0.666863528361     1.225763261998    -0.005599444584    12.000000000000
         C            1.404679471639    -0.000591738002    -0.009391444584    12.000000000000
         C            1.500054471639     2.524692261998     0.014828555416    12.000000000000
         C            1.500203471639    -2.525865738002     0.014824555416    12.000000000000
         H           -1.218394528361    -2.166595738002    -0.012453444584     1.007825032230
         H           -1.218513528361     2.165265261998    -0.012465444584     1.007825032230
         H            2.493736471639    -0.000562738002    -0.022621444584     1.007825032230
         H           -3.189896528361     0.827925261998    -0.462228444584     1.007825032230
         H           -3.189855528361    -0.829225738002    -0.462475444584     1.007825032230
         H           -3.176983528361    -0.000863738002     0.976392555416     1.007825032230
         H            0.827309371639     3.436405261998    -0.357435944584     1.007825032230
         H            1.841595471639     2.748928261998     1.030323555416     1.007825032230
         H            2.382070471639     2.466947261998    -0.627617444584     1.007825032230
         H            2.382039471639    -2.468165738002    -0.627874444584     1.007825032230
         H            0.883823471639    -3.361223738002    -0.325928444584     1.007825032230
         H            1.842040471639    -2.749923738002     1.030257555416     1.007825032230

  Basis Set: AUG-CC-PVTZ
    Blend: AUG-CC-PVTZ
  Basis Set: (AUG-CC-PVTZ AUX)
    Blend: AUG-CC-PVTZ-JKFIT
	 Reference Energy          =    -364.2876842973602720 [Eh]
	 Singles Energy            =      -0.0000000000000000 [Eh]
	 Same-Spin Energy          =      -0.3971999233169412 [Eh]
	 Opposite-Spin Energy      =      -1.3061043620531128 [Eh]
	 Correlation Energy        =      -1.7033042853700540 [Eh]
	 Total Energy              =    -365.9909885827303242 [Eh]

	 ================> DF-SCS-MP2 Energies <==================
	-----------------------------------------------------------
	 SCS Same-Spin Scale       =       0.3333333333333333 [-]
	 SCS Opposite-Spin Scale   =       1.2000000000000000 [-]
	 SCS Same-Spin Energy      =      -0.1323999744389804 [Eh]
	 SCS Opposite-Spin Energy  =      -1.5673252344637352 [Eh]
	 SCS Correlation Energy    =      -1.6997252089027155 [Eh]
	 SCS Total Energy          =    -365.9874095062629635 [Eh]
	-----------------------------------------------------------

  Dipole Moment: [D]
     X:    -8.3535      Y:    -0.0431      Z:     0.1796     Total:     8.3556

*** Psi4 exiting successfully. Buy a developer a beer!
