                               Psi4 1.4a3.dev225

  ==> Input File <==

--------------------------------------------------------------------------
#psi4
#
memory 32 gb

molecule  {
1 1
  N       -2.8138210    -0.0000810     0.0131690
  C       -1.3233890    -0.0000370    -0.0148680
  C        0.7280520     1.2302730    -0.0129860
  C        0.7281180    -1.2302340    -0.0129780
  C       -0.6725800    -1.2264340    -0.0069900
  C       -0.6726490     1.2263940    -0.0069970
  C        1.3988940     0.0000390    -0.0107890
  C        1.4942690     2.5253230     0.0134310
  C        1.4944180    -2.5252350     0.0134270
  H       -1.2241800    -2.1659650    -0.0138510
  H       -1.2242990     2.1658960    -0.0138630
  H        2.4879510     0.0000680    -0.0240190
  H       -3.1956820     0.8285560    -0.4636260
  H       -3.1956410    -0.8285950    -0.4638730
  H       -3.1827690    -0.0002330     0.9749950
  H        0.8779320     3.3605910    -0.3276200
  H        1.8358100     2.7495590     1.0289260
  H        2.3762850     2.4675780    -0.6290150
  H        2.3294573    -2.4525819    -0.6876128
  H        0.8780380    -3.3605930    -0.3273260
  H        1.8362550    -2.7492930     1.0288600
units angstrom
no_reorient  #important for SAPT in psi4, default
symmetry c1  #important for SAPT in psi4, default
}

set PROPERTIES_ORIGIN ["COM"]
properties('MP2/aug-cc-pvtz', properties = ['dipole'])
--------------------------------------------------------------------------

    Molecular point group: c1
  Charge       = 1
  Multiplicity = 1
  Basis Set: AUG-CC-PVTZ
    Blend: AUG-CC-PVTZ
  Basis Set: (AUG-CC-PVTZ AUX)
    Blend: AUG-CC-PVTZ-JKFIT

    Orbital Energies [Eh]
    ---------------------

    Doubly Occupied:

       1A    -15.888618     2A    -11.458751     3A    -11.394793
       4A    -11.394380     5A    -11.393465     6A    -11.393147
       7A    -11.371456     8A    -11.345077     9A    -11.344954
      10A     -1.502466    11A     -1.309177    12A     -1.204902
      13A     -1.182086    14A     -1.083102    15A     -1.070419
      16A     -0.988691    17A     -0.965800    18A     -0.949589
      19A     -0.907607    20A     -0.855570    21A     -0.820294
      22A     -0.794486    23A     -0.723958    24A     -0.714892
      25A     -0.713480    26A     -0.693554    27A     -0.678233
      28A     -0.653804    29A     -0.638903    30A     -0.635537
      31A     -0.628585    32A     -0.486543    33A     -0.475152

  @DF-RHF Final Energy:  -364.29380795953909

   => Energetics <=

    Nuclear Repulsion Energy =            432.3951681558959876
    One-Electron Energy =               -1338.0550044436906774
    Two-Electron Energy =                 541.3660283282555383
    Total Energy =                       -364.2938079595390946
  Basis Set: (AUG-CC-PVTZ AUX)
    Blend: AUG-CC-PVTZ-RI
    Molecular point group: c1

    Geometry (in Angstrom), charge = 1, multiplicity = 1:

       Center              X                  Y                   Z               Mass
    ------------   -----------------  -----------------  -----------------  -----------------
         N           -2.808114863738    -0.000204165423     0.014790472283    14.003074004430
         C           -1.317682863738    -0.000160165423    -0.013246527717    12.000000000000
         C            0.733758136262     1.230149834577    -0.011364527717    12.000000000000
         C            0.733824136262    -1.230357165423    -0.011356527717    12.000000000000
         C           -0.666873863738    -1.226557165423    -0.005368527717    12.000000000000
         C           -0.666942863738     1.226270834577    -0.005375527717    12.000000000000
         C            1.404600136262    -0.000084165423    -0.009167527717    12.000000000000
         C            1.499975136262     2.525199834577     0.015052472283    12.000000000000
         C            1.500124136262    -2.525358165423     0.015048472283    12.000000000000
         H           -1.218473863738    -2.166088165423    -0.012229527717     1.007825032230
         H           -1.218592863738     2.165772834577    -0.012241527717     1.007825032230
         H            2.493657136262    -0.000055165423    -0.022397527717     1.007825032230
         H           -3.189975863738     0.828432834577    -0.462004527717     1.007825032230
         H           -3.189934863738    -0.828718165423    -0.462251527717     1.007825032230
         H           -3.177062863738    -0.000356165423     0.976616472283     1.007825032230
         H            0.883638136262     3.360467834577    -0.325998527717     1.007825032230
         H            1.841516136262     2.749435834577     1.030547472283     1.007825032230
         H            2.381991136262     2.467454834577    -0.627393527717     1.007825032230
         H            2.335163436262    -2.452705065423    -0.685991327717     1.007825032230
         H            0.883744136262    -3.360716165423    -0.325704527717     1.007825032230
         H            1.841961136262    -2.749416165423     1.030481472283     1.007825032230

  Basis Set: AUG-CC-PVTZ
    Blend: AUG-CC-PVTZ
  Basis Set: (AUG-CC-PVTZ AUX)
    Blend: AUG-CC-PVTZ-JKFIT
	 Reference Energy          =    -364.2938079595390946 [Eh]
	 Singles Energy            =      -0.0000000000000000 [Eh]
	 Same-Spin Energy          =      -0.3971826932947004 [Eh]
	 Opposite-Spin Energy      =      -1.3053975536517428 [Eh]
	 Correlation Energy        =      -1.7025802469464431 [Eh]
	 Total Energy              =    -365.9963882064855625 [Eh]

	 ================> DF-SCS-MP2 Energies <==================
	-----------------------------------------------------------
	 SCS Same-Spin Scale       =       0.3333333333333333 [-]
	 SCS Opposite-Spin Scale   =       1.2000000000000000 [-]
	 SCS Same-Spin Energy      =      -0.1323942310982335 [Eh]
	 SCS Opposite-Spin Energy  =      -1.5664770643820913 [Eh]
	 SCS Correlation Energy    =      -1.6988712954803247 [Eh]
	 SCS Total Energy          =    -365.9926792550194250 [Eh]
	-----------------------------------------------------------

  Dipole Moment: [D]
     X:    -8.3868      Y:    -0.0004      Z:     0.1530     Total:     8.3882

*** Psi4 exiting successfully. Buy a developer a beer!
