                               Psi4 1.4a3.dev225

  ==> Input File <==

--------------------------------------------------------------------------
#psi4
#
memory 32 gb

molecule  {
1 1
  N       -2.8138210    -0.0000810     0.0131690
  C       -1.3233890    -0.0000370    -0.0148680
  C        0.7280520     1.2302730    -0.0129860
  C        0.7281180    -1.2302340    -0.0129780
  C       -0.6725800    -1.2264340    -0.0069900
  C       -0.6726490     1.2263940    -0.0069970
  C        1.3988940     0.0000390    -0.0107890
  C        1.4942690     2.5253230     0.0134310
  C        1.5962538    -2.6973314     0.0169360
  H       -1.2241800    -2.1659650    -0.0138510
  H       -1.2242990     2.1658960    -0.0138630
  H        2.4879510     0.0000680    -0.0240190
  H       -3.1956820     0.8285560    -0.4636260
  H       -3.1956410    -0.8285950    -0.4638730
  H       -3.1827690    -0.0002330     0.9749950
  H        0.8779320     3.3605910    -0.3276200
  H        1.8358100     2.7495590     1.0289260
  H        2.3762850     2.4675780    -0.6290150
  H        2.3762540    -2.4675350    -0.6292720
  H        0.8780380    -3.3605930    -0.3273260
  H        1.8362550    -2.7492930     1.0288600
units angstrom
no_reorient  #important for SAPT in psi4, default
symmetry c1  #important for SAPT in psi4, default
}

set PROPERTIES_ORIGIN ["COM"]
properties('MP2/aug-cc-pvtz', properties = ['dipole'])
--------------------------------------------------------------------------

    Molecular point group: c1
  Charge       = 1
  Multiplicity = 1
  Basis Set: AUG-CC-PVTZ
    Blend: AUG-CC-PVTZ
  Basis Set: (AUG-CC-PVTZ AUX)
    Blend: AUG-CC-PVTZ-JKFIT

    Orbital Energies [Eh]
    ---------------------

    Doubly Occupied:

       1A    -15.887709     2A    -11.457582     3A    -11.396728
       4A    -11.393677     5A    -11.393040     6A    -11.392431
       7A    -11.370760     8A    -11.348272     9A    -11.344154
      10A     -1.501543    11A     -1.304766    12A     -1.195834
      13A     -1.173678    14A     -1.081679    15A     -1.071482
      16A     -0.987199    17A     -0.967584    18A     -0.948715
      19A     -0.906419    20A     -0.854065    21A     -0.818179
      22A     -0.790811    23A     -0.722855    24A     -0.721122
      25A     -0.705963    26A     -0.699114    27A     -0.697295
      28A     -0.659091    29A     -0.642378    30A     -0.639795
      31A     -0.585360    32A     -0.487328    33A     -0.475596

  @DF-RHF Final Energy:  -364.26762811728980

   => Energetics <=

    Nuclear Repulsion Energy =            429.1435434042336965
    One-Electron Energy =               -1331.5779300274991783
    Two-Electron Energy =                 538.1667585059756220
    Total Energy =                       -364.2676281172898598
  Basis Set: (AUG-CC-PVTZ AUX)
    Blend: AUG-CC-PVTZ-RI
    Molecular point group: c1

    Geometry (in Angstrom), charge = 1, multiplicity = 1:

       Center              X                  Y                   Z               Mass
    ------------   -----------------  -----------------  -----------------  -----------------
         N           -2.818509818175     0.016833332179     0.013964036418    14.003074004430
         C           -1.328077818175     0.016877332179    -0.014072963582    12.000000000000
         C            0.723363181825     1.247187332179    -0.012190963582    12.000000000000
         C            0.723429181825    -1.213319667821    -0.012182963582    12.000000000000
         C           -0.677268818175    -1.209519667821    -0.006194963582    12.000000000000
         C           -0.677337818175     1.243308332179    -0.006201963582    12.000000000000
         C            1.394205181825     0.016953332179    -0.009993963582    12.000000000000
         C            1.489580181825     2.542237332179     0.014226036418    12.000000000000
         C            1.591564981825    -2.680417067821     0.017731036418    12.000000000000
         H           -1.228868818175    -2.149050667821    -0.013055963582     1.007825032230
         H           -1.228987818175     2.182810332179    -0.013067963582     1.007825032230
         H            2.483262181825     0.016982332179    -0.023223963582     1.007825032230
         H           -3.200370818175     0.845470332179    -0.462830963582     1.007825032230
         H           -3.200329818175    -0.811680667821    -0.463077963582     1.007825032230
         H           -3.187457818175     0.016681332179     0.975790036418     1.007825032230
         H            0.873243181825     3.377505332179    -0.326824963582     1.007825032230
         H            1.831121181825     2.766473332179     1.029721036418     1.007825032230
         H            2.371596181825     2.484492332179    -0.628219963582     1.007825032230
         H            2.371565181825    -2.450620667821    -0.628476963582     1.007825032230
         H            0.873349181825    -3.343678667821    -0.326530963582     1.007825032230
         H            1.831566181825    -2.732378667821     1.029655036418     1.007825032230

  Basis Set: AUG-CC-PVTZ
    Blend: AUG-CC-PVTZ
  Basis Set: (AUG-CC-PVTZ AUX)
    Blend: AUG-CC-PVTZ-JKFIT
	 Reference Energy          =    -364.2676281172898030 [Eh]
	 Singles Energy            =      -0.0000000000000000 [Eh]
	 Same-Spin Energy          =      -0.3967177664756240 [Eh]
	 Opposite-Spin Energy      =      -1.3061191384139612 [Eh]
	 Correlation Energy        =      -1.7028369048895851 [Eh]
	 Total Energy              =    -365.9704650221793827 [Eh]

	 ================> DF-SCS-MP2 Energies <==================
	-----------------------------------------------------------
	 SCS Same-Spin Scale       =       0.3333333333333333 [-]
	 SCS Opposite-Spin Scale   =       1.2000000000000000 [-]
	 SCS Same-Spin Energy      =      -0.1322392554918747 [Eh]
	 SCS Opposite-Spin Energy  =      -1.5673429660967535 [Eh]
	 SCS Correlation Energy    =      -1.6995822215886280 [Eh]
	 SCS Total Energy          =    -365.9672103388784308 [Eh]
	-----------------------------------------------------------

  Dipole Moment: [D]
     X:    -8.4201      Y:     0.0831      Z:     0.1602     Total:     8.4220

*** Psi4 exiting successfully. Buy a developer a beer!
