                               Psi4 1.4a3.dev225

  ==> Input File <==

--------------------------------------------------------------------------
#psi4
#
memory 32 gb

molecule  {
1 1
  N       -2.8138210    -0.0000810     0.0131690
  C       -1.3233890    -0.0000370    -0.0148680
  C        0.7280520     1.2302730    -0.0129860
  C        0.7281180    -1.2302340    -0.0129780
  C       -0.6725800    -1.2264340    -0.0069900
  C       -0.6726490     1.2263940    -0.0069970
  C        1.3988940     0.0000390    -0.0107890
  C        1.4942690     2.5253230     0.0134310
  C        1.4944180    -2.5252350     0.0134270
  H       -1.2241800    -2.1659650    -0.0138510
  H       -1.2242990     2.1658960    -0.0138630
  H        2.4879510     0.0000680    -0.0240190
  H       -3.1956820     0.8285560    -0.4636260
  H       -3.1956410    -0.8285950    -0.4638730
  H       -3.1827690    -0.0002330     0.9749950
  H        0.8807874     3.3693071    -0.3109006
  H        1.8358100     2.7495590     1.0289260
  H        2.3762850     2.4675780    -0.6290150
  H        2.3762540    -2.4675350    -0.6292720
  H        0.8780380    -3.3605930    -0.3273260
  H        1.8362550    -2.7492930     1.0288600
units angstrom
no_reorient  #important for SAPT in psi4, default
symmetry c1  #important for SAPT in psi4, default
}

set PROPERTIES_ORIGIN ["COM"]
properties('MP2/aug-cc-pvtz', properties = ['dipole'])
--------------------------------------------------------------------------

    Molecular point group: c1
  Charge       = 1
  Multiplicity = 1
  Basis Set: AUG-CC-PVTZ
    Blend: AUG-CC-PVTZ
  Basis Set: (AUG-CC-PVTZ AUX)
    Blend: AUG-CC-PVTZ-JKFIT

    Orbital Energies [Eh]
    ---------------------

    Doubly Occupied:

       1A    -15.888708     2A    -11.458916     3A    -11.394940
       4A    -11.394854     5A    -11.393546     6A    -11.393518
       7A    -11.371607     8A    -11.344993     9A    -11.344948
      10A     -1.502550    11A     -1.309262    12A     -1.204825
      13A     -1.182071    14A     -1.083102    15A     -1.070385
      16A     -0.988882    17A     -0.966093    18A     -0.949666
      19A     -0.907894    20A     -0.856001    21A     -0.820493
      22A     -0.794849    23A     -0.724244    24A     -0.715682
      25A     -0.710357    26A     -0.689810    27A     -0.679386
      28A     -0.656744    29A     -0.641109    30A     -0.634376
      31A     -0.628997    32A     -0.486416    33A     -0.474971

  @DF-RHF Final Energy:  -364.29434793805956

   => Energetics <=

    Nuclear Repulsion Energy =            432.3226087240616380
    One-Electron Energy =               -1337.9055212929331447
    Two-Electron Energy =                 541.2885646308119476
    Total Energy =                       -364.2943479380595591
  Basis Set: (AUG-CC-PVTZ AUX)
    Blend: AUG-CC-PVTZ-RI
    Molecular point group: c1

    Geometry (in Angstrom), charge = 1, multiplicity = 1:

       Center              X                  Y                   Z               Mass
    ------------   -----------------  -----------------  -----------------  -----------------
         N           -2.808524707058    -0.000152683355     0.014170902889    14.003074004430
         C           -1.318092707058    -0.000108683355    -0.013866097111    12.000000000000
         C            0.733348292942     1.230201316645    -0.011984097111    12.000000000000
         C            0.733414292942    -1.230305683355    -0.011976097111    12.000000000000
         C           -0.667283707058    -1.226505683355    -0.005988097111    12.000000000000
         C           -0.667352707058     1.226322316645    -0.005995097111    12.000000000000
         C            1.404190292942    -0.000032683355    -0.009787097111    12.000000000000
         C            1.499565292942     2.525251316645     0.014432902889    12.000000000000
         C            1.499714292942    -2.525306683355     0.014428902889    12.000000000000
         H           -1.218883707058    -2.166036683355    -0.012849097111     1.007825032230
         H           -1.219002707058     2.165824316645    -0.012861097111     1.007825032230
         H            2.493247292942    -0.000003683355    -0.023017097111     1.007825032230
         H           -3.190385707058     0.828484316645    -0.462624097111     1.007825032230
         H           -3.190344707058    -0.828666683355    -0.462871097111     1.007825032230
         H           -3.177472707058    -0.000304683355     0.975996902889     1.007825032230
         H            0.886083692942     3.369235416645    -0.309898697111     1.007825032230
         H            1.841106292942     2.749487316645     1.029927902889     1.007825032230
         H            2.381581292942     2.467506316645    -0.628013097111     1.007825032230
         H            2.381550292942    -2.467606683355    -0.628270097111     1.007825032230
         H            0.883334292942    -3.360664683355    -0.326324097111     1.007825032230
         H            1.841551292942    -2.749364683355     1.029861902889     1.007825032230

  Basis Set: AUG-CC-PVTZ
    Blend: AUG-CC-PVTZ
  Basis Set: (AUG-CC-PVTZ AUX)
    Blend: AUG-CC-PVTZ-JKFIT
	 Reference Energy          =    -364.2943479380595591 [Eh]
	 Singles Energy            =      -0.0000000000000000 [Eh]
	 Same-Spin Energy          =      -0.3971571093394656 [Eh]
	 Opposite-Spin Energy      =      -1.3053022211701752 [Eh]
	 Correlation Energy        =      -1.7024593305096407 [Eh]
	 Total Energy              =    -365.9968072685692277 [Eh]

	 ================> DF-SCS-MP2 Energies <==================
	-----------------------------------------------------------
	 SCS Same-Spin Scale       =       0.3333333333333333 [-]
	 SCS Opposite-Spin Scale   =       1.2000000000000000 [-]
	 SCS Same-Spin Energy      =      -0.1323857031131552 [Eh]
	 SCS Opposite-Spin Energy  =      -1.5663626654042102 [Eh]
	 SCS Correlation Energy    =      -1.6987483685173654 [Eh]
	 SCS Total Energy          =    -365.9930963065769447 [Eh]
	-----------------------------------------------------------

  Dipole Moment: [D]
     X:    -8.3675      Y:     0.0037      Z:     0.1755     Total:     8.3694

*** Psi4 exiting successfully. Buy a developer a beer!
