                               Psi4 1.4a3.dev225

  ==> Input File <==

--------------------------------------------------------------------------
#psi4
#
memory 32 gb

molecule  {
1 1
  N       -2.8138210    -0.0000810     0.0131690
  C       -1.3233890    -0.0000370    -0.0148680
  C        0.7280520     1.2302730    -0.0129860
  C        0.7281180    -1.2302340    -0.0129780
  C       -0.6725800    -1.2264340    -0.0069900
  C       -0.6726490     1.2263940    -0.0069970
  C        1.3510196     0.0878343    -0.0109458
  C        1.4942690     2.5253230     0.0134310
  C        1.4944180    -2.5252350     0.0134270
  H       -1.2241800    -2.1659650    -0.0138510
  H       -1.2242990     2.1658960    -0.0138630
  H        2.4879510     0.0000680    -0.0240190
  H       -3.1956820     0.8285560    -0.4636260
  H       -3.1956410    -0.8285950    -0.4638730
  H       -3.1827690    -0.0002330     0.9749950
  H        0.8779320     3.3605910    -0.3276200
  H        1.8358100     2.7495590     1.0289260
  H        2.3762850     2.4675780    -0.6290150
  H        2.3762540    -2.4675350    -0.6292720
  H        0.8780380    -3.3605930    -0.3273260
  H        1.8362550    -2.7492930     1.0288600
units angstrom
no_reorient  #important for SAPT in psi4, default
symmetry c1  #important for SAPT in psi4, default
}

set PROPERTIES_ORIGIN ["COM"]
properties('MP2/aug-cc-pvtz', properties = ['dipole'])
--------------------------------------------------------------------------

    Molecular point group: c1
  Charge       = 1
  Multiplicity = 1
  Basis Set: AUG-CC-PVTZ
    Blend: AUG-CC-PVTZ
  Basis Set: (AUG-CC-PVTZ AUX)
    Blend: AUG-CC-PVTZ-JKFIT

    Orbital Energies [Eh]
    ---------------------

    Doubly Occupied:

       1A    -15.888613     2A    -11.458366     3A    -11.402746
       4A    -11.396744     5A    -11.391235     6A    -11.379184
       7A    -11.369256     8A    -11.349023     9A    -11.342699
      10A     -1.502424    11A     -1.314913    12A     -1.209509
      13A     -1.181390    14A     -1.084266    15A     -1.072004
      16A     -0.987232    17A     -0.967125    18A     -0.949555
      19A     -0.911435    20A     -0.856205    21A     -0.812998
      22A     -0.797150    23A     -0.723988    24A     -0.716124
      25A     -0.712815    26A     -0.691189    27A     -0.675274
      28A     -0.657008    29A     -0.646316    30A     -0.636189
      31A     -0.615458    32A     -0.497072    33A     -0.471374

  @DF-RHF Final Energy:  -364.28091412267094

   => Energetics <=

    Nuclear Repulsion Energy =            433.2101386837998120
    One-Electron Energy =               -1339.6483486858712695
    Two-Electron Energy =                 542.1572958794004080
    Total Energy =                       -364.2809141226709926
  Basis Set: (AUG-CC-PVTZ AUX)
    Blend: AUG-CC-PVTZ-RI
    Molecular point group: c1

    Geometry (in Angstrom), charge = 1, multiplicity = 1:

       Center              X                  Y                   Z               Mass
    ------------   -----------------  -----------------  -----------------  -----------------
         N           -2.803795920399    -0.008709482584     0.014324320530    14.003074004430
         C           -1.313363920399    -0.008665482584    -0.013712679470    12.000000000000
         C            0.738077079601     1.221644517416    -0.011830679470    12.000000000000
         C            0.738143079601    -1.238862482584    -0.011822679470    12.000000000000
         C           -0.662554920399    -1.235062482584    -0.005834679470    12.000000000000
         C           -0.662623920399     1.217765517416    -0.005841679470    12.000000000000
         C            1.361044679601     0.079205817416    -0.009790479470    12.000000000000
         C            1.504294079601     2.516694517416     0.014586320530    12.000000000000
         C            1.504443079601    -2.533863482584     0.014582320530    12.000000000000
         H           -1.214154920399    -2.174593482584    -0.012695679470     1.007825032230
         H           -1.214273920399     2.157267517416    -0.012707679470     1.007825032230
         H            2.497976079601    -0.008560482584    -0.022863679470     1.007825032230
         H           -3.185656920399     0.819927517416    -0.462470679470     1.007825032230
         H           -3.185615920399    -0.837223482584    -0.462717679470     1.007825032230
         H           -3.172743920399    -0.008861482584     0.976150320530     1.007825032230
         H            0.887957079601     3.351962517416    -0.326464679470     1.007825032230
         H            1.845835079601     2.740930517416     1.030081320530     1.007825032230
         H            2.386310079601     2.458949517416    -0.627859679470     1.007825032230
         H            2.386279079601    -2.476163482584    -0.628116679470     1.007825032230
         H            0.888063079601    -3.369221482584    -0.326170679470     1.007825032230
         H            1.846280079601    -2.757921482584     1.030015320530     1.007825032230

  Basis Set: AUG-CC-PVTZ
    Blend: AUG-CC-PVTZ
  Basis Set: (AUG-CC-PVTZ AUX)
    Blend: AUG-CC-PVTZ-JKFIT
	 Reference Energy          =    -364.2809141226709357 [Eh]
	 Singles Energy            =      -0.0000000000000000 [Eh]
	 Same-Spin Energy          =      -0.3970954199871208 [Eh]
	 Opposite-Spin Energy      =      -1.3056664431789817 [Eh]
	 Correlation Energy        =      -1.7027618631661026 [Eh]
	 Total Energy              =    -365.9836759858370101 [Eh]

	 ================> DF-SCS-MP2 Energies <==================
	-----------------------------------------------------------
	 SCS Same-Spin Scale       =       0.3333333333333333 [-]
	 SCS Opposite-Spin Scale   =       1.2000000000000000 [-]
	 SCS Same-Spin Energy      =      -0.1323651399957069 [Eh]
	 SCS Opposite-Spin Energy  =      -1.5667997318147779 [Eh]
	 SCS Correlation Energy    =      -1.6991648718104848 [Eh]
	 SCS Total Energy          =    -365.9800789944814028 [Eh]
	-----------------------------------------------------------

  Dipole Moment: [D]
     X:    -8.3870      Y:    -0.1784      Z:     0.1698     Total:     8.3906

*** Psi4 exiting successfully. Buy a developer a beer!
