                               Psi4 1.4a3.dev225

  ==> Input File <==

--------------------------------------------------------------------------
#psi4
#
memory 32 gb

molecule  {
1 1
  N       -2.8138210    -0.0000810     0.0131690
  C       -1.3233890    -0.0000370    -0.0148680
  C        0.7280520     1.2302730    -0.0129860
  C        0.7281180    -1.2302340    -0.0129780
  C       -0.6725800    -1.2264340    -0.0069900
  C       -0.6726490     1.2263940    -0.0069970
  C        1.3988940     0.0000390    -0.0107890
  C        1.4942690     2.5253230     0.0134310
  C        1.4944180    -2.5252350     0.0134270
  H       -1.2241800    -2.1659650    -0.0138510
  H       -1.2242990     2.1658960    -0.0138630
  H        2.4879510     0.0000680    -0.0240190
  H       -3.1956820     0.8285560    -0.4636260
  H       -3.1956410    -0.8285950    -0.4638730
  H       -3.1827690    -0.0002330     0.9749950
  H        0.8779320     3.3605910    -0.3276200
  H        1.8514111     2.7598018     1.0753123
  H        2.3762850     2.4675780    -0.6290150
  H        2.3762540    -2.4675350    -0.6292720
  H        0.8780380    -3.3605930    -0.3273260
  H        1.8362550    -2.7492930     1.0288600
units angstrom
no_reorient  #important for SAPT in psi4, default
symmetry c1  #important for SAPT in psi4, default
}

set PROPERTIES_ORIGIN ["COM"]
properties('MP2/aug-cc-pvtz', properties = ['dipole'])
--------------------------------------------------------------------------

    Molecular point group: c1
  Charge       = 1
  Multiplicity = 1
  Basis Set: AUG-CC-PVTZ
    Blend: AUG-CC-PVTZ
  Basis Set: (AUG-CC-PVTZ AUX)
    Blend: AUG-CC-PVTZ-JKFIT

    Orbital Energies [Eh]
    ---------------------

    Doubly Occupied:

       1A    -15.888768     2A    -11.458995     3A    -11.395076
       4A    -11.394888     5A    -11.393683     6A    -11.393579
       7A    -11.371641     8A    -11.350597     9A    -11.345013
      10A     -1.502608    11A     -1.309300    12A     -1.204566
      13A     -1.181874    14A     -1.082100    15A     -1.068517
      16A     -0.988758    17A     -0.965438    18A     -0.949720
      19A     -0.907425    20A     -0.855658    21A     -0.820538
      22A     -0.794941    23A     -0.724043    24A     -0.715280
      25A     -0.708263    26A     -0.685388    27A     -0.679327
      28A     -0.656651    29A     -0.641217    30A     -0.632483
      31A     -0.628528    32A     -0.486199    33A     -0.474712

  @DF-RHF Final Energy:  -364.29227293202223

   => Energetics <=

    Nuclear Repulsion Energy =            432.1270610375976275
    One-Electron Energy =               -1337.5271191385454586
    Two-Electron Energy =                 541.1077851689256022
    Total Energy =                       -364.2922729320222288
  Basis Set: (AUG-CC-PVTZ AUX)
    Blend: AUG-CC-PVTZ-RI
    Molecular point group: c1

    Geometry (in Angstrom), charge = 1, multiplicity = 1:

       Center              X                  Y                   Z               Mass
    ------------   -----------------  -----------------  -----------------  -----------------
         N           -2.808629913887    -0.000165285195     0.013926023402    14.003074004430
         C           -1.318197913887    -0.000121285195    -0.014110976598    12.000000000000
         C            0.733243086113     1.230188714805    -0.012228976598    12.000000000000
         C            0.733309086113    -1.230318285195    -0.012220976598    12.000000000000
         C           -0.667388913887    -1.226518285195    -0.006232976598    12.000000000000
         C           -0.667457913887     1.226309714805    -0.006239976598    12.000000000000
         C            1.404085086113    -0.000045285195    -0.010031976598    12.000000000000
         C            1.499460086113     2.525238714805     0.014188023402    12.000000000000
         C            1.499609086113    -2.525319285195     0.014184023402    12.000000000000
         H           -1.218988913887    -2.166049285195    -0.013093976598     1.007825032230
         H           -1.219107913887     2.165811714805    -0.013105976598     1.007825032230
         H            2.493142086113    -0.000016285195    -0.023261976598     1.007825032230
         H           -3.190490913887     0.828471714805    -0.462868976598     1.007825032230
         H           -3.190449913887    -0.828679285195    -0.463115976598     1.007825032230
         H           -3.177577913887    -0.000317285195     0.975752023402     1.007825032230
         H            0.883123086113     3.360506714805    -0.326862976598     1.007825032230
         H            1.856602186113     2.759717514805     1.076069323402     1.007825032230
         H            2.381476086113     2.467493714805    -0.628257976598     1.007825032230
         H            2.381445086113    -2.467619285195    -0.628514976598     1.007825032230
         H            0.883229086113    -3.360677285195    -0.326568976598     1.007825032230
         H            1.841446086113    -2.749377285195     1.029617023402     1.007825032230

  Basis Set: AUG-CC-PVTZ
    Blend: AUG-CC-PVTZ
  Basis Set: (AUG-CC-PVTZ AUX)
    Blend: AUG-CC-PVTZ-JKFIT
	 Reference Energy          =    -364.2922729320222288 [Eh]
	 Singles Energy            =      -0.0000000000000000 [Eh]
	 Same-Spin Energy          =      -0.3971684162220555 [Eh]
	 Opposite-Spin Energy      =      -1.3056430085127502 [Eh]
	 Correlation Energy        =      -1.7028114247348056 [Eh]
	 Total Energy              =    -365.9950843567570473 [Eh]

	 ================> DF-SCS-MP2 Energies <==================
	-----------------------------------------------------------
	 SCS Same-Spin Scale       =       0.3333333333333333 [-]
	 SCS Opposite-Spin Scale   =       1.2000000000000000 [-]
	 SCS Same-Spin Energy      =      -0.1323894720740185 [Eh]
	 SCS Opposite-Spin Energy  =      -1.5667716102153002 [Eh]
	 SCS Correlation Energy    =      -1.6991610822893186 [Eh]
	 SCS Total Energy          =    -365.9914340143115510 [Eh]
	-----------------------------------------------------------

  Dipole Moment: [D]
     X:    -8.3698      Y:    -0.0043      Z:     0.1632     Total:     8.3714

*** Psi4 exiting successfully. Buy a developer a beer!
