                               Psi4 1.4a3.dev225

  ==> Input File <==

--------------------------------------------------------------------------
#psi4
#
memory 32 gb

molecule  {
1 1
  N       -2.8138210    -0.0000810     0.0131690
  C       -1.3233890    -0.0000370    -0.0148680
  C        0.7280520     1.2302730    -0.0129860
  C        0.7281180    -1.2302340    -0.0129780
  C       -0.6725800    -1.2264340    -0.0069900
  C       -0.6726490     1.2263940    -0.0069970
  C        1.3988940     0.0000390    -0.0107890
  C        1.4942690     2.5253230     0.0134310
  C        1.4944180    -2.5252350     0.0134270
  H       -1.3254367    -2.3384338    -0.0151105
  H       -1.2242990     2.1658960    -0.0138630
  H        2.4879510     0.0000680    -0.0240190
  H       -3.1956820     0.8285560    -0.4636260
  H       -3.1956410    -0.8285950    -0.4638730
  H       -3.1827690    -0.0002330     0.9749950
  H        0.8779320     3.3605910    -0.3276200
  H        1.8358100     2.7495590     1.0289260
  H        2.3762850     2.4675780    -0.6290150
  H        2.3762540    -2.4675350    -0.6292720
  H        0.8780380    -3.3605930    -0.3273260
  H        1.8362550    -2.7492930     1.0288600
units angstrom
no_reorient  #important for SAPT in psi4, default
symmetry c1  #important for SAPT in psi4, default
}

set PROPERTIES_ORIGIN ["COM"]
properties('MP2/aug-cc-pvtz', properties = ['dipole'])
--------------------------------------------------------------------------

    Molecular point group: c1
  Charge       = 1
  Multiplicity = 1
  Basis Set: AUG-CC-PVTZ
    Blend: AUG-CC-PVTZ
  Basis Set: (AUG-CC-PVTZ AUX)
    Blend: AUG-CC-PVTZ-JKFIT

    Orbital Energies [Eh]
    ---------------------

    Doubly Occupied:

       1A    -15.888100     2A    -11.460836     3A    -11.414260
       4A    -11.396490     5A    -11.395768     6A    -11.394581
       7A    -11.373162     8A    -11.345527     9A    -11.345070
      10A     -1.501952    11A     -1.309650    12A     -1.203336
      13A     -1.182178    14A     -1.079655    15A     -1.070077
      16A     -0.987437    17A     -0.965738    18A     -0.949031
      19A     -0.904564    20A     -0.849131    21A     -0.808830
      22A     -0.795511    23A     -0.718191    24A     -0.711403
      25A     -0.700102    26A     -0.690538    27A     -0.676163
      28A     -0.655647    29A     -0.641341    30A     -0.635630
      31A     -0.626124    32A     -0.487544    33A     -0.476016

  @DF-RHF Final Energy:  -364.27219113022841

   => Energetics <=

    Nuclear Repulsion Energy =            431.4044548517168778
    One-Electron Energy =               -1336.0741242114522720
    Two-Electron Energy =                 540.3974782295069872
    Total Energy =                       -364.2721911302284070
  Basis Set: (AUG-CC-PVTZ AUX)
    Blend: AUG-CC-PVTZ-RI
    Molecular point group: c1

    Geometry (in Angstrom), charge = 1, multiplicity = 1:

       Center              X                  Y                   Z               Mass
    ------------   -----------------  -----------------  -----------------  -----------------
         N           -2.807665334571     0.001342871130     0.014319306120    14.003074004430
         C           -1.317233334571     0.001386871130    -0.013717693880    12.000000000000
         C            0.734207665429     1.231696871130    -0.011835693880    12.000000000000
         C            0.734273665429    -1.228810128870    -0.011827693880    12.000000000000
         C           -0.666424334571    -1.225010128870    -0.005839693880    12.000000000000
         C           -0.666493334571     1.227817871130    -0.005846693880    12.000000000000
         C            1.405049665429     0.001462871130    -0.009638693880    12.000000000000
         C            1.500424665429     2.526746871130     0.014581306120    12.000000000000
         C            1.500573665429    -2.523811128870     0.014577306120    12.000000000000
         H           -1.319281034571    -2.337009928870    -0.013960193880     1.007825032230
         H           -1.218143334571     2.167319871130    -0.012712693880     1.007825032230
         H            2.494106665429     0.001491871130    -0.022868693880     1.007825032230
         H           -3.189526334571     0.829979871130    -0.462475693880     1.007825032230
         H           -3.189485334571    -0.827171128870    -0.462722693880     1.007825032230
         H           -3.176613334571     0.001190871130     0.976145306120     1.007825032230
         H            0.884087665429     3.362014871130    -0.326469693880     1.007825032230
         H            1.841965665429     2.750982871130     1.030076306120     1.007825032230
         H            2.382440665429     2.469001871130    -0.627864693880     1.007825032230
         H            2.382409665429    -2.466111128870    -0.628121693880     1.007825032230
         H            0.884193665429    -3.359169128870    -0.326175693880     1.007825032230
         H            1.842410665429    -2.747869128870     1.030010306120     1.007825032230

  Basis Set: AUG-CC-PVTZ
    Blend: AUG-CC-PVTZ
  Basis Set: (AUG-CC-PVTZ AUX)
    Blend: AUG-CC-PVTZ-JKFIT
	 Reference Energy          =    -364.2721911302284070 [Eh]
	 Singles Energy            =      -0.0000000000000000 [Eh]
	 Same-Spin Energy          =      -0.3978124429539729 [Eh]
	 Opposite-Spin Energy      =      -1.3075622513456313 [Eh]
	 Correlation Energy        =      -1.7053746942996042 [Eh]
	 Total Energy              =    -365.9775658245280283 [Eh]

	 ================> DF-SCS-MP2 Energies <==================
	-----------------------------------------------------------
	 SCS Same-Spin Scale       =       0.3333333333333333 [-]
	 SCS Opposite-Spin Scale   =       1.2000000000000000 [-]
	 SCS Same-Spin Energy      =      -0.1326041476513243 [Eh]
	 SCS Opposite-Spin Energy  =      -1.5690747016147575 [Eh]
	 SCS Correlation Energy    =      -1.7016788492660817 [Eh]
	 SCS Total Energy          =    -365.9738699794945092 [Eh]
	-----------------------------------------------------------

  Dipole Moment: [D]
     X:    -8.3102      Y:     0.0141      Z:     0.1728     Total:     8.3120

*** Psi4 exiting successfully. Buy a developer a beer!
