                               Psi4 1.4a3.dev225

  ==> Input File <==

--------------------------------------------------------------------------
#psi4
#
memory 32 gb

molecule  {
1 1
  N       -2.8138210    -0.0000810     0.0131690
  C       -1.3233890    -0.0000370    -0.0148680
  C        0.7280520     1.2302730    -0.0129860
  C        0.7281180    -1.2302340    -0.0129780
  C       -0.6725800    -1.2264340    -0.0069900
  C       -0.6726490     1.2263940    -0.0069970
  C        1.3988940     0.0000390    -0.0107890
  C        1.4942690     2.5253230     0.0134310
  C        1.4944180    -2.5252350     0.0134270
  H       -1.2241800    -2.1659650    -0.0138510
  H       -1.2242990     2.1658960    -0.0138630
  H        2.4879510     0.0000680    -0.0240190
  H       -3.1956820     0.8285560    -0.4636260
  H       -3.1956410    -0.8285950    -0.4638730
  H       -3.1827690    -0.0002330     0.9749950
  H        0.8779320     3.3605910    -0.3276200
  H        1.8670122     2.7700445     1.1216987
  H        2.3762850     2.4675780    -0.6290150
  H        2.3762540    -2.4675350    -0.6292720
  H        0.8780380    -3.3605930    -0.3273260
  H        1.8362550    -2.7492930     1.0288600
units angstrom
no_reorient  #important for SAPT in psi4, default
symmetry c1  #important for SAPT in psi4, default
}

set PROPERTIES_ORIGIN ["COM"]
properties('MP2/aug-cc-pvtz', properties = ['dipole'])
--------------------------------------------------------------------------

    Molecular point group: c1
  Charge       = 1
  Multiplicity = 1
  Basis Set: AUG-CC-PVTZ
    Blend: AUG-CC-PVTZ
  Basis Set: (AUG-CC-PVTZ AUX)
    Blend: AUG-CC-PVTZ-JKFIT

    Orbital Energies [Eh]
    ---------------------

    Doubly Occupied:

       1A    -15.888845     2A    -11.459097     3A    -11.395361
       4A    -11.394974     5A    -11.393896     6A    -11.393688
       7A    -11.371782     8A    -11.356000     9A    -11.345065
      10A     -1.502686    11A     -1.309390    12A     -1.204394
      13A     -1.181762    14A     -1.081517    15A     -1.066794
      16A     -0.988704    17A     -0.964937    18A     -0.949793
      19A     -0.907134    20A     -0.855439    21A     -0.820630
      22A     -0.795064    23A     -0.724105    24A     -0.715437
      25A     -0.706776    26A     -0.680700    27A     -0.679160
      28A     -0.656359    29A     -0.641367    30A     -0.630392
      31A     -0.627715    32A     -0.485990    33A     -0.474389

  @DF-RHF Final Energy:  -364.28786009836989

   => Energetics <=

    Nuclear Repulsion Energy =            431.9282557781559717
    One-Electron Energy =               -1337.1335492050152425
    Two-Electron Energy =                 540.9174333284893237
    Total Energy =                       -364.2878600983699471
  Basis Set: (AUG-CC-PVTZ AUX)
    Blend: AUG-CC-PVTZ-RI
    Molecular point group: c1

    Geometry (in Angstrom), charge = 1, multiplicity = 1:

       Center              X                  Y                   Z               Mass
    ------------   -----------------  -----------------  -----------------  -----------------
         N           -2.808758690043    -0.000249831512     0.013543136149    14.003074004430
         C           -1.318326690043    -0.000205831512    -0.014493863851    12.000000000000
         C            0.733114309957     1.230104168488    -0.012611863851    12.000000000000
         C            0.733180309957    -1.230402831512    -0.012603863851    12.000000000000
         C           -0.667517690043    -1.226602831512    -0.006615863851    12.000000000000
         C           -0.667586690043     1.226225168488    -0.006622863851    12.000000000000
         C            1.403956309957    -0.000129831512    -0.010414863851    12.000000000000
         C            1.499331309957     2.525154168488     0.013805136149    12.000000000000
         C            1.499480309957    -2.525403831512     0.013801136149    12.000000000000
         H           -1.219117690043    -2.166133831512    -0.013476863851     1.007825032230
         H           -1.219236690043     2.165727168488    -0.013488863851     1.007825032230
         H            2.493013309957    -0.000100831512    -0.023644863851     1.007825032230
         H           -3.190619690043     0.828387168488    -0.463251863851     1.007825032230
         H           -3.190578690043    -0.828763831512    -0.463498863851     1.007825032230
         H           -3.177706690043    -0.000401831512     0.975369136149     1.007825032230
         H            0.882994309957     3.360422168488    -0.327245863851     1.007825032230
         H            1.872074509957     2.769875668488     1.122072836149     1.007825032230
         H            2.381347309957     2.467409168488    -0.628640863851     1.007825032230
         H            2.381316309957    -2.467703831512    -0.628897863851     1.007825032230
         H            0.883100309957    -3.360761831512    -0.326951863851     1.007825032230
         H            1.841317309957    -2.749461831512     1.029234136149     1.007825032230

  Basis Set: AUG-CC-PVTZ
    Blend: AUG-CC-PVTZ
  Basis Set: (AUG-CC-PVTZ AUX)
    Blend: AUG-CC-PVTZ-JKFIT
	 Reference Energy          =    -364.2878600983698902 [Eh]
	 Singles Energy            =      -0.0000000000000000 [Eh]
	 Same-Spin Energy          =      -0.3971842095533397 [Eh]
	 Opposite-Spin Energy      =      -1.3060215853360391 [Eh]
	 Correlation Energy        =      -1.7032057948893788 [Eh]
	 Total Energy              =    -365.9910658932592469 [Eh]

	 ================> DF-SCS-MP2 Energies <==================
	-----------------------------------------------------------
	 SCS Same-Spin Scale       =       0.3333333333333333 [-]
	 SCS Opposite-Spin Scale   =       1.2000000000000000 [-]
	 SCS Same-Spin Energy      =      -0.1323947365177799 [Eh]
	 SCS Opposite-Spin Energy  =      -1.5672259024032469 [Eh]
	 SCS Correlation Energy    =      -1.6996206389210267 [Eh]
	 SCS Total Energy          =    -365.9874807372909231 [Eh]
	-----------------------------------------------------------

  Dipole Moment: [D]
     X:    -8.3751      Y:    -0.0106      Z:     0.1541     Total:     8.3765

*** Psi4 exiting successfully. Buy a developer a beer!
