                               Psi4 1.4a3.dev225

  ==> Input File <==

--------------------------------------------------------------------------
#psi4
#
memory 32 gb

molecule  {
1 1
  N       -2.8138210    -0.0000810     0.0131690
  C       -1.3233890    -0.0000370    -0.0148680
  C        0.7280520     1.2302730    -0.0129860
  C        0.7281180    -1.2302340    -0.0129780
  C       -0.6725800    -1.2264340    -0.0069900
  C       -0.6726490     1.2263940    -0.0069970
  C        1.3988940     0.0000390    -0.0107890
  C        1.4942690     2.5253230     0.0134310
  C        1.4944180    -2.5252350     0.0134270
  H       -1.2241800    -2.1659650    -0.0138510
  H       -1.2242990     2.1658960    -0.0138630
  H        2.4879510     0.0000680    -0.0240190
  H       -3.1406550     0.7968239    -0.5506685
  H       -3.1956410    -0.8285950    -0.4638730
  H       -3.1827690    -0.0002330     0.9749950
  H        0.8779320     3.3605910    -0.3276200
  H        1.8358100     2.7495590     1.0289260
  H        2.3762850     2.4675780    -0.6290150
  H        2.3762540    -2.4675350    -0.6292720
  H        0.8780380    -3.3605930    -0.3273260
  H        1.8362550    -2.7492930     1.0288600
units angstrom
no_reorient  #important for SAPT in psi4, default
symmetry c1  #important for SAPT in psi4, default
}

set PROPERTIES_ORIGIN ["COM"]
properties('MP2/aug-cc-pvtz', properties = ['dipole'])
--------------------------------------------------------------------------

    Molecular point group: c1
  Charge       = 1
  Multiplicity = 1
  Basis Set: AUG-CC-PVTZ
    Blend: AUG-CC-PVTZ
  Basis Set: (AUG-CC-PVTZ AUX)
    Blend: AUG-CC-PVTZ-JKFIT

    Orbital Energies [Eh]
    ---------------------

    Doubly Occupied:

       1A    -15.888311     2A    -11.458383     3A    -11.395033
       4A    -11.394788     5A    -11.393681     6A    -11.393364
       7A    -11.371699     8A    -11.345118     9A    -11.345035
      10A     -1.502751    11A     -1.309108    12A     -1.204964
      13A     -1.181504    14A     -1.083115    15A     -1.070463
      16A     -0.987724    17A     -0.966019    18A     -0.956507
      19A     -0.905046    20A     -0.854926    21A     -0.819839
      22A     -0.794147    23A     -0.724169    24A     -0.715443
      25A     -0.710879    26A     -0.690435    27A     -0.679203
      28A     -0.656868    29A     -0.641156    30A     -0.634899
      31A     -0.628580    32A     -0.486698    33A     -0.475136

  @DF-RHF Final Energy:  -364.29314422341037

   => Energetics <=

    Nuclear Repulsion Energy =            432.4317600075000882
    One-Electron Energy =               -1338.1198235785491306
    Two-Electron Energy =                 541.3949193476387336
    Total Energy =                       -364.2931442234103088
  Basis Set: (AUG-CC-PVTZ AUX)
    Blend: AUG-CC-PVTZ-RI
    Molecular point group: c1

    Geometry (in Angstrom), charge = 1, multiplicity = 1:

       Center              X                  Y                   Z               Mass
    ------------   -----------------  -----------------  -----------------  -----------------
         N           -2.808955347085     0.000181188214     0.015027384720    14.003074004430
         C           -1.318523347085     0.000225188214    -0.013009615280    12.000000000000
         C            0.732917652915     1.230535188214    -0.011127615280    12.000000000000
         C            0.732983652915    -1.229971811786    -0.011119615280    12.000000000000
         C           -0.667714347085    -1.226171811786    -0.005131615280    12.000000000000
         C           -0.667783347085     1.226656188214    -0.005138615280    12.000000000000
         C            1.403759652915     0.000301188214    -0.008930615280    12.000000000000
         C            1.499134652915     2.525585188214     0.015289384720    12.000000000000
         C            1.499283652915    -2.524972811786     0.015285384720    12.000000000000
         H           -1.219314347085    -2.165702811786    -0.011992615280     1.007825032230
         H           -1.219433347085     2.166158188214    -0.012004615280     1.007825032230
         H            2.492816652915     0.000330188214    -0.022160615280     1.007825032230
         H           -3.135789347085     0.797086088214    -0.548810115280     1.007825032230
         H           -3.190775347085    -0.828332811786    -0.462014615280     1.007825032230
         H           -3.177903347085     0.000029188214     0.976853384720     1.007825032230
         H            0.882797652915     3.360853188214    -0.325761615280     1.007825032230
         H            1.840675652915     2.749821188214     1.030784384720     1.007825032230
         H            2.381150652915     2.467840188214    -0.627156615280     1.007825032230
         H            2.381119652915    -2.467272811786    -0.627413615280     1.007825032230
         H            0.882903652915    -3.360330811786    -0.325467615280     1.007825032230
         H            1.841120652915    -2.749030811786     1.030718384720     1.007825032230

  Basis Set: AUG-CC-PVTZ
    Blend: AUG-CC-PVTZ
  Basis Set: (AUG-CC-PVTZ AUX)
    Blend: AUG-CC-PVTZ-JKFIT
	 Reference Energy          =    -364.2931442234103656 [Eh]
	 Singles Energy            =      -0.0000000000000000 [Eh]
	 Same-Spin Energy          =      -0.3972369163703025 [Eh]
	 Opposite-Spin Energy      =      -1.3054832690809839 [Eh]
	 Correlation Energy        =      -1.7027201854512863 [Eh]
	 Total Energy              =    -365.9958644088616779 [Eh]

	 ================> DF-SCS-MP2 Energies <==================
	-----------------------------------------------------------
	 SCS Same-Spin Scale       =       0.3333333333333333 [-]
	 SCS Opposite-Spin Scale   =       1.2000000000000000 [-]
	 SCS Same-Spin Energy      =      -0.1324123054567675 [Eh]
	 SCS Opposite-Spin Energy  =      -1.5665799228971806 [Eh]
	 SCS Correlation Energy    =      -1.6989922283539480 [Eh]
	 SCS Total Energy          =    -365.9921364517643383 [Eh]
	-----------------------------------------------------------

  Dipole Moment: [D]
     X:    -8.3079      Y:    -0.0391      Z:     0.0884     Total:     8.3085

*** Psi4 exiting successfully. Buy a developer a beer!
