                               Psi4 1.4a3.dev225

  ==> Input File <==

--------------------------------------------------------------------------
#psi4
#
memory 32 gb

molecule  {
1 1
  N       -2.8138210    -0.0000810     0.0131690
  C       -1.3233890    -0.0000370    -0.0148680
  C        0.7280520     1.2302730    -0.0129860
  C        0.7281180    -1.2302340    -0.0129780
  C       -0.6725800    -1.2264340    -0.0069900
  C       -0.6726490     1.2263940    -0.0069970
  C        1.3893201    -0.0175206    -0.0108202
  C        1.4942690     2.5253230     0.0134310
  C        1.4944180    -2.5252350     0.0134270
  H       -1.2241800    -2.1659650    -0.0138510
  H       -1.2242990     2.1658960    -0.0138630
  H        2.4879510     0.0000680    -0.0240190
  H       -3.1956820     0.8285560    -0.4636260
  H       -3.1956410    -0.8285950    -0.4638730
  H       -3.1827690    -0.0002330     0.9749950
  H        0.8779320     3.3605910    -0.3276200
  H        1.8358100     2.7495590     1.0289260
  H        2.3762850     2.4675780    -0.6290150
  H        2.3762540    -2.4675350    -0.6292720
  H        0.8780380    -3.3605930    -0.3273260
  H        1.8362550    -2.7492930     1.0288600
units angstrom
no_reorient  #important for SAPT in psi4, default
symmetry c1  #important for SAPT in psi4, default
}

set PROPERTIES_ORIGIN ["COM"]
properties('MP2/aug-cc-pvtz', properties = ['dipole'])
--------------------------------------------------------------------------

    Molecular point group: c1
  Charge       = 1
  Multiplicity = 1
  Basis Set: AUG-CC-PVTZ
    Blend: AUG-CC-PVTZ
  Basis Set: (AUG-CC-PVTZ AUX)
    Blend: AUG-CC-PVTZ-JKFIT

    Orbital Energies [Eh]
    ---------------------

    Doubly Occupied:

       1A    -15.888666     2A    -11.458747     3A    -11.396276
       4A    -11.394550     5A    -11.393226     6A    -11.391543
       7A    -11.371240     8A    -11.345798     9A    -11.344519
      10A     -1.502499    11A     -1.310138    12A     -1.205340
      13A     -1.182105    14A     -1.083150    15A     -1.070861
      16A     -0.988319    17A     -0.966388    18A     -0.949621
      19A     -0.908696    20A     -0.855995    21A     -0.818918
      22A     -0.795295    23A     -0.724052    24A     -0.715525
      25A     -0.711063    26A     -0.690444    27A     -0.677953
      28A     -0.656895    29A     -0.640230    30A     -0.634888
      31A     -0.629089    32A     -0.487598    33A     -0.474830

  @DF-RHF Final Energy:  -364.29394646076958

   => Energetics <=

    Nuclear Repulsion Energy =            432.4976416844539244
    One-Electron Energy =               -1338.2542694874582594
    Two-Electron Energy =                 541.4626813422347595
    Total Energy =                       -364.2939464607695754
  Basis Set: (AUG-CC-PVTZ AUX)
    Blend: AUG-CC-PVTZ-RI
    Molecular point group: c1

    Geometry (in Angstrom), charge = 1, multiplicity = 1:

       Center              X                  Y                   Z               Mass
    ------------   -----------------  -----------------  -----------------  -----------------
         N           -2.807560190581     0.001645063926     0.014311976244    14.003074004430
         C           -1.317128190581     0.001689063926    -0.013725023756    12.000000000000
         C            0.734312809419     1.231999063926    -0.011843023756    12.000000000000
         C            0.734378809419    -1.228507936074    -0.011835023756    12.000000000000
         C           -0.666319190581    -1.224707936074    -0.005847023756    12.000000000000
         C           -0.666388190581     1.228120063926    -0.005854023756    12.000000000000
         C            1.395580909419    -0.015794536074    -0.009677223756    12.000000000000
         C            1.500529809419     2.527049063926     0.014573976244    12.000000000000
         C            1.500678809419    -2.523508936074     0.014569976244    12.000000000000
         H           -1.217919190581    -2.164238936074    -0.012708023756     1.007825032230
         H           -1.218038190581     2.167622063926    -0.012720023756     1.007825032230
         H            2.494211809419     0.001794063926    -0.022876023756     1.007825032230
         H           -3.189421190581     0.830282063926    -0.462483023756     1.007825032230
         H           -3.189380190581    -0.826868936074    -0.462730023756     1.007825032230
         H           -3.176508190581     0.001493063926     0.976137976244     1.007825032230
         H            0.884192809419     3.362317063926    -0.326477023756     1.007825032230
         H            1.842070809419     2.751285063926     1.030068976244     1.007825032230
         H            2.382545809419     2.469304063926    -0.627872023756     1.007825032230
         H            2.382514809419    -2.465808936074    -0.628129023756     1.007825032230
         H            0.884298809419    -3.358866936074    -0.326183023756     1.007825032230
         H            1.842515809419    -2.747566936074     1.030002976244     1.007825032230

  Basis Set: AUG-CC-PVTZ
    Blend: AUG-CC-PVTZ
  Basis Set: (AUG-CC-PVTZ AUX)
    Blend: AUG-CC-PVTZ-JKFIT
	 Reference Energy          =    -364.2939464607695754 [Eh]
	 Singles Energy            =      -0.0000000000000000 [Eh]
	 Same-Spin Energy          =      -0.3971721243163192 [Eh]
	 Opposite-Spin Energy      =      -1.3053134230165537 [Eh]
	 Correlation Energy        =      -1.7024855473328731 [Eh]
	 Total Energy              =    -365.9964320081024312 [Eh]

	 ================> DF-SCS-MP2 Energies <==================
	-----------------------------------------------------------
	 SCS Same-Spin Scale       =       0.3333333333333333 [-]
	 SCS Opposite-Spin Scale   =       1.2000000000000000 [-]
	 SCS Same-Spin Energy      =      -0.1323907081054397 [Eh]
	 SCS Opposite-Spin Energy  =      -1.5663761076198643 [Eh]
	 SCS Correlation Energy    =      -1.6987668157253040 [Eh]
	 SCS Total Energy          =    -365.9927132764948965 [Eh]
	-----------------------------------------------------------

  Dipole Moment: [D]
     X:    -8.3674      Y:     0.0347      Z:     0.1701     Total:     8.3692

*** Psi4 exiting successfully. Buy a developer a beer!
