                               Psi4 1.4a3.dev225

  ==> Input File <==

--------------------------------------------------------------------------
#psi4
#
memory 32 gb

molecule  {
1 1
  N       -2.8138210    -0.0000810     0.0131690
  C       -1.3233890    -0.0000370    -0.0148680
  C        0.7280520     1.2302730    -0.0129860
  C        0.7281180    -1.2302340    -0.0129780
  C       -0.6725800    -1.2264340    -0.0069900
  C       -0.6726490     1.2263940    -0.0069970
  C        1.3988940     0.0000390    -0.0107890
  C        1.5044515     2.5425333     0.0137821
  C        1.4944180    -2.5252350     0.0134270
  H       -1.2241800    -2.1659650    -0.0138510
  H       -1.2242990     2.1658960    -0.0138630
  H        2.4879510     0.0000680    -0.0240190
  H       -3.1956820     0.8285560    -0.4636260
  H       -3.1956410    -0.8285950    -0.4638730
  H       -3.1827690    -0.0002330     0.9749950
  H        0.8779320     3.3605910    -0.3276200
  H        1.8358100     2.7495590     1.0289260
  H        2.3762850     2.4675780    -0.6290150
  H        2.3762540    -2.4675350    -0.6292720
  H        0.8780380    -3.3605930    -0.3273260
  H        1.8362550    -2.7492930     1.0288600
units angstrom
no_reorient  #important for SAPT in psi4, default
symmetry c1  #important for SAPT in psi4, default
}

set PROPERTIES_ORIGIN ["COM"]
properties('MP2/aug-cc-pvtz', properties = ['dipole'])
--------------------------------------------------------------------------

    Molecular point group: c1
  Charge       = 1
  Multiplicity = 1
  Basis Set: AUG-CC-PVTZ
    Blend: AUG-CC-PVTZ
  Basis Set: (AUG-CC-PVTZ AUX)
    Blend: AUG-CC-PVTZ-JKFIT

    Orbital Energies [Eh]
    ---------------------

    Doubly Occupied:

       1A    -15.888650     2A    -11.458833     3A    -11.395264
       4A    -11.394768     5A    -11.393610     6A    -11.393456
       7A    -11.371523     8A    -11.344931     9A    -11.344670
      10A     -1.502490    11A     -1.308715    12A     -1.203482
      13A     -1.181299    14A     -1.082847    15A     -1.070378
      16A     -0.988730    17A     -0.966335    18A     -0.949610
      19A     -0.907750    20A     -0.855804    21A     -0.820254
      22A     -0.794412    23A     -0.723595    24A     -0.713005
      25A     -0.711128    26A     -0.691587    27A     -0.680324
      28A     -0.657779    29A     -0.641313    30A     -0.635561
      31A     -0.626430    32A     -0.486640    33A     -0.475288

  @DF-RHF Final Energy:  -364.29430828950717

   => Energetics <=

    Nuclear Repulsion Energy =            432.0015869143389864
    One-Electron Energy =               -1337.2708730164113149
    Two-Electron Energy =                 540.9749778125651574
    Total Energy =                       -364.2943082895071711
  Basis Set: (AUG-CC-PVTZ AUX)
    Blend: AUG-CC-PVTZ-RI
    Molecular point group: c1

    Geometry (in Angstrom), charge = 1, multiplicity = 1:

       Center              X                  Y                   Z               Mass
    ------------   -----------------  -----------------  -----------------  -----------------
         N           -2.809501899629    -0.001772209943     0.014274402832    14.003074004430
         C           -1.319069899629    -0.001728209943    -0.013762597168    12.000000000000
         C            0.732371100371     1.228581790057    -0.011880597168    12.000000000000
         C            0.732437100371    -1.231925209943    -0.011872597168    12.000000000000
         C           -0.668260899629    -1.228125209943    -0.005884597168    12.000000000000
         C           -0.668329899629     1.224702790057    -0.005891597168    12.000000000000
         C            1.403213100371    -0.001652209943    -0.009683597168    12.000000000000
         C            1.508770600371     2.540842090057     0.014887502832    12.000000000000
         C            1.498737100371    -2.526926209943     0.014532402832    12.000000000000
         H           -1.219860899629    -2.167656209943    -0.012745597168     1.007825032230
         H           -1.219979899629     2.164204790057    -0.012757597168     1.007825032230
         H            2.492270100371    -0.001623209943    -0.022913597168     1.007825032230
         H           -3.191362899629     0.826864790057    -0.462520597168     1.007825032230
         H           -3.191321899629    -0.830286209943    -0.462767597168     1.007825032230
         H           -3.178449899629    -0.001924209943     0.976100402832     1.007825032230
         H            0.882251100371     3.358899790057    -0.326514597168     1.007825032230
         H            1.840129100371     2.747867790057     1.030031402832     1.007825032230
         H            2.380604100371     2.465886790057    -0.627909597168     1.007825032230
         H            2.380573100371    -2.469226209943    -0.628166597168     1.007825032230
         H            0.882357100371    -3.362284209943    -0.326220597168     1.007825032230
         H            1.840574100371    -2.750984209943     1.029965402832     1.007825032230

  Basis Set: AUG-CC-PVTZ
    Blend: AUG-CC-PVTZ
  Basis Set: (AUG-CC-PVTZ AUX)
    Blend: AUG-CC-PVTZ-JKFIT
	 Reference Energy          =    -364.2943082895071711 [Eh]
	 Singles Energy            =      -0.0000000000000000 [Eh]
	 Same-Spin Energy          =      -0.3969870032541949 [Eh]
	 Opposite-Spin Energy      =      -1.3051761293761690 [Eh]
	 Correlation Energy        =      -1.7021631326303639 [Eh]
	 Total Energy              =    -365.9964714221375175 [Eh]

	 ================> DF-SCS-MP2 Energies <==================
	-----------------------------------------------------------
	 SCS Same-Spin Scale       =       0.3333333333333333 [-]
	 SCS Opposite-Spin Scale   =       1.2000000000000000 [-]
	 SCS Same-Spin Energy      =      -0.1323290010847316 [Eh]
	 SCS Opposite-Spin Energy  =      -1.5662113552514028 [Eh]
	 SCS Correlation Energy    =      -1.6985403563361343 [Eh]
	 SCS Total Energy          =    -365.9928486458433099 [Eh]
	-----------------------------------------------------------

  Dipole Moment: [D]
     X:    -8.3747      Y:    -0.0127      Z:     0.1687     Total:     8.3764

*** Psi4 exiting successfully. Buy a developer a beer!
