                               Psi4 1.4a3.dev225

  ==> Input File <==

--------------------------------------------------------------------------
#psi4
#
memory 32 gb

molecule  {
1 1
  N       -2.8138210    -0.0000810     0.0131690
  C       -1.3233890    -0.0000370    -0.0148680
  C        0.7280520     1.2302730    -0.0129860
  C        0.7281180    -1.2302340    -0.0129780
  C       -0.6725800    -1.2264340    -0.0069900
  C       -0.6726490     1.2263940    -0.0069970
  C        1.3988940     0.0000390    -0.0107890
  C        1.4942690     2.5253230     0.0134310
  C        1.4944180    -2.5252350     0.0134270
  H       -1.2241800    -2.1659650    -0.0138510
  H       -1.2242990     2.1658960    -0.0138630
  H        2.4879510     0.0000680    -0.0240190
  H       -3.2308748     0.7839260    -0.5075898
  H       -3.1956410    -0.8285950    -0.4638730
  H       -3.1827690    -0.0002330     0.9749950
  H        0.8779320     3.3605910    -0.3276200
  H        1.8358100     2.7495590     1.0289260
  H        2.3762850     2.4675780    -0.6290150
  H        2.3762540    -2.4675350    -0.6292720
  H        0.8780380    -3.3605930    -0.3273260
  H        1.8362550    -2.7492930     1.0288600
units angstrom
no_reorient  #important for SAPT in psi4, default
symmetry c1  #important for SAPT in psi4, default
}

set PROPERTIES_ORIGIN ["COM"]
properties('MP2/aug-cc-pvtz', properties = ['dipole'])
--------------------------------------------------------------------------

    Molecular point group: c1
  Charge       = 1
  Multiplicity = 1
  Basis Set: AUG-CC-PVTZ
    Blend: AUG-CC-PVTZ
  Basis Set: (AUG-CC-PVTZ AUX)
    Blend: AUG-CC-PVTZ-JKFIT

    Orbital Energies [Eh]
    ---------------------

    Doubly Occupied:

       1A    -15.888587     2A    -11.458892     3A    -11.394721
       4A    -11.394448     5A    -11.393503     6A    -11.393101
       7A    -11.371491     8A    -11.344890     9A    -11.344729
      10A     -1.502450    11A     -1.309230    12A     -1.204590
      13A     -1.182338    14A     -1.082458    15A     -1.070233
      16A     -0.989870    17A     -0.961573    18A     -0.954181
      19A     -0.904616    20A     -0.856474    21A     -0.820515
      22A     -0.794160    23A     -0.723775    24A     -0.715203
      25A     -0.710602    26A     -0.690164    27A     -0.678921
      28A     -0.656641    29A     -0.640969    30A     -0.634657
      31A     -0.628276    32A     -0.486446    33A     -0.474709

  @DF-RHF Final Energy:  -364.29379258517929

   => Energetics <=

    Nuclear Repulsion Energy =            432.2692424588524887
    One-Electron Energy =               -1337.8112482523847575
    Two-Electron Energy =                 541.2482132083530360
    Total Energy =                       -364.2937925851792897
  Basis Set: (AUG-CC-PVTZ AUX)
    Blend: AUG-CC-PVTZ-RI
    Molecular point group: c1

    Geometry (in Angstrom), charge = 1, multiplicity = 1:

       Center              X                  Y                   Z               Mass
    ------------   -----------------  -----------------  -----------------  -----------------
         N           -2.808210645808     0.000287651347     0.014671800215    14.003074004430
         C           -1.317778645808     0.000331651347    -0.013365199785    12.000000000000
         C            0.733662354192     1.230641651347    -0.011483199785    12.000000000000
         C            0.733728354192    -1.229865348653    -0.011475199785    12.000000000000
         C           -0.666969645808    -1.226065348653    -0.005487199785    12.000000000000
         C           -0.667038645808     1.226762651347    -0.005494199785    12.000000000000
         C            1.404504354192     0.000407651347    -0.009286199785    12.000000000000
         C            1.499879354192     2.525691651347     0.014933800215    12.000000000000
         C            1.500028354192    -2.524866348653     0.014929800215    12.000000000000
         H           -1.218569645808    -2.165596348653    -0.012348199785     1.007825032230
         H           -1.218688645808     2.166264651347    -0.012360199785     1.007825032230
         H            2.493561354192     0.000436651347    -0.022516199785     1.007825032230
         H           -3.225264445808     0.784294651347    -0.506086999785     1.007825032230
         H           -3.190030645808    -0.828226348653    -0.462370199785     1.007825032230
         H           -3.177158645808     0.000135651347     0.976497800215     1.007825032230
         H            0.883542354192     3.360959651347    -0.326117199785     1.007825032230
         H            1.841420354192     2.749927651347     1.030428800215     1.007825032230
         H            2.381895354192     2.467946651347    -0.627512199785     1.007825032230
         H            2.381864354192    -2.467166348653    -0.627769199785     1.007825032230
         H            0.883648354192    -3.360224348653    -0.325823199785     1.007825032230
         H            1.841865354192    -2.748924348653     1.030362800215     1.007825032230

  Basis Set: AUG-CC-PVTZ
    Blend: AUG-CC-PVTZ
  Basis Set: (AUG-CC-PVTZ AUX)
    Blend: AUG-CC-PVTZ-JKFIT
	 Reference Energy          =    -364.2937925851792897 [Eh]
	 Singles Energy            =      -0.0000000000000000 [Eh]
	 Same-Spin Energy          =      -0.3971486083215868 [Eh]
	 Opposite-Spin Energy      =      -1.3053174380416741 [Eh]
	 Correlation Energy        =      -1.7024660463632610 [Eh]
	 Total Energy              =    -365.9962586315425597 [Eh]

	 ================> DF-SCS-MP2 Energies <==================
	-----------------------------------------------------------
	 SCS Same-Spin Scale       =       0.3333333333333333 [-]
	 SCS Opposite-Spin Scale   =       1.2000000000000000 [-]
	 SCS Same-Spin Energy      =      -0.1323828694405289 [Eh]
	 SCS Opposite-Spin Energy  =      -1.5663809256500090 [Eh]
	 SCS Correlation Energy    =      -1.6987637950905379 [Eh]
	 SCS Total Energy          =    -365.9925563802698321 [Eh]
	-----------------------------------------------------------

  Dipole Moment: [D]
     X:    -8.4102      Y:    -0.0347      Z:     0.1184     Total:     8.4111

*** Psi4 exiting successfully. Buy a developer a beer!
