                               Psi4 1.4a3.dev225

  ==> Input File <==

--------------------------------------------------------------------------
#psi4
#
memory 32 gb

molecule  {
1 1
  N       -2.8138210    -0.0000810     0.0131690
  C       -1.3233890    -0.0000370    -0.0148680
  C        0.7105698     1.2405421     0.0037125
  C        0.7281180    -1.2302340    -0.0129780
  C       -0.6725800    -1.2264340    -0.0069900
  C       -0.6726490     1.2263940    -0.0069970
  C        1.3988940     0.0000390    -0.0107890
  C        1.4942690     2.5253230     0.0134310
  C        1.4944180    -2.5252350     0.0134270
  H       -1.2241800    -2.1659650    -0.0138510
  H       -1.2242990     2.1658960    -0.0138630
  H        2.4879510     0.0000680    -0.0240190
  H       -3.1956820     0.8285560    -0.4636260
  H       -3.1956410    -0.8285950    -0.4638730
  H       -3.1827690    -0.0002330     0.9749950
  H        0.8779320     3.3605910    -0.3276200
  H        1.8358100     2.7495590     1.0289260
  H        2.3762850     2.4675780    -0.6290150
  H        2.3762540    -2.4675350    -0.6292720
  H        0.8780380    -3.3605930    -0.3273260
  H        1.8362550    -2.7492930     1.0288600
units angstrom
no_reorient  #important for SAPT in psi4, default
symmetry c1  #important for SAPT in psi4, default
}

set PROPERTIES_ORIGIN ["COM"]
properties('MP2/aug-cc-pvtz', properties = ['dipole'])
--------------------------------------------------------------------------

    Molecular point group: c1
  Charge       = 1
  Multiplicity = 1
  Basis Set: AUG-CC-PVTZ
    Blend: AUG-CC-PVTZ
  Basis Set: (AUG-CC-PVTZ AUX)
    Blend: AUG-CC-PVTZ-JKFIT

    Orbital Energies [Eh]
    ---------------------

    Doubly Occupied:

       1A    -15.888788     2A    -11.458771     3A    -11.395090
       4A    -11.394502     5A    -11.393363     6A    -11.391766
       7A    -11.373552     8A    -11.345019     9A    -11.344725
      10A     -1.502572    11A     -1.309443    12A     -1.206271
      13A     -1.180683    14A     -1.083534    15A     -1.069038
      16A     -0.990357    17A     -0.966195    18A     -0.949696
      19A     -0.906221    20A     -0.856695    21A     -0.820643
      22A     -0.795002    23A     -0.724976    24A     -0.713488
      25A     -0.710655    26A     -0.690408    27A     -0.679180
      28A     -0.658344    29A     -0.643631    30A     -0.634866
      31A     -0.624991    32A     -0.483995    33A     -0.477113

  @DF-RHF Final Energy:  -364.29380759376835

   => Energetics <=

    Nuclear Repulsion Energy =            432.3430807599503396
    One-Electron Energy =               -1337.9466314604449053
    Two-Electron Energy =                 541.3097431067262733
    Total Energy =                       -364.2938075937682925
  Basis Set: (AUG-CC-PVTZ AUX)
    Blend: AUG-CC-PVTZ-RI
    Molecular point group: c1

    Geometry (in Angstrom), charge = 1, multiplicity = 1:

       Center              X                  Y                   Z               Mass
    ------------   -----------------  -----------------  -----------------  -----------------
         N           -2.806782942819    -0.001090011220     0.012667738940    14.003074004430
         C           -1.316350942819    -0.001046011220    -0.015369261060    12.000000000000
         C            0.717607857181     1.239533088780     0.003211238940    12.000000000000
         C            0.735156057181    -1.231243011220    -0.013479261060    12.000000000000
         C           -0.665541942819    -1.227443011220    -0.007491261060    12.000000000000
         C           -0.665610942819     1.225384988780    -0.007498261060    12.000000000000
         C            1.405932057181    -0.000970011220    -0.011290261060    12.000000000000
         C            1.501307057181     2.524313988780     0.012929738940    12.000000000000
         C            1.501456057181    -2.526244011220     0.012925738940    12.000000000000
         H           -1.217141942819    -2.166974011220    -0.014352261060     1.007825032230
         H           -1.217260942819     2.164886988780    -0.014364261060     1.007825032230
         H            2.494989057181    -0.000941011220    -0.024520261060     1.007825032230
         H           -3.188643942819     0.827546988780    -0.464127261060     1.007825032230
         H           -3.188602942819    -0.829604011220    -0.464374261060     1.007825032230
         H           -3.175730942819    -0.001242011220     0.974493738940     1.007825032230
         H            0.884970057181     3.359581988780    -0.328121261060     1.007825032230
         H            1.842848057181     2.748549988780     1.028424738940     1.007825032230
         H            2.383323057181     2.466568988780    -0.629516261060     1.007825032230
         H            2.383292057181    -2.468544011220    -0.629773261060     1.007825032230
         H            0.885076057181    -3.361602011220    -0.327827261060     1.007825032230
         H            1.843293057181    -2.750302011220     1.028358738940     1.007825032230

  Basis Set: AUG-CC-PVTZ
    Blend: AUG-CC-PVTZ
  Basis Set: (AUG-CC-PVTZ AUX)
    Blend: AUG-CC-PVTZ-JKFIT
	 Reference Energy          =    -364.2938075937683493 [Eh]
	 Singles Energy            =      -0.0000000000000000 [Eh]
	 Same-Spin Energy          =      -0.3971496601969530 [Eh]
	 Opposite-Spin Energy      =      -1.3053581668226362 [Eh]
	 Correlation Energy        =      -1.7025078270195890 [Eh]
	 Total Energy              =    -365.9963154207879370 [Eh]

	 ================> DF-SCS-MP2 Energies <==================
	-----------------------------------------------------------
	 SCS Same-Spin Scale       =       0.3333333333333333 [-]
	 SCS Opposite-Spin Scale   =       1.2000000000000000 [-]
	 SCS Same-Spin Energy      =      -0.1323832200656510 [Eh]
	 SCS Opposite-Spin Energy  =      -1.5664298001871633 [Eh]
	 SCS Correlation Energy    =      -1.6988130202528142 [Eh]
	 SCS Total Energy          =    -365.9926206140211775 [Eh]
	-----------------------------------------------------------

  Dipole Moment: [D]
     X:    -8.3548      Y:    -0.0042      Z:     0.1580     Total:     8.3563

*** Psi4 exiting successfully. Buy a developer a beer!
