                               Psi4 1.4a3.dev225

  ==> Input File <==

--------------------------------------------------------------------------
#psi4
#
memory 32 gb

molecule  {
1 1
  N       -2.8138210    -0.0000810     0.0131690
  C       -1.3233890    -0.0000370    -0.0148680
  C        0.7280520     1.2302730    -0.0129860
  C        0.7281180    -1.2302340    -0.0129780
  C       -0.6725800    -1.2264340    -0.0069900
  C       -0.6726490     1.2263940    -0.0069970
  C        1.3988940     0.0000390    -0.0107890
  C        1.4942690     2.5253230     0.0134310
  C        1.4944180    -2.5252350     0.0134270
  H       -1.2241800    -2.1659650    -0.0138510
  H       -1.2242990     2.1658960    -0.0138630
  H        2.4879510     0.0000680    -0.0240190
  H       -3.1956820     0.8285560    -0.4636260
  H       -3.2327303    -0.9090753    -0.5102120
  H       -3.1827690    -0.0002330     0.9749950
  H        0.8779320     3.3605910    -0.3276200
  H        1.8358100     2.7495590     1.0289260
  H        2.3762850     2.4675780    -0.6290150
  H        2.3762540    -2.4675350    -0.6292720
  H        0.8780380    -3.3605930    -0.3273260
  H        1.8362550    -2.7492930     1.0288600
units angstrom
no_reorient  #important for SAPT in psi4, default
symmetry c1  #important for SAPT in psi4, default
}

set PROPERTIES_ORIGIN ["COM"]
properties('MP2/aug-cc-pvtz', properties = ['dipole'])
--------------------------------------------------------------------------

    Molecular point group: c1
  Charge       = 1
  Multiplicity = 1
  Basis Set: AUG-CC-PVTZ
    Blend: AUG-CC-PVTZ
  Basis Set: (AUG-CC-PVTZ AUX)
    Blend: AUG-CC-PVTZ-JKFIT

    Orbital Energies [Eh]
    ---------------------

    Doubly Occupied:

       1A    -15.893683     2A    -11.458022     3A    -11.394284
       4A    -11.394209     5A    -11.392899     6A    -11.392726
       7A    -11.370895     8A    -11.344680     9A    -11.344578
      10A     -1.488651    11A     -1.307539    12A     -1.204247
      13A     -1.179690    14A     -1.081831    15A     -1.069882
      16A     -0.986365    17A     -0.957744    18A     -0.938271
      19A     -0.895306    20A     -0.853610    21A     -0.819212
      22A     -0.792208    23A     -0.723507    24A     -0.714834
      25A     -0.710193    26A     -0.689974    27A     -0.678695
      28A     -0.656309    29A     -0.640556    30A     -0.633681
      31A     -0.628020    32A     -0.485563    33A     -0.474459

  @DF-RHF Final Energy:  -364.28458651695820

   => Energetics <=

    Nuclear Repulsion Energy =            431.8521875844148781
    One-Electron Energy =               -1337.0808973228383820
    Two-Electron Energy =                 540.9441232214653610
    Total Energy =                       -364.2845865169581430
  Basis Set: (AUG-CC-PVTZ AUX)
    Blend: AUG-CC-PVTZ-RI
    Molecular point group: c1

    Geometry (in Angstrom), charge = 1, multiplicity = 1:

       Center              X                  Y                   Z               Mass
    ------------   -----------------  -----------------  -----------------  -----------------
         N           -2.808194991528     0.000583570472     0.014691405828    14.003074004430
         C           -1.317762991528     0.000627570472    -0.013345594172    12.000000000000
         C            0.733678008472     1.230937570472    -0.011463594172    12.000000000000
         C            0.733744008472    -1.229569429528    -0.011455594172    12.000000000000
         C           -0.666953991528    -1.225769429528    -0.005467594172    12.000000000000
         C           -0.667022991528     1.227058570472    -0.005474594172    12.000000000000
         C            1.404520008472     0.000703570472    -0.009266594172    12.000000000000
         C            1.499895008472     2.525987570472     0.014953405828    12.000000000000
         C            1.500044008472    -2.524570429528     0.014949405828    12.000000000000
         H           -1.218553991528    -2.165300429528    -0.012328594172     1.007825032230
         H           -1.218672991528     2.166560570472    -0.012340594172     1.007825032230
         H            2.493577008472     0.000732570472    -0.022496594172     1.007825032230
         H           -3.190055991528     0.829220570472    -0.462103594172     1.007825032230
         H           -3.227104291528    -0.908410729528    -0.508689594172     1.007825032230
         H           -3.177142991528     0.000431570472     0.976517405828     1.007825032230
         H            0.883558008472     3.361255570472    -0.326097594172     1.007825032230
         H            1.841436008472     2.750223570472     1.030448405828     1.007825032230
         H            2.381911008472     2.468242570472    -0.627492594172     1.007825032230
         H            2.381880008472    -2.466870429528    -0.627749594172     1.007825032230
         H            0.883664008472    -3.359928429528    -0.325803594172     1.007825032230
         H            1.841881008472    -2.748628429528     1.030382405828     1.007825032230

  Basis Set: AUG-CC-PVTZ
    Blend: AUG-CC-PVTZ
  Basis Set: (AUG-CC-PVTZ AUX)
    Blend: AUG-CC-PVTZ-JKFIT
	 Reference Energy          =    -364.2845865169581998 [Eh]
	 Singles Energy            =      -0.0000000000000000 [Eh]
	 Same-Spin Energy          =      -0.3977851272514123 [Eh]
	 Opposite-Spin Energy      =      -1.3071939430230746 [Eh]
	 Correlation Energy        =      -1.7049790702744869 [Eh]
	 Total Energy              =    -365.9895655872326756 [Eh]

	 ================> DF-SCS-MP2 Energies <==================
	-----------------------------------------------------------
	 SCS Same-Spin Scale       =       0.3333333333333333 [-]
	 SCS Opposite-Spin Scale   =       1.2000000000000000 [-]
	 SCS Same-Spin Energy      =      -0.1325950424171374 [Eh]
	 SCS Opposite-Spin Energy  =      -1.5686327316276893 [Eh]
	 SCS Correlation Energy    =      -1.7012277740448267 [Eh]
	 SCS Total Energy          =    -365.9858142910030097 [Eh]
	-----------------------------------------------------------

  Dipole Moment: [D]
     X:    -8.4353      Y:    -0.1068      Z:     0.1007     Total:     8.4366

*** Psi4 exiting successfully. Buy a developer a beer!
