                               Psi4 1.4a3.dev225

  ==> Input File <==

--------------------------------------------------------------------------
#psi4
#
memory 32 gb

molecule  {
1 1
  N       -2.8138210    -0.0000810     0.0131690
  C       -1.3233890    -0.0000370    -0.0148680
  C        0.7280520     1.2302730    -0.0129860
  C        0.7281180    -1.2302340    -0.0129780
  C       -0.6725800    -1.2264340    -0.0069900
  C       -0.6726490     1.2263940    -0.0069970
  C        1.3988940     0.0000390    -0.0107890
  C        1.4942690     2.5253230     0.0134310
  C        1.4944180    -2.5252350     0.0134270
  H       -1.2241800    -2.1659650    -0.0138510
  H       -1.2242990     2.1658960    -0.0138630
  H        2.4879510     0.0000680    -0.0240190
  H       -3.1956820     0.8285560    -0.4636260
  H       -3.1956410    -0.8285950    -0.4638730
  H       -3.1756061    -0.0002300     0.9563217
  H        0.8779320     3.3605910    -0.3276200
  H        1.8358100     2.7495590     1.0289260
  H        2.3762850     2.4675780    -0.6290150
  H        2.3762540    -2.4675350    -0.6292720
  H        0.8780380    -3.3605930    -0.3273260
  H        1.8362550    -2.7492930     1.0288600
units angstrom
no_reorient  #important for SAPT in psi4, default
symmetry c1  #important for SAPT in psi4, default
}

set PROPERTIES_ORIGIN ["COM"]
properties('MP2/aug-cc-pvtz', properties = ['dipole'])
--------------------------------------------------------------------------

    Molecular point group: c1
  Charge       = 1
  Multiplicity = 1
  Basis Set: AUG-CC-PVTZ
    Blend: AUG-CC-PVTZ
  Basis Set: (AUG-CC-PVTZ AUX)
    Blend: AUG-CC-PVTZ-JKFIT

    Orbital Energies [Eh]
    ---------------------

    Doubly Occupied:

       1A    -15.887485     2A    -11.459109     3A    -11.394971
       4A    -11.394960     5A    -11.393668     6A    -11.393665
       7A    -11.371678     8A    -11.345060     9A    -11.345060
      10A     -1.505791    11A     -1.309636    12A     -1.204982
      13A     -1.182623    14A     -1.083252    15A     -1.070498
      16A     -0.989624    17A     -0.966476    18A     -0.955729
      19A     -0.908136    20A     -0.856329    21A     -0.820769
      22A     -0.795046    23A     -0.724254    24A     -0.715498
      25A     -0.710860    26A     -0.690410    27A     -0.679196
      28A     -0.656966    29A     -0.641272    30A     -0.634896
      31A     -0.628601    32A     -0.486654    33A     -0.475126

  @DF-RHF Final Energy:  -364.29476644191817

   => Energetics <=

    Nuclear Repulsion Energy =            432.4444222627070644
    One-Electron Energy =               -1338.1218152204453418
    Two-Electron Energy =                 541.3826265158199931
    Total Energy =                       -364.2947664419182274
  Basis Set: (AUG-CC-PVTZ AUX)
    Blend: AUG-CC-PVTZ-RI
    Molecular point group: c1

    Geometry (in Angstrom), charge = 1, multiplicity = 1:

       Center              X                  Y                   Z               Mass
    ------------   -----------------  -----------------  -----------------  -----------------
         N           -2.808560262454    -0.000080762816     0.014463044846    14.003074004430
         C           -1.318128262454    -0.000036762816    -0.013573955154    12.000000000000
         C            0.733312737546     1.230273237184    -0.011691955154    12.000000000000
         C            0.733378737546    -1.230233762816    -0.011683955154    12.000000000000
         C           -0.667319262454    -1.226433762816    -0.005695955154    12.000000000000
         C           -0.667388262454     1.226394237184    -0.005702955154    12.000000000000
         C            1.404154737546     0.000039237184    -0.009494955154    12.000000000000
         C            1.499529737546     2.525323237184     0.014725044846    12.000000000000
         C            1.499678737546    -2.525234762816     0.014721044846    12.000000000000
         H           -1.218919262454    -2.165964762816    -0.012556955154     1.007825032230
         H           -1.219038262454     2.165896237184    -0.012568955154     1.007825032230
         H            2.493211737546     0.000068237184    -0.022724955154     1.007825032230
         H           -3.190421262454     0.828556237184    -0.462331955154     1.007825032230
         H           -3.190380262454    -0.828594762816    -0.462578955154     1.007825032230
         H           -3.170345362454    -0.000229762816     0.957615744846     1.007825032230
         H            0.883192737546     3.360591237184    -0.326325955154     1.007825032230
         H            1.841070737546     2.749559237184     1.030220044846     1.007825032230
         H            2.381545737546     2.467578237184    -0.627720955154     1.007825032230
         H            2.381514737546    -2.467534762816    -0.627977955154     1.007825032230
         H            0.883298737546    -3.360592762816    -0.326031955154     1.007825032230
         H            1.841515737546    -2.749292762816     1.030154044846     1.007825032230

  Basis Set: AUG-CC-PVTZ
    Blend: AUG-CC-PVTZ
  Basis Set: (AUG-CC-PVTZ AUX)
    Blend: AUG-CC-PVTZ-JKFIT
	 Reference Energy          =    -364.2947664419181706 [Eh]
	 Singles Energy            =      -0.0000000000000000 [Eh]
	 Same-Spin Energy          =      -0.3970469671556596 [Eh]
	 Opposite-Spin Energy      =      -1.3049889701006507 [Eh]
	 Correlation Energy        =      -1.7020359372563103 [Eh]
	 Total Energy              =    -365.9968023791744827 [Eh]

	 ================> DF-SCS-MP2 Energies <==================
	-----------------------------------------------------------
	 SCS Same-Spin Scale       =       0.3333333333333333 [-]
	 SCS Opposite-Spin Scale   =       1.2000000000000000 [-]
	 SCS Same-Spin Energy      =      -0.1323489890518865 [Eh]
	 SCS Opposite-Spin Energy  =      -1.5659867641207807 [Eh]
	 SCS Correlation Energy    =      -1.6983357531726673 [Eh]
	 SCS Total Energy          =    -365.9931021950908416 [Eh]
	-----------------------------------------------------------

  Dipole Moment: [D]
     X:    -8.3520      Y:    -0.0002      Z:     0.1423     Total:     8.3533

*** Psi4 exiting successfully. Buy a developer a beer!
