                               Psi4 1.4a3.dev225

  ==> Input File <==

--------------------------------------------------------------------------
#psi4
#
memory 32 gb

molecule  {
1 1
  N       -2.8138210    -0.0000810     0.0131690
  C       -1.3233890    -0.0000370    -0.0148680
  C        0.8002605     1.1931709    -0.0796488
  C        0.7281180    -1.2302340    -0.0129780
  C       -0.6725800    -1.2264340    -0.0069900
  C       -0.6726490     1.2263940    -0.0069970
  C        1.3988940     0.0000390    -0.0107890
  C        1.4942690     2.5253230     0.0134310
  C        1.4944180    -2.5252350     0.0134270
  H       -1.2241800    -2.1659650    -0.0138510
  H       -1.2242990     2.1658960    -0.0138630
  H        2.4879510     0.0000680    -0.0240190
  H       -3.1956820     0.8285560    -0.4636260
  H       -3.1956410    -0.8285950    -0.4638730
  H       -3.1827690    -0.0002330     0.9749950
  H        0.8779320     3.3605910    -0.3276200
  H        1.8358100     2.7495590     1.0289260
  H        2.3762850     2.4675780    -0.6290150
  H        2.3762540    -2.4675350    -0.6292720
  H        0.8780380    -3.3605930    -0.3273260
  H        1.8362550    -2.7492930     1.0288600
units angstrom
no_reorient  #important for SAPT in psi4, default
symmetry c1  #important for SAPT in psi4, default
}

set PROPERTIES_ORIGIN ["COM"]
properties('MP2/aug-cc-pvtz', properties = ['dipole'])
--------------------------------------------------------------------------

    Molecular point group: c1
  Charge       = 1
  Multiplicity = 1
  Basis Set: AUG-CC-PVTZ
    Blend: AUG-CC-PVTZ
  Basis Set: (AUG-CC-PVTZ AUX)
    Blend: AUG-CC-PVTZ-JKFIT

    Orbital Energies [Eh]
    ---------------------

    Doubly Occupied:

       1A    -15.888219     2A    -11.459138     3A    -11.401046
       4A    -11.397712     5A    -11.394556     6A    -11.390547
       7A    -11.363628     8A    -11.345947     9A    -11.345200
      10A     -1.502282    11A     -1.308873    12A     -1.200879
      13A     -1.186775    14A     -1.081539    15A     -1.075506
      16A     -0.984817    17A     -0.963404    18A     -0.949377
      19A     -0.913506    20A     -0.853386    21A     -0.819512
      22A     -0.793041    23A     -0.723866    24A     -0.720700
      25A     -0.710986    26A     -0.690078    27A     -0.678669
      28A     -0.654337    29A     -0.642102    30A     -0.633404
      31A     -0.623174    32A     -0.497198    33A     -0.467145

  @DF-RHF Final Energy:  -364.28468996084041

   => Energetics <=

    Nuclear Repulsion Energy =            432.2377844140021921
    One-Electron Energy =               -1337.7238526056266892
    Two-Electron Energy =                 541.2013782307841439
    Total Energy =                       -364.2846899608404101
  Basis Set: (AUG-CC-PVTZ AUX)
    Blend: AUG-CC-PVTZ-RI
    Molecular point group: c1

    Geometry (in Angstrom), charge = 1, multiplicity = 1:

       Center              X                  Y                   Z               Mass
    ------------   -----------------  -----------------  -----------------  -----------------
         N           -2.815597972064     0.003565750341     0.020860698717    14.003074004430
         C           -1.325165972064     0.003609750341    -0.007176301283    12.000000000000
         C            0.798483527936     1.196817650341    -0.071957101283    12.000000000000
         C            0.726341027936    -1.226587249659    -0.005286301283    12.000000000000
         C           -0.674356972064    -1.222787249659     0.000701698717    12.000000000000
         C           -0.674425972064     1.230040750341     0.000694698717    12.000000000000
         C            1.397117027936     0.003685750341    -0.003097301283    12.000000000000
         C            1.492492027936     2.528969750341     0.021122698717    12.000000000000
         C            1.492641027936    -2.521588249659     0.021118698717    12.000000000000
         H           -1.225956972064    -2.162318249659    -0.006159301283     1.007825032230
         H           -1.226075972064     2.169542750341    -0.006171301283     1.007825032230
         H            2.486174027936     0.003714750341    -0.016327301283     1.007825032230
         H           -3.197458972064     0.832202750341    -0.455934301283     1.007825032230
         H           -3.197417972064    -0.824948249659    -0.456181301283     1.007825032230
         H           -3.184545972064     0.003413750341     0.982686698717     1.007825032230
         H            0.876155027936     3.364237750341    -0.319928301283     1.007825032230
         H            1.834033027936     2.753205750341     1.036617698717     1.007825032230
         H            2.374508027936     2.471224750341    -0.621323301283     1.007825032230
         H            2.374477027936    -2.463888249659    -0.621580301283     1.007825032230
         H            0.876261027936    -3.356946249659    -0.319634301283     1.007825032230
         H            1.834478027936    -2.745646249659     1.036551698717     1.007825032230

  Basis Set: AUG-CC-PVTZ
    Blend: AUG-CC-PVTZ
  Basis Set: (AUG-CC-PVTZ AUX)
    Blend: AUG-CC-PVTZ-JKFIT
	 Reference Energy          =    -364.2846899608404101 [Eh]
	 Singles Energy            =      -0.0000000000000000 [Eh]
	 Same-Spin Energy          =      -0.3970412273530293 [Eh]
	 Opposite-Spin Energy      =      -1.3057826565234008 [Eh]
	 Correlation Energy        =      -1.7028238838764300 [Eh]
	 Total Energy              =    -365.9875138447168297 [Eh]

	 ================> DF-SCS-MP2 Energies <==================
	-----------------------------------------------------------
	 SCS Same-Spin Scale       =       0.3333333333333333 [-]
	 SCS Opposite-Spin Scale   =       1.2000000000000000 [-]
	 SCS Same-Spin Energy      =      -0.1323470757843431 [Eh]
	 SCS Opposite-Spin Energy  =      -1.5669391878280809 [Eh]
	 SCS Correlation Energy    =      -1.6992862636124240 [Eh]
	 SCS Total Energy          =    -365.9839762244528174 [Eh]
	-----------------------------------------------------------

  Dipole Moment: [D]
     X:    -8.4119      Y:     0.0102      Z:     0.2186     Total:     8.4147

*** Psi4 exiting successfully. Buy a developer a beer!
