                               Psi4 1.4a3.dev225

  ==> Input File <==

--------------------------------------------------------------------------
#psi4
#
memory 32 gb

molecule  {
1 1
  N       -2.8138210    -0.0000810     0.0131690
  C       -1.3233890    -0.0000370    -0.0148680
  C        0.7280520     1.2302730    -0.0129860
  C        0.7281180    -1.2302340    -0.0129780
  C       -0.6725800    -1.2264340    -0.0069900
  C       -0.6726490     1.2263940    -0.0069970
  C        1.3988940     0.0000390    -0.0107890
  C        1.4942690     2.5253230     0.0134310
  C        1.3925822    -2.3531386     0.0099180
  H       -1.2241800    -2.1659650    -0.0138510
  H       -1.2242990     2.1658960    -0.0138630
  H        2.4879510     0.0000680    -0.0240190
  H       -3.1956820     0.8285560    -0.4636260
  H       -3.1956410    -0.8285950    -0.4638730
  H       -3.1827690    -0.0002330     0.9749950
  H        0.8779320     3.3605910    -0.3276200
  H        1.8358100     2.7495590     1.0289260
  H        2.3762850     2.4675780    -0.6290150
  H        2.3762540    -2.4675350    -0.6292720
  H        0.8780380    -3.3605930    -0.3273260
  H        1.8362550    -2.7492930     1.0288600
units angstrom
no_reorient  #important for SAPT in psi4, default
symmetry c1  #important for SAPT in psi4, default
}

set PROPERTIES_ORIGIN ["COM"]
properties('MP2/aug-cc-pvtz', properties = ['dipole'])
--------------------------------------------------------------------------

    Molecular point group: c1
  Charge       = 1
  Multiplicity = 1
  Basis Set: AUG-CC-PVTZ
    Blend: AUG-CC-PVTZ
  Basis Set: (AUG-CC-PVTZ AUX)
    Blend: AUG-CC-PVTZ-JKFIT

    Orbital Energies [Eh]
    ---------------------

    Doubly Occupied:

       1A    -15.888828     2A    -11.459197     3A    -11.394757
       4A    -11.393470     5A    -11.393186     6A    -11.384245
       7A    -11.371202     8A    -11.353960     9A    -11.345005
      10A     -1.502677    11A     -1.318160    12A     -1.228090
      13A     -1.187148    14A     -1.087029    15A     -1.072166
      16A     -0.990290    17A     -0.961367    18A     -0.949770
      19A     -0.906476    20A     -0.856952    21A     -0.823081
      22A     -0.800269    23A     -0.754336    24A     -0.722559
      25A     -0.711399    26A     -0.683616    27A     -0.679848
      28A     -0.654191    29A     -0.647333    30A     -0.621042
      31A     -0.599682    32A     -0.484100    33A     -0.466021

  @DF-RHF Final Energy:  -364.24148204995652

   => Energetics <=

    Nuclear Repulsion Energy =            436.0215681975881807
    One-Electron Energy =               -1345.1431962463345826
    Two-Electron Energy =                 544.8801459987898852
    Total Energy =                       -364.2414820499565167
  Basis Set: (AUG-CC-PVTZ AUX)
    Blend: AUG-CC-PVTZ-RI
    Molecular point group: c1

    Geometry (in Angstrom), charge = 1, multiplicity = 1:

       Center              X                  Y                   Z               Mass
    ------------   -----------------  -----------------  -----------------  -----------------
         N           -2.798492457285    -0.016994808285     0.014653783240    14.003074004430
         C           -1.308060457285    -0.016950808285    -0.013383216760    12.000000000000
         C            0.743380542715     1.213359191715    -0.011501216760    12.000000000000
         C            0.743446542715    -1.247147808285    -0.011493216760    12.000000000000
         C           -0.657251457285    -1.243347808285    -0.005505216760    12.000000000000
         C           -0.657320457285     1.209480191715    -0.005512216760    12.000000000000
         C            1.414222542715    -0.016874808285    -0.009304216760    12.000000000000
         C            1.509597542715     2.508409191715     0.014915783240    12.000000000000
         C            1.407910742715    -2.370052408285     0.011402783240    12.000000000000
         H           -1.208851457285    -2.182878808285    -0.012366216760     1.007825032230
         H           -1.208970457285     2.148982191715    -0.012378216760     1.007825032230
         H            2.503279542715    -0.016845808285    -0.022534216760     1.007825032230
         H           -3.180353457285     0.811642191715    -0.462141216760     1.007825032230
         H           -3.180312457285    -0.845508808285    -0.462388216760     1.007825032230
         H           -3.167440457285    -0.017146808285     0.976479783240     1.007825032230
         H            0.893260542715     3.343677191715    -0.326135216760     1.007825032230
         H            1.851138542715     2.732645191715     1.030410783240     1.007825032230
         H            2.391613542715     2.450664191715    -0.627530216760     1.007825032230
         H            2.391582542715    -2.484448808285    -0.627787216760     1.007825032230
         H            0.893366542715    -3.377506808285    -0.325841216760     1.007825032230
         H            1.851583542715    -2.766206808285     1.030344783240     1.007825032230

  Basis Set: AUG-CC-PVTZ
    Blend: AUG-CC-PVTZ
  Basis Set: (AUG-CC-PVTZ AUX)
    Blend: AUG-CC-PVTZ-JKFIT
	 Reference Energy          =    -364.2414820499565167 [Eh]
	 Singles Energy            =      -0.0000000000000000 [Eh]
	 Same-Spin Energy          =      -0.4008539133292570 [Eh]
	 Opposite-Spin Energy      =      -1.3100261009597083 [Eh]
	 Correlation Energy        =      -1.7108800142889653 [Eh]
	 Total Energy              =    -365.9523620642455057 [Eh]

	 ================> DF-SCS-MP2 Energies <==================
	-----------------------------------------------------------
	 SCS Same-Spin Scale       =       0.3333333333333333 [-]
	 SCS Opposite-Spin Scale   =       1.2000000000000000 [-]
	 SCS Same-Spin Energy      =      -0.1336179711097523 [Eh]
	 SCS Opposite-Spin Energy  =      -1.5720313211516499 [Eh]
	 SCS Correlation Energy    =      -1.7056492922614022 [Eh]
	 SCS Total Energy          =    -365.9471313422179151 [Eh]
	-----------------------------------------------------------

  Dipole Moment: [D]
     X:    -8.2266      Y:    -0.2009      Z:     0.1957     Total:     8.2314

*** Psi4 exiting successfully. Buy a developer a beer!
