                               Psi4 1.4a3.dev225

  ==> Input File <==

--------------------------------------------------------------------------
#psi4
#
memory 32 gb

molecule  {
1 1
  N       -2.8138210    -0.0000810     0.0131690
  C       -1.3233890    -0.0000370    -0.0148680
  C        0.7280520     1.2302730    -0.0129860
  C        0.7281180    -1.2302340    -0.0129780
  C       -0.6725800    -1.2264340    -0.0069900
  C       -0.6726490     1.2263940    -0.0069970
  C        1.3988940     0.0000390    -0.0107890
  C        1.4942690     2.5253230     0.0134310
  C        1.4944180    -2.5252350     0.0134270
  H       -1.2241800    -2.1659650    -0.0138510
  H       -1.2242990     2.1658960    -0.0138630
  H        2.4879510     0.0000680    -0.0240190
  H       -3.1956820     0.8285560    -0.4636260
  H       -3.1956410    -0.8285950    -0.4638730
  H       -3.2006763    -0.0002404     1.0216783
  H        0.8779320     3.3605910    -0.3276200
  H        1.8358100     2.7495590     1.0289260
  H        2.3762850     2.4675780    -0.6290150
  H        2.3762540    -2.4675350    -0.6292720
  H        0.8780380    -3.3605930    -0.3273260
  H        1.8362550    -2.7492930     1.0288600
units angstrom
no_reorient  #important for SAPT in psi4, default
symmetry c1  #important for SAPT in psi4, default
}

set PROPERTIES_ORIGIN ["COM"]
properties('MP2/aug-cc-pvtz', properties = ['dipole'])
--------------------------------------------------------------------------

    Molecular point group: c1
  Charge       = 1
  Multiplicity = 1
  Basis Set: AUG-CC-PVTZ
    Blend: AUG-CC-PVTZ
  Basis Set: (AUG-CC-PVTZ AUX)
    Blend: AUG-CC-PVTZ-JKFIT

    Orbital Energies [Eh]
    ---------------------

    Doubly Occupied:

       1A    -15.891453     2A    -11.458435     3A    -11.394498
       4A    -11.394491     5A    -11.393107     6A    -11.393106
       7A    -11.371226     8A    -11.344776     9A    -11.344775
      10A     -1.495195    11A     -1.308335    12A     -1.204538
      13A     -1.180769    14A     -1.082718    15A     -1.070101
      16A     -0.987385    17A     -0.964970    18A     -0.934387
      19A     -0.906992    20A     -0.855016    21A     -0.819717
      22A     -0.794410    23A     -0.723756    24A     -0.715086
      25A     -0.710377    26A     -0.690133    27A     -0.678865
      28A     -0.656609    29A     -0.640783    30A     -0.633909
      31A     -0.628227    32A     -0.485851    33A     -0.474703

  @DF-RHF Final Energy:  -364.29095486024647

   => Energetics <=

    Nuclear Repulsion Energy =            432.0825006232918781
    One-Electron Energy =               -1337.4895181418246466
    Two-Electron Energy =                 541.1160626582861823
    Total Energy =                       -364.2909548602465293
  Basis Set: (AUG-CC-PVTZ AUX)
    Blend: AUG-CC-PVTZ-RI
    Molecular point group: c1

    Geometry (in Angstrom), charge = 1, multiplicity = 1:

       Center              X                  Y                   Z               Mass
    ------------   -----------------  -----------------  -----------------  -----------------
         N           -2.808353325507    -0.000080676971     0.013923571875    14.003074004430
         C           -1.317921325507    -0.000036676971    -0.014113428125    12.000000000000
         C            0.733519674493     1.230273323029    -0.012231428125    12.000000000000
         C            0.733585674493    -1.230233676971    -0.012223428125    12.000000000000
         C           -0.667112325507    -1.226433676971    -0.006235428125    12.000000000000
         C           -0.667181325507     1.226394323029    -0.006242428125    12.000000000000
         C            1.404361674493     0.000039323029    -0.010034428125    12.000000000000
         C            1.499736674493     2.525323323029     0.014185571875    12.000000000000
         C            1.499885674493    -2.525234676971     0.014181571875    12.000000000000
         H           -1.218712325507    -2.165964676971    -0.013096428125     1.007825032230
         H           -1.218831325507     2.165896323029    -0.013108428125     1.007825032230
         H            2.493418674493     0.000068323029    -0.023264428125     1.007825032230
         H           -3.190214325507     0.828556323029    -0.462871428125     1.007825032230
         H           -3.190173325507    -0.828594676971    -0.463118428125     1.007825032230
         H           -3.195208625507    -0.000240076971     1.022432871875     1.007825032230
         H            0.883399674493     3.360591323029    -0.326865428125     1.007825032230
         H            1.841277674493     2.749559323029     1.029680571875     1.007825032230
         H            2.381752674493     2.467578323029    -0.628260428125     1.007825032230
         H            2.381721674493    -2.467534676971    -0.628517428125     1.007825032230
         H            0.883505674493    -3.360592676971    -0.326571428125     1.007825032230
         H            1.841722674493    -2.749292676971     1.029614571875     1.007825032230

  Basis Set: AUG-CC-PVTZ
    Blend: AUG-CC-PVTZ
  Basis Set: (AUG-CC-PVTZ AUX)
    Blend: AUG-CC-PVTZ-JKFIT
	 Reference Energy          =    -364.2909548602464724 [Eh]
	 Singles Energy            =      -0.0000000000000000 [Eh]
	 Same-Spin Energy          =      -0.3974420066318319 [Eh]
	 Opposite-Spin Energy      =      -1.3061572872410507 [Eh]
	 Correlation Energy        =      -1.7035992938728826 [Eh]
	 Total Energy              =    -365.9945541541193279 [Eh]

	 ================> DF-SCS-MP2 Energies <==================
	-----------------------------------------------------------
	 SCS Same-Spin Scale       =       0.3333333333333333 [-]
	 SCS Opposite-Spin Scale   =       1.2000000000000000 [-]
	 SCS Same-Spin Energy      =      -0.1324806688772773 [Eh]
	 SCS Opposite-Spin Energy  =      -1.5673887446892609 [Eh]
	 SCS Correlation Energy    =      -1.6998694135665382 [Eh]
	 SCS Total Energy          =    -365.9908242738130184 [Eh]
	-----------------------------------------------------------

  Dipole Moment: [D]
     X:    -8.3997      Y:    -0.0002      Z:     0.2409     Total:     8.4032

*** Psi4 exiting successfully. Buy a developer a beer!
