                               Psi4 1.4a3.dev225

  ==> Input File <==

--------------------------------------------------------------------------
#psi4
#
memory 32 gb

molecule  {
1 1
  N       -2.8138210    -0.0000810     0.0131690
  C       -1.3233890    -0.0000370    -0.0148680
  C        0.7280520     1.2302730    -0.0129860
  C        0.7281180    -1.2302340    -0.0129780
  C       -0.6725800    -1.2264340    -0.0069900
  C       -0.6726490     1.2263940    -0.0069970
  C        1.3988940     0.0000390    -0.0107890
  C        1.4942690     2.5253230     0.0134310
  C        1.4944180    -2.5252350     0.0134270
  H       -1.2241800    -2.1659650    -0.0138510
  H       -1.2749319     2.2521277    -0.0144932
  H        2.4879510     0.0000680    -0.0240190
  H       -3.1956820     0.8285560    -0.4636260
  H       -3.1956410    -0.8285950    -0.4638730
  H       -3.1827690    -0.0002330     0.9749950
  H        0.8779320     3.3605910    -0.3276200
  H        1.8358100     2.7495590     1.0289260
  H        2.3762850     2.4675780    -0.6290150
  H        2.3762540    -2.4675350    -0.6292720
  H        0.8780380    -3.3605930    -0.3273260
  H        1.8362550    -2.7492930     1.0288600
units angstrom
no_reorient  #important for SAPT in psi4, default
symmetry c1  #important for SAPT in psi4, default
}

set PROPERTIES_ORIGIN ["COM"]
properties('MP2/aug-cc-pvtz', properties = ['dipole'])
--------------------------------------------------------------------------

    Molecular point group: c1
  Charge       = 1
  Multiplicity = 1
  Basis Set: AUG-CC-PVTZ
    Blend: AUG-CC-PVTZ
  Basis Set: (AUG-CC-PVTZ AUX)
    Blend: AUG-CC-PVTZ-JKFIT

    Orbital Energies [Eh]
    ---------------------

    Doubly Occupied:

       1A    -15.888397     2A    -11.459775     3A    -11.404631
       4A    -11.395351     5A    -11.395222     6A    -11.393997
       7A    -11.372296     8A    -11.345212     9A    -11.345009
      10A     -1.502234    11A     -1.309296    12A     -1.203795
      13A     -1.182004    14A     -1.080894    15A     -1.070199
      16A     -0.987893    17A     -0.965866    18A     -0.949342
      19A     -0.905689    20A     -0.851503    21A     -0.814198
      22A     -0.795181    23A     -0.718654    24A     -0.711105
      25A     -0.709964    26A     -0.690432    27A     -0.678126
      28A     -0.656444    29A     -0.641303    30A     -0.635068
      31A     -0.627709    32A     -0.486932    33A     -0.475423

  @DF-RHF Final Energy:  -364.28695357225610

   => Energetics <=

    Nuclear Repulsion Energy =            431.8479988431581091
    One-Electron Energy =               -1336.9716160640482485
    Two-Electron Energy =                 540.8366636486339303
    Total Energy =                       -364.2869535722561523
  Basis Set: (AUG-CC-PVTZ AUX)
    Blend: AUG-CC-PVTZ-RI
    Molecular point group: c1

    Geometry (in Angstrom), charge = 1, multiplicity = 1:

       Center              X                  Y                   Z               Mass
    ------------   -----------------  -----------------  -----------------  -----------------
         N           -2.808083198593    -0.000792520358     0.014314111689    14.003074004430
         C           -1.317651198593    -0.000748520358    -0.013722888311    12.000000000000
         C            0.733789801407     1.229561479642    -0.011840888311    12.000000000000
         C            0.733855801407    -1.230945520358    -0.011832888311    12.000000000000
         C           -0.666842198593    -1.227145520358    -0.005844888311    12.000000000000
         C           -0.666911198593     1.225682479642    -0.005851888311    12.000000000000
         C            1.404631801407    -0.000672520358    -0.009643888311    12.000000000000
         C            1.500006801407     2.524611479642     0.014576111689    12.000000000000
         C            1.500155801407    -2.525946520358     0.014572111689    12.000000000000
         H           -1.218442198593    -2.166676520358    -0.012705888311     1.007825032230
         H           -1.269194098593     2.251416179642    -0.013348088311     1.007825032230
         H            2.493688801407    -0.000643520358    -0.022873888311     1.007825032230
         H           -3.189944198593     0.827844479642    -0.462480888311     1.007825032230
         H           -3.189903198593    -0.829306520358    -0.462727888311     1.007825032230
         H           -3.177031198593    -0.000944520358     0.976140111689     1.007825032230
         H            0.883669801407     3.359879479642    -0.326474888311     1.007825032230
         H            1.841547801407     2.748847479642     1.030071111689     1.007825032230
         H            2.382022801407     2.466866479642    -0.627869888311     1.007825032230
         H            2.381991801407    -2.468246520358    -0.628126888311     1.007825032230
         H            0.883775801407    -3.361304520358    -0.326180888311     1.007825032230
         H            1.841992801407    -2.750004520358     1.030005111689     1.007825032230

  Basis Set: AUG-CC-PVTZ
    Blend: AUG-CC-PVTZ
  Basis Set: (AUG-CC-PVTZ AUX)
    Blend: AUG-CC-PVTZ-JKFIT
	 Reference Energy          =    -364.2869535722560954 [Eh]
	 Singles Energy            =      -0.0000000000000000 [Eh]
	 Same-Spin Energy          =      -0.3974588240292231 [Eh]
	 Opposite-Spin Energy      =      -1.3062860121697031 [Eh]
	 Correlation Energy        =      -1.7037448361989260 [Eh]
	 Total Energy              =    -365.9906984084550459 [Eh]

	 ================> DF-SCS-MP2 Energies <==================
	-----------------------------------------------------------
	 SCS Same-Spin Scale       =       0.3333333333333333 [-]
	 SCS Opposite-Spin Scale   =       1.2000000000000000 [-]
	 SCS Same-Spin Energy      =      -0.1324862746764077 [Eh]
	 SCS Opposite-Spin Energy  =      -1.5675432146036437 [Eh]
	 SCS Correlation Energy    =      -1.7000294892800514 [Eh]
	 SCS Total Energy          =    -365.9869830615361366 [Eh]
	-----------------------------------------------------------

  Dipole Moment: [D]
     X:    -8.3407      Y:    -0.0046      Z:     0.1715     Total:     8.3425

*** Psi4 exiting successfully. Buy a developer a beer!
