                               Psi4 1.4a3.dev225

  ==> Input File <==

--------------------------------------------------------------------------
#psi4
#
memory 32 gb

molecule  {
1 1
  N       -2.8138210    -0.0000810     0.0131690
  C       -1.3233890    -0.0000370    -0.0148680
  C        0.7280520     1.2302730    -0.0129860
  C        0.7281180    -1.2302340    -0.0129780
  C       -0.6725800    -1.2264340    -0.0069900
  C       -0.6726490     1.2263940    -0.0069970
  C        1.3988940     0.0000390    -0.0107890
  C        1.4942690     2.5253230     0.0134310
  C        1.4944180    -2.5252350     0.0134270
  H       -1.2241800    -2.1659650    -0.0138510
  H       -1.2242990     2.1658960    -0.0138630
  H        2.4879510     0.0000680    -0.0240190
  H       -3.1956820     0.8285560    -0.4636260
  H       -3.1956410    -0.8285950    -0.4638730
  H       -3.1827690    -0.0002330     0.9749950
  H        0.8838297     3.3777660    -0.2940824
  H        1.8358100     2.7495590     1.0289260
  H        2.3762850     2.4675780    -0.6290150
  H        2.3762540    -2.4675350    -0.6292720
  H        0.8780380    -3.3605930    -0.3273260
  H        1.8362550    -2.7492930     1.0288600
units angstrom
no_reorient  #important for SAPT in psi4, default
symmetry c1  #important for SAPT in psi4, default
}

set PROPERTIES_ORIGIN ["COM"]
properties('MP2/aug-cc-pvtz', properties = ['dipole'])
--------------------------------------------------------------------------

    Molecular point group: c1
  Charge       = 1
  Multiplicity = 1
  Basis Set: AUG-CC-PVTZ
    Blend: AUG-CC-PVTZ
  Basis Set: (AUG-CC-PVTZ AUX)
    Blend: AUG-CC-PVTZ-JKFIT

    Orbital Energies [Eh]
    ---------------------

    Doubly Occupied:

       1A    -15.888707     2A    -11.458916     3A    -11.395057
       4A    -11.394880     5A    -11.393581     6A    -11.393531
       7A    -11.371669     8A    -11.345007     9A    -11.344919
      10A     -1.502550    11A     -1.309274    12A     -1.204798
      13A     -1.182079    14A     -1.083110    15A     -1.070394
      16A     -0.988897    17A     -0.966147    18A     -0.949665
      19A     -0.907980    20A     -0.856038    21A     -0.820507
      22A     -0.794835    23A     -0.724393    24A     -0.715998
      25A     -0.710032    26A     -0.689393    27A     -0.679553
      28A     -0.656600    29A     -0.641088    30A     -0.634116
      31A     -0.629451    32A     -0.486405    33A     -0.474936

  @DF-RHF Final Energy:  -364.29425047864373

   => Energetics <=

    Nuclear Repulsion Energy =            432.3080551616232583
    One-Electron Energy =               -1337.8756076189656596
    Two-Electron Energy =                 541.2733019786986688
    Total Energy =                       -364.2942504786436757
  Basis Set: (AUG-CC-PVTZ AUX)
    Blend: AUG-CC-PVTZ-RI
    Molecular point group: c1

    Geometry (in Angstrom), charge = 1, multiplicity = 1:

       Center              X                  Y                   Z               Mass
    ------------   -----------------  -----------------  -----------------  -----------------
         N           -2.808549819114    -0.000222505652     0.014032080424    14.003074004430
         C           -1.318117819114    -0.000178505652    -0.014004919576    12.000000000000
         C            0.733323180886     1.230131494348    -0.012122919576    12.000000000000
         C            0.733389180886    -1.230375505652    -0.012114919576    12.000000000000
         C           -0.667308819114    -1.226575505652    -0.006126919576    12.000000000000
         C           -0.667377819114     1.226252494348    -0.006133919576    12.000000000000
         C            1.404165180886    -0.000102505652    -0.009925919576    12.000000000000
         C            1.499540180886     2.525181494348     0.014294080424    12.000000000000
         C            1.499689180886    -2.525376505652     0.014290080424    12.000000000000
         H           -1.218908819114    -2.166106505652    -0.012987919576     1.007825032230
         H           -1.219027819114     2.165754494348    -0.012999919576     1.007825032230
         H            2.493222180886    -0.000073505652    -0.023155919576     1.007825032230
         H           -3.190410819114     0.828414494348    -0.462762919576     1.007825032230
         H           -3.190369819114    -0.828736505652    -0.463009919576     1.007825032230
         H           -3.177497819114    -0.000374505652     0.975858080424     1.007825032230
         H            0.889100880886     3.377624494348    -0.293219319576     1.007825032230
         H            1.841081180886     2.749417494348     1.029789080424     1.007825032230
         H            2.381556180886     2.467436494348    -0.628151919576     1.007825032230
         H            2.381525180886    -2.467676505652    -0.628408919576     1.007825032230
         H            0.883309180886    -3.360734505652    -0.326462919576     1.007825032230
         H            1.841526180886    -2.749434505652     1.029723080424     1.007825032230

  Basis Set: AUG-CC-PVTZ
    Blend: AUG-CC-PVTZ
  Basis Set: (AUG-CC-PVTZ AUX)
    Blend: AUG-CC-PVTZ-JKFIT
	 Reference Energy          =    -364.2942504786437325 [Eh]
	 Singles Energy            =      -0.0000000000000000 [Eh]
	 Same-Spin Energy          =      -0.3971606814681354 [Eh]
	 Opposite-Spin Energy      =      -1.3052990510686406 [Eh]
	 Correlation Energy        =      -1.7024597325367761 [Eh]
	 Total Energy              =    -365.9967102111805275 [Eh]

	 ================> DF-SCS-MP2 Energies <==================
	-----------------------------------------------------------
	 SCS Same-Spin Scale       =       0.3333333333333333 [-]
	 SCS Opposite-Spin Scale   =       1.2000000000000000 [-]
	 SCS Same-Spin Energy      =      -0.1323868938227118 [Eh]
	 SCS Opposite-Spin Energy  =      -1.5663588612823687 [Eh]
	 SCS Correlation Energy    =      -1.6987457551050804 [Eh]
	 SCS Total Energy          =    -365.9929962337488405 [Eh]
	-----------------------------------------------------------

  Dipole Moment: [D]
     X:    -8.3687      Y:     0.0076      Z:     0.1810     Total:     8.3706

*** Psi4 exiting successfully. Buy a developer a beer!
