                               Psi4 1.4a3.dev225

  ==> Input File <==

--------------------------------------------------------------------------
#psi4
#
memory 32 gb

molecule  {
1 1
  N       -2.8138210    -0.0000810     0.0131690
  C       -1.3233890    -0.0000370    -0.0148680
  C        0.7280520     1.2302730    -0.0129860
  C        0.7281180    -1.2302340    -0.0129780
  C       -0.6725800    -1.2264340    -0.0069900
  C       -0.6726490     1.2263940    -0.0069970
  C        1.3988940     0.0000390    -0.0107890
  C        1.4942690     2.5253230     0.0134310
  C        1.4944180    -2.5252350     0.0134270
  H       -1.2241800    -2.1659650    -0.0138510
  H       -1.2242990     2.1658960    -0.0138630
  H        2.4879510     0.0000680    -0.0240190
  H       -3.2477196     0.7601643    -0.5286333
  H       -3.1956410    -0.8285950    -0.4638730
  H       -3.1827690    -0.0002330     0.9749950
  H        0.8779320     3.3605910    -0.3276200
  H        1.8358100     2.7495590     1.0289260
  H        2.3762850     2.4675780    -0.6290150
  H        2.3762540    -2.4675350    -0.6292720
  H        0.8780380    -3.3605930    -0.3273260
  H        1.8362550    -2.7492930     1.0288600
units angstrom
no_reorient  #important for SAPT in psi4, default
symmetry c1  #important for SAPT in psi4, default
}

set PROPERTIES_ORIGIN ["COM"]
properties('MP2/aug-cc-pvtz', properties = ['dipole'])
--------------------------------------------------------------------------

    Molecular point group: c1
  Charge       = 1
  Multiplicity = 1
  Basis Set: AUG-CC-PVTZ
    Blend: AUG-CC-PVTZ
  Basis Set: (AUG-CC-PVTZ AUX)
    Blend: AUG-CC-PVTZ-JKFIT

    Orbital Energies [Eh]
    ---------------------

    Doubly Occupied:

       1A    -15.888480     2A    -11.458892     3A    -11.394685
       4A    -11.394270     5A    -11.393492     6A    -11.392915
       7A    -11.371478     8A    -11.344851     9A    -11.344612
      10A     -1.502461    11A     -1.309233    12A     -1.204470
      13A     -1.182492    14A     -1.082165    15A     -1.070168
      16A     -0.990518    17A     -0.959664    18A     -0.956130
      19A     -0.902753    20A     -0.856703    21A     -0.820532
      22A     -0.793764    23A     -0.723621    24A     -0.715122
      25A     -0.710549    26A     -0.690087    27A     -0.678839
      28A     -0.656532    29A     -0.640898    30A     -0.634684
      31A     -0.628176    32A     -0.486468    33A     -0.474570

  @DF-RHF Final Energy:  -364.29307280964542

   => Energetics <=

    Nuclear Repulsion Energy =            432.2377206594562722
    One-Electron Energy =               -1337.7530388447735277
    Two-Electron Energy =                 541.2222453756718323
    Total Energy =                       -364.2930728096454231
  Basis Set: (AUG-CC-PVTZ AUX)
    Blend: AUG-CC-PVTZ-RI
    Molecular point group: c1

    Geometry (in Angstrom), charge = 1, multiplicity = 1:

       Center              X                  Y                   Z               Mass
    ------------   -----------------  -----------------  -----------------  -----------------
         N           -2.808071603778     0.000483787543     0.014845499573    14.003074004430
         C           -1.317639603778     0.000527787543    -0.013191500427    12.000000000000
         C            0.733801396222     1.230837787543    -0.011309500427    12.000000000000
         C            0.733867396222    -1.229669212457    -0.011301500427    12.000000000000
         C           -0.666830603778    -1.225869212457    -0.005313500427    12.000000000000
         C           -0.666899603778     1.226958787543    -0.005320500427    12.000000000000
         C            1.404643396222     0.000603787543    -0.009112500427    12.000000000000
         C            1.500018396222     2.525887787543     0.015107499573    12.000000000000
         C            1.500167396222    -2.524670212457     0.015103499573    12.000000000000
         H           -1.218430603778    -2.165400212457    -0.012174500427     1.007825032230
         H           -1.218549603778     2.166460787543    -0.012186500427     1.007825032230
         H            2.493700396222     0.000632787543    -0.022342500427     1.007825032230
         H           -3.241970203778     0.760729087543    -0.526956800427     1.007825032230
         H           -3.189891603778    -0.828030212457    -0.462196500427     1.007825032230
         H           -3.177019603778     0.000331787543     0.976671499573     1.007825032230
         H            0.883681396222     3.361155787543    -0.325943500427     1.007825032230
         H            1.841559396222     2.750123787543     1.030602499573     1.007825032230
         H            2.382034396222     2.468142787543    -0.627338500427     1.007825032230
         H            2.382003396222    -2.466970212457    -0.627595500427     1.007825032230
         H            0.883787396222    -3.360028212457    -0.325649500427     1.007825032230
         H            1.842004396222    -2.748728212457     1.030536499573     1.007825032230

  Basis Set: AUG-CC-PVTZ
    Blend: AUG-CC-PVTZ
  Basis Set: (AUG-CC-PVTZ AUX)
    Blend: AUG-CC-PVTZ-JKFIT
	 Reference Energy          =    -364.2930728096454231 [Eh]
	 Singles Energy            =      -0.0000000000000000 [Eh]
	 Same-Spin Energy          =      -0.3971638094720661 [Eh]
	 Opposite-Spin Energy      =      -1.3053509806349797 [Eh]
	 Correlation Energy        =      -1.7025147901070459 [Eh]
	 Total Energy              =    -365.9955875997524686 [Eh]

	 ================> DF-SCS-MP2 Energies <==================
	-----------------------------------------------------------
	 SCS Same-Spin Scale       =       0.3333333333333333 [-]
	 SCS Opposite-Spin Scale   =       1.2000000000000000 [-]
	 SCS Same-Spin Energy      =      -0.1323879364906887 [Eh]
	 SCS Opposite-Spin Energy  =      -1.5664211767619756 [Eh]
	 SCS Correlation Energy    =      -1.6988091132526644 [Eh]
	 SCS Total Energy          =    -365.9918819228980738 [Eh]
	-----------------------------------------------------------

  Dipole Moment: [D]
     X:    -8.4304      Y:    -0.0543      Z:     0.0932     Total:     8.4311

*** Psi4 exiting successfully. Buy a developer a beer!
