                               Psi4 1.4a3.dev225

  ==> Input File <==

--------------------------------------------------------------------------
#psi4
#
memory 32 gb

molecule  {
1 1
  N       -2.8138210    -0.0000810     0.0131690
  C       -1.3233890    -0.0000370    -0.0148680
  C        0.7280520     1.2302730    -0.0129860
  C        0.7281180    -1.2302340    -0.0129780
  C       -0.6725800    -1.2264340    -0.0069900
  C       -0.6726490     1.2263940    -0.0069970
  C        1.3988940     0.0000390    -0.0107890
  C        1.4942690     2.5253230     0.0134310
  C        1.4944180    -2.5252350     0.0134270
  H       -1.2241800    -2.1659650    -0.0138510
  H       -1.2242990     2.1658960    -0.0138630
  H        2.4879510     0.0000680    -0.0240190
  H       -3.1956820     0.8285560    -0.4636260
  H       -3.1770964    -0.7883548    -0.4407035
  H       -3.1827690    -0.0002330     0.9749950
  H        0.8779320     3.3605910    -0.3276200
  H        1.8358100     2.7495590     1.0289260
  H        2.3762850     2.4675780    -0.6290150
  H        2.3762540    -2.4675350    -0.6292720
  H        0.8780380    -3.3605930    -0.3273260
  H        1.8362550    -2.7492930     1.0288600
units angstrom
no_reorient  #important for SAPT in psi4, default
symmetry c1  #important for SAPT in psi4, default
}

set PROPERTIES_ORIGIN ["COM"]
properties('MP2/aug-cc-pvtz', properties = ['dipole'])
--------------------------------------------------------------------------

    Molecular point group: c1
  Charge       = 1
  Multiplicity = 1
  Basis Set: AUG-CC-PVTZ
    Blend: AUG-CC-PVTZ
  Basis Set: (AUG-CC-PVTZ AUX)
    Blend: AUG-CC-PVTZ-JKFIT

    Orbital Energies [Eh]
    ---------------------

    Doubly Occupied:

       1A    -15.885547     2A    -11.459360     3A    -11.395140
       4A    -11.395098     5A    -11.393875     6A    -11.393809
       7A    -11.371867     8A    -11.345173     9A    -11.345123
      10A     -1.511095    11A     -1.310191    12A     -1.205155
      13A     -1.183441    14A     -1.083847    15A     -1.070636
      16A     -0.991012    17A     -0.973871    18A     -0.953869
      19A     -0.911821    20A     -0.856940    21A     -0.821053
      22A     -0.795924    23A     -0.724399    24A     -0.715642
      25A     -0.710976    26A     -0.690504    27A     -0.679298
      28A     -0.657127    29A     -0.641412    30A     -0.635065
      31A     -0.628722    32A     -0.486843    33A     -0.475267

  @DF-RHF Final Energy:  -364.29411629026526

   => Energetics <=

    Nuclear Repulsion Energy =            432.6060073225255564
    One-Electron Energy =               -1338.4020411584817793
    Two-Electron Energy =                 541.5019175456909579
    Total Energy =                       -364.2941162902652650
  Basis Set: (AUG-CC-PVTZ AUX)
    Blend: AUG-CC-PVTZ-RI
    Molecular point group: c1

    Geometry (in Angstrom), charge = 1, multiplicity = 1:

       Center              X                  Y                   Z               Mass
    ------------   -----------------  -----------------  -----------------  -----------------
         N           -2.808654210418    -0.000412892728     0.014117661830    14.003074004430
         C           -1.318222210418    -0.000368892728    -0.013919338170    12.000000000000
         C            0.733218789582     1.229941107272    -0.012037338170    12.000000000000
         C            0.733284789582    -1.230565892728    -0.012029338170    12.000000000000
         C           -0.667413210418    -1.226765892728    -0.006041338170    12.000000000000
         C           -0.667482210418     1.226062107272    -0.006048338170    12.000000000000
         C            1.404060789582    -0.000292892728    -0.009840338170    12.000000000000
         C            1.499435789582     2.524991107272     0.014379661830    12.000000000000
         C            1.499584789582    -2.525566892728     0.014375661830    12.000000000000
         H           -1.219013210418    -2.166296892728    -0.012902338170     1.007825032230
         H           -1.219132210418     2.165564107272    -0.012914338170     1.007825032230
         H            2.493117789582    -0.000263892728    -0.023070338170     1.007825032230
         H           -3.190515210418     0.828224107272    -0.462677338170     1.007825032230
         H           -3.171929610418    -0.788686692728    -0.439754838170     1.007825032230
         H           -3.177602210418    -0.000564892728     0.975943661830     1.007825032230
         H            0.883098789582     3.360259107272    -0.326671338170     1.007825032230
         H            1.840976789582     2.749227107272     1.029874661830     1.007825032230
         H            2.381451789582     2.467246107272    -0.628066338170     1.007825032230
         H            2.381420789582    -2.467866892728    -0.628323338170     1.007825032230
         H            0.883204789582    -3.360924892728    -0.326377338170     1.007825032230
         H            1.841421789582    -2.749624892728     1.029808661830     1.007825032230

  Basis Set: AUG-CC-PVTZ
    Blend: AUG-CC-PVTZ
  Basis Set: (AUG-CC-PVTZ AUX)
    Blend: AUG-CC-PVTZ-JKFIT
	 Reference Energy          =    -364.2941162902652650 [Eh]
	 Singles Energy            =      -0.0000000000000000 [Eh]
	 Same-Spin Energy          =      -0.3968653378847041 [Eh]
	 Opposite-Spin Energy      =      -1.3044696606057991 [Eh]
	 Correlation Energy        =      -1.7013349984905033 [Eh]
	 Total Energy              =    -365.9954512887557598 [Eh]

	 ================> DF-SCS-MP2 Energies <==================
	-----------------------------------------------------------
	 SCS Same-Spin Scale       =       0.3333333333333333 [-]
	 SCS Opposite-Spin Scale   =       1.2000000000000000 [-]
	 SCS Same-Spin Energy      =      -0.1322884459615680 [Eh]
	 SCS Opposite-Spin Energy  =      -1.5653635927269589 [Eh]
	 SCS Correlation Energy    =      -1.6976520386885270 [Eh]
	 SCS Total Energy          =    -365.9917683289538104 [Eh]
	-----------------------------------------------------------

  Dipole Moment: [D]
     X:    -8.3312      Y:     0.0505      Z:     0.2034     Total:     8.3339

*** Psi4 exiting successfully. Buy a developer a beer!
