                               Psi4 1.4a3.dev225

  ==> Input File <==

--------------------------------------------------------------------------
#psi4
#
memory 32 gb

molecule  {
1 1
  N       -2.8138210    -0.0000810     0.0131690
  C       -1.3233890    -0.0000370    -0.0148680
  C        0.7280520     1.2302730    -0.0129860
  C        0.7281180    -1.2302340    -0.0129780
  C       -0.6725800    -1.2264340    -0.0069900
  C       -0.6726490     1.2263940    -0.0069970
  C        1.3988940     0.0000390    -0.0107890
  C        1.4942690     2.5253230     0.0134310
  C        1.4944180    -2.5252350     0.0134270
  H       -1.2241800    -2.1659650    -0.0138510
  H       -1.2242990     2.1658960    -0.0138630
  H        2.4879510     0.0000680    -0.0240190
  H       -3.1956820     0.8285560    -0.4636260
  H       -3.1956410    -0.8285950    -0.4638730
  H       -3.1827690    -0.0002330     0.9749950
  H        0.8779320     3.3605910    -0.3276200
  H        1.8358100     2.7495590     1.0289260
  H        2.3762850     2.4675780    -0.6290150
  H        2.2148513    -2.4780959    -0.5116386
  H        0.8780380    -3.3605930    -0.3273260
  H        1.8362550    -2.7492930     1.0288600
units angstrom
no_reorient  #important for SAPT in psi4, default
symmetry c1  #important for SAPT in psi4, default
}

set PROPERTIES_ORIGIN ["COM"]
properties('MP2/aug-cc-pvtz', properties = ['dipole'])
--------------------------------------------------------------------------

    Molecular point group: c1
  Charge       = 1
  Multiplicity = 1
  Basis Set: AUG-CC-PVTZ
    Blend: AUG-CC-PVTZ
  Basis Set: (AUG-CC-PVTZ AUX)
    Blend: AUG-CC-PVTZ-JKFIT

    Orbital Energies [Eh]
    ---------------------

    Doubly Occupied:

       1A    -15.888505     2A    -11.458656     3A    -11.394821
       4A    -11.394031     5A    -11.393368     6A    -11.392815
       7A    -11.371654     8A    -11.344977     9A    -11.321574
      10A     -1.502358    11A     -1.309367    12A     -1.207577
      13A     -1.183988    14A     -1.096070    15A     -1.075282
      16A     -0.990495    17A     -0.969205    18A     -0.949480
      19A     -0.909468    20A     -0.858635    21A     -0.820958
      22A     -0.797532    23A     -0.728068    24A     -0.723117
      25A     -0.713736    26A     -0.700266    27A     -0.682923
      28A     -0.664047    29A     -0.643764    30A     -0.634939
      31A     -0.628082    32A     -0.486934    33A     -0.475074

  @DF-RHF Final Energy:  -364.26020543199309

   => Energetics <=

    Nuclear Repulsion Energy =            433.3218409871452081
    One-Electron Energy =               -1339.7405566543366149
    Two-Electron Energy =                 542.1585102351983778
    Total Energy =                       -364.2602054319930858
  Basis Set: (AUG-CC-PVTZ AUX)
    Blend: AUG-CC-PVTZ-RI
    Molecular point group: c1

    Geometry (in Angstrom), charge = 1, multiplicity = 1:

       Center              X                  Y                   Z               Mass
    ------------   -----------------  -----------------  -----------------  -----------------
         N           -2.807168871454     0.000006434782     0.013337928478    14.003074004430
         C           -1.316736871454     0.000050434782    -0.014699071522    12.000000000000
         C            0.734704128546     1.230360434782    -0.012817071522    12.000000000000
         C            0.734770128546    -1.230146565218    -0.012809071522    12.000000000000
         C           -0.665927871454    -1.226346565218    -0.006821071522    12.000000000000
         C           -0.665996871454     1.226481434782    -0.006828071522    12.000000000000
         C            1.405546128546     0.000126434782    -0.010620071522    12.000000000000
         C            1.500921128546     2.525410434782     0.013599928478    12.000000000000
         C            1.501070128546    -2.525147565218     0.013595928478    12.000000000000
         H           -1.217527871454    -2.165877565218    -0.013682071522     1.007825032230
         H           -1.217646871454     2.165983434782    -0.013694071522     1.007825032230
         H            2.494603128546     0.000155434782    -0.023850071522     1.007825032230
         H           -3.189029871454     0.828643434782    -0.463457071522     1.007825032230
         H           -3.188988871454    -0.828507565218    -0.463704071522     1.007825032230
         H           -3.176116871454    -0.000145565218     0.975163928478     1.007825032230
         H            0.884584128546     3.360678434782    -0.327451071522     1.007825032230
         H            1.842462128546     2.749646434782     1.029094928478     1.007825032230
         H            2.382937128546     2.467665434782    -0.628846071522     1.007825032230
         H            2.221503428546    -2.478008465218    -0.511469671522     1.007825032230
         H            0.884690128546    -3.360505565218    -0.327157071522     1.007825032230
         H            1.842907128546    -2.749205565218     1.029028928478     1.007825032230

  Basis Set: AUG-CC-PVTZ
    Blend: AUG-CC-PVTZ
  Basis Set: (AUG-CC-PVTZ AUX)
    Blend: AUG-CC-PVTZ-JKFIT
	 Reference Energy          =    -364.2602054319930858 [Eh]
	 Singles Energy            =      -0.0000000000000000 [Eh]
	 Same-Spin Energy          =      -0.3971987117386063 [Eh]
	 Opposite-Spin Energy      =      -1.3046402341359087 [Eh]
	 Correlation Energy        =      -1.7018389458745151 [Eh]
	 Total Energy              =    -365.9620443778675849 [Eh]

	 ================> DF-SCS-MP2 Energies <==================
	-----------------------------------------------------------
	 SCS Same-Spin Scale       =       0.3333333333333333 [-]
	 SCS Opposite-Spin Scale   =       1.2000000000000000 [-]
	 SCS Same-Spin Energy      =      -0.1323995705795354 [Eh]
	 SCS Opposite-Spin Energy  =      -1.5655682809630904 [Eh]
	 SCS Correlation Energy    =      -1.6979678515426258 [Eh]
	 SCS Total Energy          =    -365.9581732835357002 [Eh]
	-----------------------------------------------------------

  Dipole Moment: [D]
     X:    -8.3466      Y:    -0.0046      Z:     0.1624     Total:     8.3482

*** Psi4 exiting successfully. Buy a developer a beer!
