                               Psi4 1.4a3.dev225

  ==> Input File <==

--------------------------------------------------------------------------
#psi4
#
memory 32 gb

molecule  {
1 1
  N       -2.8138210    -0.0000810     0.0131690
  C       -1.3233890    -0.0000370    -0.0148680
  C        0.7280520     1.2302730    -0.0129860
  C        0.7281180    -1.2302340    -0.0129780
  C       -0.6725800    -1.2264340    -0.0069900
  C       -0.6726490     1.2263940    -0.0069970
  C        1.3988940     0.0000390    -0.0107890
  C        1.4942690     2.5253230     0.0134310
  C        1.4944180    -2.5252350     0.0134270
  H       -1.2241800    -2.1659650    -0.0138510
  H       -1.2242990     2.1658960    -0.0138630
  H        2.4879510     0.0000680    -0.0240190
  H       -3.1956820     0.8285560    -0.4636260
  H       -3.1956410    -0.8285950    -0.4638730
  H       -3.1827690    -0.0002330     0.9749950
  H        0.8779320     3.3605910    -0.3276200
  H        1.8358100     2.7495590     1.0289260
  H        2.3762850     2.4675780    -0.6290150
  H        2.3980547    -2.4751216    -0.5989090
  H        0.8780380    -3.3605930    -0.3273260
  H        1.8362550    -2.7492930     1.0288600
units angstrom
no_reorient  #important for SAPT in psi4, default
symmetry c1  #important for SAPT in psi4, default
}

set PROPERTIES_ORIGIN ["COM"]
properties('MP2/aug-cc-pvtz', properties = ['dipole'])
--------------------------------------------------------------------------

    Molecular point group: c1
  Charge       = 1
  Multiplicity = 1
  Basis Set: AUG-CC-PVTZ
    Blend: AUG-CC-PVTZ
  Basis Set: (AUG-CC-PVTZ AUX)
    Blend: AUG-CC-PVTZ-JKFIT

    Orbital Energies [Eh]
    ---------------------

    Doubly Occupied:

       1A    -15.888752     2A    -11.458996     3A    -11.395074
       4A    -11.394841     5A    -11.393673     6A    -11.393516
       7A    -11.371574     8A    -11.344987     9A    -11.344947
      10A     -1.502589    11A     -1.309285    12A     -1.204840
      13A     -1.182057    14A     -1.083117    15A     -1.070395
      16A     -0.988953    17A     -0.966169    18A     -0.949702
      19A     -0.907916    20A     -0.856167    21A     -0.820563
      22A     -0.795050    23A     -0.724203    24A     -0.715688
      25A     -0.709720    26A     -0.688571    27A     -0.679505
      28A     -0.658476    29A     -0.641915    30A     -0.634003
      31A     -0.628410    32A     -0.486353    33A     -0.474905

  @DF-RHF Final Energy:  -364.29424978329303

   => Energetics <=

    Nuclear Repulsion Energy =            432.3106505645872062
    One-Electron Energy =               -1337.8799783885294801
    Two-Electron Energy =                 541.2750780406493050
    Total Energy =                       -364.2942497832930258
  Basis Set: (AUG-CC-PVTZ AUX)
    Blend: AUG-CC-PVTZ-RI
    Molecular point group: c1

    Geometry (in Angstrom), charge = 1, multiplicity = 1:

       Center              X                  Y                   Z               Mass
    ------------   -----------------  -----------------  -----------------  -----------------
         N           -2.808681087244    -0.000018115982     0.014058284524    14.003074004430
         C           -1.318249087244     0.000025884018    -0.013978715476    12.000000000000
         C            0.733191912756     1.230335884018    -0.012096715476    12.000000000000
         C            0.733257912756    -1.230171115982    -0.012088715476    12.000000000000
         C           -0.667440087244    -1.226371115982    -0.006100715476    12.000000000000
         C           -0.667509087244     1.226456884018    -0.006107715476    12.000000000000
         C            1.404033912756     0.000101884018    -0.009899715476    12.000000000000
         C            1.499408912756     2.525385884018     0.014320284524    12.000000000000
         C            1.499557912756    -2.525172115982     0.014316284524    12.000000000000
         H           -1.219040087244    -2.165902115982    -0.012961715476     1.007825032230
         H           -1.219159087244     2.165958884018    -0.012973715476     1.007825032230
         H            2.493090912756     0.000130884018    -0.023129715476     1.007825032230
         H           -3.190542087244     0.828618884018    -0.462736715476     1.007825032230
         H           -3.190501087244    -0.828532115982    -0.462983715476     1.007825032230
         H           -3.177629087244    -0.000170115982     0.975884284524     1.007825032230
         H            0.883071912756     3.360653884018    -0.326730715476     1.007825032230
         H            1.840949912756     2.749621884018     1.029815284524     1.007825032230
         H            2.381424912756     2.467640884018    -0.628125715476     1.007825032230
         H            2.403194612756    -2.475058715982    -0.598019715476     1.007825032230
         H            0.883177912756    -3.360530115982    -0.326436715476     1.007825032230
         H            1.841394912756    -2.749230115982     1.029749284524     1.007825032230

  Basis Set: AUG-CC-PVTZ
    Blend: AUG-CC-PVTZ
  Basis Set: (AUG-CC-PVTZ AUX)
    Blend: AUG-CC-PVTZ-JKFIT
	 Reference Energy          =    -364.2942497832930258 [Eh]
	 Singles Energy            =      -0.0000000000000000 [Eh]
	 Same-Spin Energy          =      -0.3971636480692265 [Eh]
	 Opposite-Spin Energy      =      -1.3052925529121040 [Eh]
	 Correlation Energy        =      -1.7024562009813304 [Eh]
	 Total Energy              =    -365.9967059842743424 [Eh]

	 ================> DF-SCS-MP2 Energies <==================
	-----------------------------------------------------------
	 SCS Same-Spin Scale       =       0.3333333333333333 [-]
	 SCS Opposite-Spin Scale   =       1.2000000000000000 [-]
	 SCS Same-Spin Energy      =      -0.1323878826897422 [Eh]
	 SCS Opposite-Spin Energy  =      -1.5663510634945248 [Eh]
	 SCS Correlation Energy    =      -1.6987389461842670 [Eh]
	 SCS Total Energy          =    -365.9929887294773039 [Eh]
	-----------------------------------------------------------

  Dipole Moment: [D]
     X:    -8.3558      Y:    -0.0011      Z:     0.1799     Total:     8.3577

*** Psi4 exiting successfully. Buy a developer a beer!
