                               Psi4 1.4a3.dev225

  ==> Input File <==

--------------------------------------------------------------------------
#psi4
#
memory 32 gb

molecule  {
1 1
  N       -2.8138210    -0.0000810     0.0131690
  C       -1.3233890    -0.0000370    -0.0148680
  C        0.7280520     1.2302730    -0.0129860
  C        0.7281180    -1.2302340    -0.0129780
  C       -0.6725800    -1.2264340    -0.0069900
  C       -0.6726490     1.2263940    -0.0069970
  C        1.3988940     0.0000390    -0.0107890
  C        1.4942690     2.5253230     0.0134310
  C        1.4944180    -2.5252350     0.0134270
  H       -1.2241800    -2.1659650    -0.0138510
  H       -1.2242990     2.1658960    -0.0138630
  H        2.4879510     0.0000680    -0.0240190
  H       -3.1956820     0.8285560    -0.4636260
  H       -3.1956410    -0.8285950    -0.4638730
  H       -3.1827690    -0.0002330     0.9749950
  H        0.8978483     3.4089807    -0.2259246
  H        1.8358100     2.7495590     1.0289260
  H        2.3762850     2.4675780    -0.6290150
  H        2.3762540    -2.4675350    -0.6292720
  H        0.8780380    -3.3605930    -0.3273260
  H        1.8362550    -2.7492930     1.0288600
units angstrom
no_reorient  #important for SAPT in psi4, default
symmetry c1  #important for SAPT in psi4, default
}

set PROPERTIES_ORIGIN ["COM"]
properties('MP2/aug-cc-pvtz', properties = ['dipole'])
--------------------------------------------------------------------------

    Molecular point group: c1
  Charge       = 1
  Multiplicity = 1
  Basis Set: AUG-CC-PVTZ
    Blend: AUG-CC-PVTZ
  Basis Set: (AUG-CC-PVTZ AUX)
    Blend: AUG-CC-PVTZ-JKFIT

    Orbital Energies [Eh]
    ---------------------

    Doubly Occupied:

       1A    -15.888697     2A    -11.458908     3A    -11.395574
       4A    -11.394973     5A    -11.393666     6A    -11.393571
       7A    -11.371901     8A    -11.345058     9A    -11.344813
      10A     -1.502541    11A     -1.309319    12A     -1.204707
      13A     -1.182110    14A     -1.083171    15A     -1.070479
      16A     -0.988954    17A     -0.966374    18A     -0.949656
      19A     -0.908330    20A     -0.856194    21A     -0.820555
      22A     -0.794779    23A     -0.725206    24A     -0.717334
      25A     -0.709079    26A     -0.689079    27A     -0.678813
      28A     -0.655770    29A     -0.641027    30A     -0.633208
      31A     -0.630432    32A     -0.486345    33A     -0.474778

  @DF-RHF Final Energy:  -364.29317289233688

   => Energetics <=

    Nuclear Repulsion Energy =            432.2531659588566413
    One-Electron Energy =               -1337.7618715855494429
    Two-Electron Energy =                 541.2155327343558611
    Total Energy =                       -364.2931728923368837
  Basis Set: (AUG-CC-PVTZ AUX)
    Blend: AUG-CC-PVTZ-RI
    Molecular point group: c1

    Geometry (in Angstrom), charge = 1, multiplicity = 1:

       Center              X                  Y                   Z               Mass
    ------------   -----------------  -----------------  -----------------  -----------------
         N           -2.808665532841    -0.000480161144     0.013469485508    14.003074004430
         C           -1.318233532841    -0.000436161144    -0.014567514492    12.000000000000
         C            0.733207467159     1.229873838856    -0.012685514492    12.000000000000
         C            0.733273467159    -1.230633161144    -0.012677514492    12.000000000000
         C           -0.667424532841    -1.226833161144    -0.006689514492    12.000000000000
         C           -0.667493532841     1.225994838856    -0.006696514492    12.000000000000
         C            1.404049467159    -0.000360161144    -0.010488514492    12.000000000000
         C            1.499424467159     2.524923838856     0.013731485508    12.000000000000
         C            1.499573467159    -2.525634161144     0.013727485508    12.000000000000
         H           -1.219024532841    -2.166364161144    -0.013550514492     1.007825032230
         H           -1.219143532841     2.165496838856    -0.013562514492     1.007825032230
         H            2.493106467159    -0.000331161144    -0.023718514492     1.007825032230
         H           -3.190526532841     0.828156838856    -0.463325514492     1.007825032230
         H           -3.190485532841    -0.828994161144    -0.463572514492     1.007825032230
         H           -3.177613532841    -0.000632161144     0.975295485508     1.007825032230
         H            0.903003767159     3.408581538856    -0.225624114492     1.007825032230
         H            1.840965467159     2.749159838856     1.029226485508     1.007825032230
         H            2.381440467159     2.467178838856    -0.628714514492     1.007825032230
         H            2.381409467159    -2.467934161144    -0.628971514492     1.007825032230
         H            0.883193467159    -3.360992161144    -0.327025514492     1.007825032230
         H            1.841410467159    -2.749692161144     1.029160485508     1.007825032230

  Basis Set: AUG-CC-PVTZ
    Blend: AUG-CC-PVTZ
  Basis Set: (AUG-CC-PVTZ AUX)
    Blend: AUG-CC-PVTZ-JKFIT
	 Reference Energy          =    -364.2931728923368837 [Eh]
	 Singles Energy            =      -0.0000000000000000 [Eh]
	 Same-Spin Energy          =      -0.3972085294979723 [Eh]
	 Opposite-Spin Energy      =      -1.3053341073287632 [Eh]
	 Correlation Energy        =      -1.7025426368267356 [Eh]
	 Total Energy              =    -365.9957155291636468 [Eh]

	 ================> DF-SCS-MP2 Energies <==================
	-----------------------------------------------------------
	 SCS Same-Spin Scale       =       0.3333333333333333 [-]
	 SCS Opposite-Spin Scale   =       1.2000000000000000 [-]
	 SCS Same-Spin Energy      =      -0.1324028431659907 [Eh]
	 SCS Opposite-Spin Energy  =      -1.5664009287945158 [Eh]
	 SCS Correlation Energy    =      -1.6988037719605065 [Eh]
	 SCS Total Energy          =    -365.9919766642973968 [Eh]
	-----------------------------------------------------------

  Dipole Moment: [D]
     X:    -8.3718      Y:     0.0234      Z:     0.2049     Total:     8.3743

*** Psi4 exiting successfully. Buy a developer a beer!
