                               Psi4 1.4a3.dev225

  ==> Input File <==

--------------------------------------------------------------------------
#psi4
#
memory 32 gb

molecule  {
1 1
  N       -2.8138210    -0.0000810     0.0131690
  C       -1.3233890    -0.0000370    -0.0148680
  C        0.7280520     1.2302730    -0.0129860
  C        0.7281180    -1.2302340    -0.0129780
  C       -0.6725800    -1.2264340    -0.0069900
  C       -0.6726490     1.2263940    -0.0069970
  C        1.3988940     0.0000390    -0.0107890
  C        1.4942690     2.5253230     0.0134310
  C        1.4944180    -2.5252350     0.0134270
  H       -1.2241800    -2.1659650    -0.0138510
  H       -1.2242990     2.1658960    -0.0138630
  H        2.4879510     0.0000680    -0.0240190
  H       -3.2135219     0.8067325    -0.4859119
  H       -3.1956410    -0.8285950    -0.4638730
  H       -3.1827690    -0.0002330     0.9749950
  H        0.8779320     3.3605910    -0.3276200
  H        1.8358100     2.7495590     1.0289260
  H        2.3762850     2.4675780    -0.6290150
  H        2.3762540    -2.4675350    -0.6292720
  H        0.8780380    -3.3605930    -0.3273260
  H        1.8362550    -2.7492930     1.0288600
units angstrom
no_reorient  #important for SAPT in psi4, default
symmetry c1  #important for SAPT in psi4, default
}

set PROPERTIES_ORIGIN ["COM"]
properties('MP2/aug-cc-pvtz', properties = ['dipole'])
--------------------------------------------------------------------------

    Molecular point group: c1
  Charge       = 1
  Multiplicity = 1
  Basis Set: AUG-CC-PVTZ
    Blend: AUG-CC-PVTZ
  Basis Set: (AUG-CC-PVTZ AUX)
    Blend: AUG-CC-PVTZ-JKFIT

    Orbital Energies [Eh]
    ---------------------

    Doubly Occupied:

       1A    -15.888663     2A    -11.458900     3A    -11.394769
       4A    -11.394633     5A    -11.393506     6A    -11.393298
       7A    -11.371513     8A    -11.344932     9A    -11.344851
      10A     -1.502480    11A     -1.309236    12A     -1.204718
      13A     -1.182195    14A     -1.082769    15A     -1.070304
      16A     -0.989323    17A     -0.963748    18A     -0.951975
      19A     -0.906301    20A     -0.856228    21A     -0.820497
      22A     -0.794526    23A     -0.723938    24A     -0.715288
      25A     -0.710660    26A     -0.690245    27A     -0.679008
      28A     -0.656751    29A     -0.641047    30A     -0.634636
      31A     -0.628382    32A     -0.486432    33A     -0.474854

  @DF-RHF Final Energy:  -364.29422714262409

   => Energetics <=

    Nuclear Repulsion Energy =            432.3025042559969506
    One-Electron Energy =               -1337.8722511751848288
    Two-Electron Energy =                 541.2755197765637831
    Total Energy =                       -364.2942271426240950
  Basis Set: (AUG-CC-PVTZ AUX)
    Blend: AUG-CC-PVTZ-RI
    Molecular point group: c1

    Geometry (in Angstrom), charge = 1, multiplicity = 1:

       Center              X                  Y                   Z               Mass
    ------------   -----------------  -----------------  -----------------  -----------------
         N           -2.808353881847     0.000099399659     0.014492864329    14.003074004430
         C           -1.317921881847     0.000143399659    -0.013544135671    12.000000000000
         C            0.733519118153     1.230453399659    -0.011662135671    12.000000000000
         C            0.733585118153    -1.230053600341    -0.011654135671    12.000000000000
         C           -0.667112881847    -1.226253600341    -0.005666135671    12.000000000000
         C           -0.667181881847     1.226574399659    -0.005673135671    12.000000000000
         C            1.404361118153     0.000219399659    -0.009465135671    12.000000000000
         C            1.499736118153     2.525503399659     0.014754864329    12.000000000000
         C            1.499885118153    -2.525054600341     0.014750864329    12.000000000000
         H           -1.218712881847    -2.165784600341    -0.012527135671     1.007825032230
         H           -1.218831881847     2.166076399659    -0.012539135671     1.007825032230
         H            2.493418118153     0.000248399659    -0.022695135671     1.007825032230
         H           -3.208054781847     0.806912899659    -0.484588035671     1.007825032230
         H           -3.190173881847    -0.828414600341    -0.462549135671     1.007825032230
         H           -3.177301881847    -0.000052600341     0.976318864329     1.007825032230
         H            0.883399118153     3.360771399659    -0.326296135671     1.007825032230
         H            1.841277118153     2.749739399659     1.030249864329     1.007825032230
         H            2.381752118153     2.467758399659    -0.627691135671     1.007825032230
         H            2.381721118153    -2.467354600341    -0.627948135671     1.007825032230
         H            0.883505118153    -3.360412600341    -0.326002135671     1.007825032230
         H            1.841722118153    -2.749112600341     1.030183864329     1.007825032230

  Basis Set: AUG-CC-PVTZ
    Blend: AUG-CC-PVTZ
  Basis Set: (AUG-CC-PVTZ AUX)
    Blend: AUG-CC-PVTZ-JKFIT
	 Reference Energy          =    -364.2942271426240950 [Eh]
	 Singles Energy            =      -0.0000000000000000 [Eh]
	 Same-Spin Energy          =      -0.3971462702199827 [Eh]
	 Opposite-Spin Energy      =      -1.3053037263865441 [Eh]
	 Correlation Energy        =      -1.7024499966065267 [Eh]
	 Total Energy              =    -365.9966771392305986 [Eh]

	 ================> DF-SCS-MP2 Energies <==================
	-----------------------------------------------------------
	 SCS Same-Spin Scale       =       0.3333333333333333 [-]
	 SCS Opposite-Spin Scale   =       1.2000000000000000 [-]
	 SCS Same-Spin Energy      =      -0.1323820900733275 [Eh]
	 SCS Opposite-Spin Energy  =      -1.5663644716638530 [Eh]
	 SCS Correlation Energy    =      -1.6987465617371804 [Eh]
	 SCS Total Energy          =    -365.9929737043612477 [Eh]
	-----------------------------------------------------------

  Dipole Moment: [D]
     X:    -8.3888      Y:    -0.0167      Z:     0.1441     Total:     8.3900

*** Psi4 exiting successfully. Buy a developer a beer!
