                               Psi4 1.4a3.dev225

  ==> Input File <==

--------------------------------------------------------------------------
#psi4
#
memory 32 gb

molecule  {
1 1
  N       -2.8138210    -0.0000810     0.0131690
  C       -1.3233890    -0.0000370    -0.0148680
  C        0.7280520     1.2302730    -0.0129860
  C        0.7281180    -1.2302340    -0.0129780
  C       -0.6225806    -1.2265696    -0.0072037
  C       -0.6726490     1.2263940    -0.0069970
  C        1.3988940     0.0000390    -0.0107890
  C        1.4942690     2.5253230     0.0134310
  C        1.4944180    -2.5252350     0.0134270
  H       -1.2241800    -2.1659650    -0.0138510
  H       -1.2242990     2.1658960    -0.0138630
  H        2.4879510     0.0000680    -0.0240190
  H       -3.1956820     0.8285560    -0.4636260
  H       -3.1956410    -0.8285950    -0.4638730
  H       -3.1827690    -0.0002330     0.9749950
  H        0.8779320     3.3605910    -0.3276200
  H        1.8358100     2.7495590     1.0289260
  H        2.3762850     2.4675780    -0.6290150
  H        2.3762540    -2.4675350    -0.6292720
  H        0.8780380    -3.3605930    -0.3273260
  H        1.8362550    -2.7492930     1.0288600
units angstrom
no_reorient  #important for SAPT in psi4, default
symmetry c1  #important for SAPT in psi4, default
}

set PROPERTIES_ORIGIN ["COM"]
properties('MP2/aug-cc-pvtz', properties = ['dipole'])
--------------------------------------------------------------------------

    Molecular point group: c1
  Charge       = 1
  Multiplicity = 1
  Basis Set: AUG-CC-PVTZ
    Blend: AUG-CC-PVTZ
  Basis Set: (AUG-CC-PVTZ AUX)
    Blend: AUG-CC-PVTZ-JKFIT

    Orbital Energies [Eh]
    ---------------------

    Doubly Occupied:

       1A    -15.890703     2A    -11.459413     3A    -11.396569
       4A    -11.393149     5A    -11.392629     6A    -11.387178
       7A    -11.372677     8A    -11.344558     9A    -11.344005
      10A     -1.502971    11A     -1.312160    12A     -1.209032
      13A     -1.179004    14A     -1.080475    15A     -1.070177
      16A     -0.992630    17A     -0.967403    18A     -0.950658
      19A     -0.907328    20A     -0.854762    21A     -0.821427
      22A     -0.795376    23A     -0.723237    24A     -0.711486
      25A     -0.711020    26A     -0.690219    27A     -0.678782
      28A     -0.655351    29A     -0.644100    30A     -0.634146
      31A     -0.625323    32A     -0.486133    33A     -0.478077

  @DF-RHF Final Energy:  -364.29124580589144

   => Energetics <=

    Nuclear Repulsion Energy =            432.7473274168642092
    One-Electron Energy =               -1338.7528282851462791
    Two-Electron Energy =                 541.7142550623906345
    Total Energy =                       -364.2912458058914353
  Basis Set: (AUG-CC-PVTZ AUX)
    Blend: AUG-CC-PVTZ-RI
    Molecular point group: c1

    Geometry (in Angstrom), charge = 1, multiplicity = 1:

       Center              X                  Y                   Z               Mass
    ------------   -----------------  -----------------  -----------------  -----------------
         N           -2.813415205445    -0.000067410941     0.014329912807    14.003074004430
         C           -1.322983205445    -0.000023410941    -0.013707087193    12.000000000000
         C            0.728457794555     1.230286589059    -0.011825087193    12.000000000000
         C            0.728523794555    -1.230220410941    -0.011817087193    12.000000000000
         C           -0.622174805445    -1.226556010941    -0.006042787193    12.000000000000
         C           -0.672243205445     1.226407589059    -0.005836087193    12.000000000000
         C            1.399299794555     0.000052589059    -0.009628087193    12.000000000000
         C            1.494674794555     2.525336589059     0.014591912807    12.000000000000
         C            1.494823794555    -2.525221410941     0.014587912807    12.000000000000
         H           -1.223774205445    -2.165951410941    -0.012690087193     1.007825032230
         H           -1.223893205445     2.165909589059    -0.012702087193     1.007825032230
         H            2.488356794555     0.000081589059    -0.022858087193     1.007825032230
         H           -3.195276205445     0.828569589059    -0.462465087193     1.007825032230
         H           -3.195235205445    -0.828581410941    -0.462712087193     1.007825032230
         H           -3.182363205445    -0.000219410941     0.976155912807     1.007825032230
         H            0.878337794555     3.360604589059    -0.326459087193     1.007825032230
         H            1.836215794555     2.749572589059     1.030086912807     1.007825032230
         H            2.376690794555     2.467591589059    -0.627854087193     1.007825032230
         H            2.376659794555    -2.467521410941    -0.628111087193     1.007825032230
         H            0.878443794555    -3.360579410941    -0.326165087193     1.007825032230
         H            1.836660794555    -2.749279410941     1.030020912807     1.007825032230

  Basis Set: AUG-CC-PVTZ
    Blend: AUG-CC-PVTZ
  Basis Set: (AUG-CC-PVTZ AUX)
    Blend: AUG-CC-PVTZ-JKFIT
	 Reference Energy          =    -364.2912458058914353 [Eh]
	 Singles Energy            =      -0.0000000000000000 [Eh]
	 Same-Spin Energy          =      -0.3971640434275605 [Eh]
	 Opposite-Spin Energy      =      -1.3054832538503107 [Eh]
	 Correlation Energy        =      -1.7026472972778712 [Eh]
	 Total Energy              =    -365.9938931031692846 [Eh]

	 ================> DF-SCS-MP2 Energies <==================
	-----------------------------------------------------------
	 SCS Same-Spin Scale       =       0.3333333333333333 [-]
	 SCS Opposite-Spin Scale   =       1.2000000000000000 [-]
	 SCS Same-Spin Energy      =      -0.1323880144758535 [Eh]
	 SCS Opposite-Spin Energy  =      -1.5665799046203728 [Eh]
	 SCS Correlation Energy    =      -1.6989679190962264 [Eh]
	 SCS Total Energy          =    -365.9902137249876546 [Eh]
	-----------------------------------------------------------

  Dipole Moment: [D]
     X:    -8.4357      Y:     0.0357      Z:     0.1698     Total:     8.4375

*** Psi4 exiting successfully. Buy a developer a beer!
