                               Psi4 1.4a3.dev225

  ==> Input File <==

--------------------------------------------------------------------------
#psi4
#
memory 32 gb

molecule  {
1 1
  N       -2.8138210    -0.0000810     0.0131690
  C       -1.3233890    -0.0000370    -0.0148680
  C        0.7280520     1.2302730    -0.0129860
  C        0.7281180    -1.2302340    -0.0129780
  C       -0.6725800    -1.2264340    -0.0069900
  C       -0.6726490     1.2263940    -0.0069970
  C        1.3988940     0.0000390    -0.0107890
  C        1.4942690     2.5253230     0.0134310
  C        1.4944180    -2.5252350     0.0134270
  H       -1.2241800    -2.1659650    -0.0138510
  H       -1.2242990     2.1658960    -0.0138630
  H        2.4879510     0.0000680    -0.0240190
  H       -3.1956820     0.8285560    -0.4636260
  H       -3.1956410    -0.8285950    -0.4638730
  H       -3.1827690    -0.0002330     0.9749950
  H        0.8779320     3.3605910    -0.3276200
  H        1.8358100     2.7495590     1.0289260
  H        2.3762850     2.4675780    -0.6290150
  H        2.3872903    -2.4713201    -0.6141861
  H        0.8780380    -3.3605930    -0.3273260
  H        1.8362550    -2.7492930     1.0288600
units angstrom
no_reorient  #important for SAPT in psi4, default
symmetry c1  #important for SAPT in psi4, default
}

set PROPERTIES_ORIGIN ["COM"]
properties('MP2/aug-cc-pvtz', properties = ['dipole'])
--------------------------------------------------------------------------

    Molecular point group: c1
  Charge       = 1
  Multiplicity = 1
  Basis Set: AUG-CC-PVTZ
    Blend: AUG-CC-PVTZ
  Basis Set: (AUG-CC-PVTZ AUX)
    Blend: AUG-CC-PVTZ-JKFIT

    Orbital Energies [Eh]
    ---------------------

    Doubly Occupied:

       1A    -15.888731     2A    -11.458957     3A    -11.394950
       4A    -11.394835     5A    -11.393590     6A    -11.393512
       7A    -11.371560     8A    -11.344983     9A    -11.344961
      10A     -1.502570    11A     -1.309268    12A     -1.204846
      13A     -1.182060    14A     -1.083106    15A     -1.070385
      16A     -0.988910    17A     -0.966105    18A     -0.949684
      19A     -0.907862    20A     -0.856066    21A     -0.820521
      22A     -0.794957    23A     -0.724155    24A     -0.715529
      25A     -0.710192    26A     -0.689447    27A     -0.679314
      28A     -0.657671    29A     -0.641548    30A     -0.634322
      31A     -0.628456    32A     -0.486390    33A     -0.474957

  @DF-RHF Final Energy:  -364.29434733498670

   => Energetics <=

    Nuclear Repulsion Energy =            432.3239044788436445
    One-Electron Energy =               -1337.9077066588506568
    Two-Electron Energy =                 541.2894548450203729
    Total Energy =                       -364.2943473349866963
  Basis Set: (AUG-CC-PVTZ AUX)
    Blend: AUG-CC-PVTZ-RI
    Molecular point group: c1

    Geometry (in Angstrom), charge = 1, multiplicity = 1:

       Center              X                  Y                   Z               Mass
    ------------   -----------------  -----------------  -----------------  -----------------
         N           -2.808592234659    -0.000049494703     0.014184386288    14.003074004430
         C           -1.318160234659    -0.000005494703    -0.013852613712    12.000000000000
         C            0.733280765341     1.230304505297    -0.011970613712    12.000000000000
         C            0.733346765341    -1.230202494703    -0.011962613712    12.000000000000
         C           -0.667351234659    -1.226402494703    -0.005974613712    12.000000000000
         C           -0.667420234659     1.226425505297    -0.005981613712    12.000000000000
         C            1.404122765341     0.000070505297    -0.009773613712    12.000000000000
         C            1.499497765341     2.525354505297     0.014446386288    12.000000000000
         C            1.499646765341    -2.525203494703     0.014442386288    12.000000000000
         H           -1.218951234659    -2.165933494703    -0.012835613712     1.007825032230
         H           -1.219070234659     2.165927505297    -0.012847613712     1.007825032230
         H            2.493179765341     0.000099505297    -0.023003613712     1.007825032230
         H           -3.190453234659     0.828587505297    -0.462610613712     1.007825032230
         H           -3.190412234659    -0.828563494703    -0.462857613712     1.007825032230
         H           -3.177540234659    -0.000201494703     0.976010386288     1.007825032230
         H            0.883160765341     3.360622505297    -0.326604613712     1.007825032230
         H            1.841038765341     2.749590505297     1.029941386288     1.007825032230
         H            2.381513765341     2.467609505297    -0.627999613712     1.007825032230
         H            2.392519065341    -2.471288594703    -0.613170713712     1.007825032230
         H            0.883266765341    -3.360561494703    -0.326310613712     1.007825032230
         H            1.841483765341    -2.749261494703     1.029875386288     1.007825032230

  Basis Set: AUG-CC-PVTZ
    Blend: AUG-CC-PVTZ
  Basis Set: (AUG-CC-PVTZ AUX)
    Blend: AUG-CC-PVTZ-JKFIT
	 Reference Energy          =    -364.2943473349866963 [Eh]
	 Singles Energy            =      -0.0000000000000000 [Eh]
	 Same-Spin Energy          =      -0.3971585952452638 [Eh]
	 Opposite-Spin Energy      =      -1.3052990489497234 [Eh]
	 Correlation Energy        =      -1.7024576441949870 [Eh]
	 Total Energy              =    -365.9968049791816611 [Eh]

	 ================> DF-SCS-MP2 Energies <==================
	-----------------------------------------------------------
	 SCS Same-Spin Scale       =       0.3333333333333333 [-]
	 SCS Opposite-Spin Scale   =       1.2000000000000000 [-]
	 SCS Same-Spin Energy      =      -0.1323861984150879 [Eh]
	 SCS Opposite-Spin Energy  =      -1.5663588587396680 [Eh]
	 SCS Correlation Energy    =      -1.6987450571547558 [Eh]
	 SCS Total Energy          =    -365.9930923921414774 [Eh]
	-----------------------------------------------------------

  Dipole Moment: [D]
     X:    -8.3611      Y:    -0.0006      Z:     0.1750     Total:     8.3629

*** Psi4 exiting successfully. Buy a developer a beer!
