                               Psi4 1.4a3.dev225

  ==> Input File <==

--------------------------------------------------------------------------
#psi4
#
memory 32 gb

molecule  {
1 1
  N       -2.8138210    -0.0000810     0.0131690
  C       -1.3233890    -0.0000370    -0.0148680
  C        0.7280520     1.2302730    -0.0129860
  C        0.7281180    -1.2302340    -0.0129780
  C       -0.6725800    -1.2264340    -0.0069900
  C       -0.6726490     1.2263940    -0.0069970
  C        1.3988940     0.0000390    -0.0107890
  C        1.4942690     2.5253230     0.0134310
  C        1.4944180    -2.5252350     0.0134270
  H       -1.2241800    -2.1659650    -0.0138510
  H       -1.2242990     2.1658960    -0.0138630
  H        2.4879510     0.0000680    -0.0240190
  H       -3.1956820     0.8285560    -0.4636260
  H       -3.1956410    -0.8285950    -0.4638730
  H       -3.1827690    -0.0002330     0.9749950
  H        0.8779320     3.3605910    -0.3276200
  H        1.8358100     2.7495590     1.0289260
  H        2.3762850     2.4675780    -0.6290150
  H        2.3762540    -2.4675350    -0.6292720
  H        0.8780380    -3.3605930    -0.3273260
  H        1.7737965    -2.7083544     0.8433257
units angstrom
no_reorient  #important for SAPT in psi4, default
symmetry c1  #important for SAPT in psi4, default
}

set PROPERTIES_ORIGIN ["COM"]
properties('MP2/aug-cc-pvtz', properties = ['dipole'])
--------------------------------------------------------------------------

    Molecular point group: c1
  Charge       = 1
  Multiplicity = 1
  Basis Set: AUG-CC-PVTZ
    Blend: AUG-CC-PVTZ
  Basis Set: (AUG-CC-PVTZ AUX)
    Blend: AUG-CC-PVTZ-JKFIT

    Orbital Energies [Eh]
    ---------------------

    Doubly Occupied:

       1A    -15.888648     2A    -11.458800     3A    -11.394830
       4A    -11.394273     5A    -11.393522     6A    -11.393084
       7A    -11.371541     8A    -11.344979     9A    -11.321448
      10A     -1.502497    11A     -1.309479    12A     -1.207823
      13A     -1.183775    14A     -1.095920    15A     -1.075743
      16A     -0.989881    17A     -0.969377    18A     -0.949618
      19A     -0.910266    20A     -0.858121    21A     -0.820541
      22A     -0.795024    23A     -0.740335    24A     -0.722768
      25A     -0.714118    26A     -0.699107    27A     -0.678582
      28A     -0.657452    29A     -0.641648    30A     -0.638692
      31A     -0.628118    32A     -0.487457    33A     -0.476007

  @DF-RHF Final Energy:  -364.26052048853830

   => Energetics <=

    Nuclear Repulsion Energy =            433.3303729628308361
    One-Electron Energy =               -1339.7548349003891417
    Two-Electron Energy =                 542.1639414490200579
    Total Energy =                       -364.2605204885383046
  Basis Set: (AUG-CC-PVTZ AUX)
    Blend: AUG-CC-PVTZ-RI
    Molecular point group: c1

    Geometry (in Angstrom), charge = 1, multiplicity = 1:

       Center              X                  Y                   Z               Mass
    ------------   -----------------  -----------------  -----------------  -----------------
         N           -2.807985586545    -0.000418657531     0.015840365566    14.003074004430
         C           -1.317553586545    -0.000374657531    -0.012196634434    12.000000000000
         C            0.733887413455     1.229935342469    -0.010314634434    12.000000000000
         C            0.733953413455    -1.230571657531    -0.010306634434    12.000000000000
         C           -0.666744586545    -1.226771657531    -0.004318634434    12.000000000000
         C           -0.666813586545     1.226056342469    -0.004325634434    12.000000000000
         C            1.404729413455    -0.000298657531    -0.008117634434    12.000000000000
         C            1.500104413455     2.524985342469     0.016102365566    12.000000000000
         C            1.500253413455    -2.525572657531     0.016098365566    12.000000000000
         H           -1.218344586545    -2.166302657531    -0.011179634434     1.007825032230
         H           -1.218463586545     2.165558342469    -0.011191634434     1.007825032230
         H            2.493786413455    -0.000269657531    -0.021347634434     1.007825032230
         H           -3.189846586545     0.828218342469    -0.460954634434     1.007825032230
         H           -3.189805586545    -0.828932657531    -0.461201634434     1.007825032230
         H           -3.176933586545    -0.000570657531     0.977666365566     1.007825032230
         H            0.883767413455     3.360253342469    -0.324948634434     1.007825032230
         H            1.841645413455     2.749221342469     1.031597365566     1.007825032230
         H            2.382120413455     2.467240342469    -0.626343634434     1.007825032230
         H            2.382089413455    -2.467872657531    -0.626600634434     1.007825032230
         H            0.883873413455    -3.360930657531    -0.324654634434     1.007825032230
         H            1.779631913455    -2.708692057531     0.845997065566     1.007825032230

  Basis Set: AUG-CC-PVTZ
    Blend: AUG-CC-PVTZ
  Basis Set: (AUG-CC-PVTZ AUX)
    Blend: AUG-CC-PVTZ-JKFIT
	 Reference Energy          =    -364.2605204885383046 [Eh]
	 Singles Energy            =      -0.0000000000000000 [Eh]
	 Same-Spin Energy          =      -0.3972331243011913 [Eh]
	 Opposite-Spin Energy      =      -1.3046827936158925 [Eh]
	 Correlation Energy        =      -1.7019159179170837 [Eh]
	 Total Energy              =    -365.9624364064553674 [Eh]

	 ================> DF-SCS-MP2 Energies <==================
	-----------------------------------------------------------
	 SCS Same-Spin Scale       =       0.3333333333333333 [-]
	 SCS Opposite-Spin Scale   =       1.2000000000000000 [-]
	 SCS Same-Spin Energy      =      -0.1324110414337304 [Eh]
	 SCS Opposite-Spin Energy  =      -1.5656193523390709 [Eh]
	 SCS Correlation Energy    =      -1.6980303937728014 [Eh]
	 SCS Total Energy          =    -365.9585508823111013 [Eh]
	-----------------------------------------------------------

  Dipole Moment: [D]
     X:    -8.3683      Y:     0.0054      Z:     0.1776     Total:     8.3702

*** Psi4 exiting successfully. Buy a developer a beer!
