                               Psi4 1.4a3.dev225

  ==> Input File <==

--------------------------------------------------------------------------
#psi4
#
memory 32 gb

molecule  {
1 1
  N       -2.8138210    -0.0000810     0.0131690
  C       -1.3233890    -0.0000370    -0.0148680
  C        0.7280520     1.2302730    -0.0129860
  C        0.7281180    -1.2302340    -0.0129780
  C       -0.6725800    -1.2264340    -0.0069900
  C       -0.6726490     1.2263940    -0.0069970
  C        1.3988940     0.0000390    -0.0107890
  C        1.4942690     2.5253230     0.0134310
  C        1.4944180    -2.5252350     0.0134270
  H       -1.2241800    -2.1659650    -0.0138510
  H       -1.2242990     2.1658960    -0.0138630
  H        2.4879510     0.0000680    -0.0240190
  H       -3.1956820     0.8285560    -0.4636260
  H       -3.1956410    -0.8285950    -0.4638730
  H       -3.1827690    -0.0002330     0.9749950
  H        0.9061361     3.3223685    -0.3120132
  H        1.8358100     2.7495590     1.0289260
  H        2.3762850     2.4675780    -0.6290150
  H        2.3762540    -2.4675350    -0.6292720
  H        0.8780380    -3.3605930    -0.3273260
  H        1.8362550    -2.7492930     1.0288600
units angstrom
no_reorient  #important for SAPT in psi4, default
symmetry c1  #important for SAPT in psi4, default
}

set PROPERTIES_ORIGIN ["COM"]
properties('MP2/aug-cc-pvtz', properties = ['dipole'])
--------------------------------------------------------------------------

    Molecular point group: c1
  Charge       = 1
  Multiplicity = 1
  Basis Set: AUG-CC-PVTZ
    Blend: AUG-CC-PVTZ
  Basis Set: (AUG-CC-PVTZ AUX)
    Blend: AUG-CC-PVTZ-JKFIT

    Orbital Energies [Eh]
    ---------------------

    Doubly Occupied:

       1A    -15.888675     2A    -11.458879     3A    -11.394692
       4A    -11.394585     5A    -11.393395     6A    -11.393370
       7A    -11.371259     8A    -11.344871     9A    -11.339028
      10A     -1.502515    11A     -1.309187    12A     -1.205310
      13A     -1.182174    14A     -1.084529    15A     -1.072465
      16A     -0.988814    17A     -0.966735    18A     -0.949634
      19A     -0.908675    20A     -0.856113    21A     -0.820359
      22A     -0.795277    23A     -0.724756    24A     -0.716338
      25A     -0.710955    26A     -0.691077    27A     -0.682644
      28A     -0.658526    29A     -0.641421    30A     -0.634771
      31A     -0.629559    32A     -0.486249    33A     -0.474981

  @DF-RHF Final Energy:  -364.29343491640827

   => Energetics <=

    Nuclear Repulsion Energy =            432.5572533336683705
    One-Electron Energy =               -1338.3577414149378910
    Two-Electron Energy =                 541.5070531648613041
    Total Energy =                       -364.2934349164082732
  Basis Set: (AUG-CC-PVTZ AUX)
    Blend: AUG-CC-PVTZ-RI
    Molecular point group: c1

    Geometry (in Angstrom), charge = 1, multiplicity = 1:

       Center              X                  Y                   Z               Mass
    ------------   -----------------  -----------------  -----------------  -----------------
         N           -2.808733942827     0.000234761921     0.014180086623    14.003074004430
         C           -1.318301942827     0.000278761921    -0.013856913377    12.000000000000
         C            0.733139057173     1.230588761921    -0.011974913377    12.000000000000
         C            0.733205057173    -1.229918238079    -0.011966913377    12.000000000000
         C           -0.667492942827    -1.226118238079    -0.005978913377    12.000000000000
         C           -0.667561942827     1.226709761921    -0.005985913377    12.000000000000
         C            1.403981057173     0.000354761921    -0.009777913377    12.000000000000
         C            1.499356057173     2.525638761921     0.014442086623    12.000000000000
         C            1.499505057173    -2.524919238079     0.014438086623    12.000000000000
         H           -1.219092942827    -2.165649238079    -0.012839913377     1.007825032230
         H           -1.219211942827     2.166211761921    -0.012851913377     1.007825032230
         H            2.493038057173     0.000383761921    -0.023007913377     1.007825032230
         H           -3.190594942827     0.828871761921    -0.462614913377     1.007825032230
         H           -3.190553942827    -0.828279238079    -0.462861913377     1.007825032230
         H           -3.177681942827     0.000082761921     0.976006086623     1.007825032230
         H            0.911223157173     3.322684261921    -0.311002113377     1.007825032230
         H            1.840897057173     2.749874761921     1.029937086623     1.007825032230
         H            2.381372057173     2.467893761921    -0.628003913377     1.007825032230
         H            2.381341057173    -2.467219238079    -0.628260913377     1.007825032230
         H            0.883125057173    -3.360277238079    -0.326314913377     1.007825032230
         H            1.841342057173    -2.748977238079     1.029871086623     1.007825032230

  Basis Set: AUG-CC-PVTZ
    Blend: AUG-CC-PVTZ
  Basis Set: (AUG-CC-PVTZ AUX)
    Blend: AUG-CC-PVTZ-JKFIT
	 Reference Energy          =    -364.2934349164082732 [Eh]
	 Singles Energy            =      -0.0000000000000000 [Eh]
	 Same-Spin Energy          =      -0.3971460025110484 [Eh]
	 Opposite-Spin Energy      =      -1.3050017079575174 [Eh]
	 Correlation Energy        =      -1.7021477104685658 [Eh]
	 Total Energy              =    -365.9955826268768533 [Eh]

	 ================> DF-SCS-MP2 Energies <==================
	-----------------------------------------------------------
	 SCS Same-Spin Scale       =       0.3333333333333333 [-]
	 SCS Opposite-Spin Scale   =       1.2000000000000000 [-]
	 SCS Same-Spin Energy      =      -0.1323820008370161 [Eh]
	 SCS Opposite-Spin Energy  =      -1.5660020495490208 [Eh]
	 SCS Correlation Energy    =      -1.6983840503860368 [Eh]
	 SCS Total Energy          =    -365.9918189667943125 [Eh]
	-----------------------------------------------------------

  Dipole Moment: [D]
     X:    -8.3717      Y:     0.0170      Z:     0.1666     Total:     8.3734

*** Psi4 exiting successfully. Buy a developer a beer!
