                               Psi4 1.4a3.dev225

  ==> Input File <==

--------------------------------------------------------------------------
#psi4
#
memory 32 gb

molecule  {
1 1
  N       -2.8138210    -0.0000810     0.0131690
  C       -1.3233890    -0.0000370    -0.0148680
  C        0.7280520     1.2302730    -0.0129860
  C        0.7281180    -1.2302340    -0.0129780
  C       -0.6725800    -1.2264340    -0.0069900
  C       -0.6726490     1.2263940    -0.0069970
  C        1.3988940     0.0000390    -0.0107890
  C        1.4942690     2.5253230     0.0134310
  C        1.4944180    -2.5252350     0.0134270
  H       -1.2241800    -2.1659650    -0.0138510
  H       -1.2242990     2.1658960    -0.0138630
  H        2.4879510     0.0000680    -0.0240190
  H       -3.1956820     0.8285560    -0.4636260
  H       -3.1585517    -0.7481147    -0.4175340
  H       -3.1827690    -0.0002330     0.9749950
  H        0.8779320     3.3605910    -0.3276200
  H        1.8358100     2.7495590     1.0289260
  H        2.3762850     2.4675780    -0.6290150
  H        2.3762540    -2.4675350    -0.6292720
  H        0.8780380    -3.3605930    -0.3273260
  H        1.8362550    -2.7492930     1.0288600
units angstrom
no_reorient  #important for SAPT in psi4, default
symmetry c1  #important for SAPT in psi4, default
}

set PROPERTIES_ORIGIN ["COM"]
properties('MP2/aug-cc-pvtz', properties = ['dipole'])
--------------------------------------------------------------------------

    Molecular point group: c1
  Charge       = 1
  Multiplicity = 1
  Basis Set: AUG-CC-PVTZ
    Blend: AUG-CC-PVTZ
  Basis Set: (AUG-CC-PVTZ AUX)
    Blend: AUG-CC-PVTZ-JKFIT

    Orbital Energies [Eh]
    ---------------------

    Doubly Occupied:

       1A    -15.881964     2A    -11.459803     3A    -11.395452
       4A    -11.395368     5A    -11.394231     6A    -11.394112
       7A    -11.372189     8A    -11.345365     9A    -11.345266
      10A     -1.520946    11A     -1.311195    12A     -1.205458
      13A     -1.184974    14A     -1.084717    15A     -1.070896
      16A     -0.995676    17A     -0.981812    18A     -0.956723
      19A     -0.914758    20A     -0.857842    21A     -0.821603
      22A     -0.796860    23A     -0.724679    24A     -0.715898
      25A     -0.711222    26A     -0.690674    27A     -0.679492
      28A     -0.657383    29A     -0.641688    30A     -0.635495
      31A     -0.628946    32A     -0.487252    33A     -0.475522

  @DF-RHF Final Energy:  -364.28870199584793

   => Energetics <=

    Nuclear Repulsion Energy =            432.8952370419127647
    One-Electron Energy =               -1338.8969565098543626
    Two-Electron Energy =                 541.7130174720936111
    Total Energy =                       -364.2887019958479868
  Basis Set: (AUG-CC-PVTZ AUX)
    Blend: AUG-CC-PVTZ-RI
    Molecular point group: c1

    Geometry (in Angstrom), charge = 1, multiplicity = 1:

       Center              X                  Y                   Z               Mass
    ------------   -----------------  -----------------  -----------------  -----------------
         N           -2.808807283932    -0.000745046578     0.013926413830    14.003074004430
         C           -1.318375283932    -0.000701046578    -0.014110586170    12.000000000000
         C            0.733065716068     1.229608953422    -0.012228586170    12.000000000000
         C            0.733131716068    -1.230898046578    -0.012220586170    12.000000000000
         C           -0.667566283932    -1.227098046578    -0.006232586170    12.000000000000
         C           -0.667635283932     1.225729953422    -0.006239586170    12.000000000000
         C            1.403907716068    -0.000625046578    -0.010031586170    12.000000000000
         C            1.499282716068     2.524658953422     0.014188413830    12.000000000000
         C            1.499431716068    -2.525899046578     0.014184413830    12.000000000000
         H           -1.219166283932    -2.166629046578    -0.013093586170     1.007825032230
         H           -1.219285283932     2.165231953422    -0.013105586170     1.007825032230
         H            2.492964716068    -0.000596046578    -0.023261586170     1.007825032230
         H           -3.190668283932     0.827891953422    -0.462868586170     1.007825032230
         H           -3.153537983932    -0.748778746578    -0.416776586170     1.007825032230
         H           -3.177755283932    -0.000897046578     0.975752413830     1.007825032230
         H            0.882945716068     3.359926953422    -0.326862586170     1.007825032230
         H            1.840823716068     2.748894953422     1.029683413830     1.007825032230
         H            2.381298716068     2.466913953422    -0.628257586170     1.007825032230
         H            2.381267716068    -2.468199046578    -0.628514586170     1.007825032230
         H            0.883051716068    -3.361257046578    -0.326568586170     1.007825032230
         H            1.841268716068    -2.749957046578     1.029617413830     1.007825032230

  Basis Set: AUG-CC-PVTZ
    Blend: AUG-CC-PVTZ
  Basis Set: (AUG-CC-PVTZ AUX)
    Blend: AUG-CC-PVTZ-JKFIT
	 Reference Energy          =    -364.2887019958479300 [Eh]
	 Singles Energy            =      -0.0000000000000000 [Eh]
	 Same-Spin Energy          =      -0.3965977057607543 [Eh]
	 Opposite-Spin Energy      =      -1.3037153510577055 [Eh]
	 Correlation Energy        =      -1.7003130568184599 [Eh]
	 Total Energy              =    -365.9890150526663888 [Eh]

	 ================> DF-SCS-MP2 Energies <==================
	-----------------------------------------------------------
	 SCS Same-Spin Scale       =       0.3333333333333333 [-]
	 SCS Opposite-Spin Scale   =       1.2000000000000000 [-]
	 SCS Same-Spin Energy      =      -0.1321992352535848 [Eh]
	 SCS Opposite-Spin Energy  =      -1.5644584212692465 [Eh]
	 SCS Correlation Energy    =      -1.6966576565228313 [Eh]
	 SCS Total Energy          =    -365.9853596523707893 [Eh]
	-----------------------------------------------------------

  Dipole Moment: [D]
     X:    -8.2963      Y:     0.0995      Z:     0.2355     Total:     8.3002

*** Psi4 exiting successfully. Buy a developer a beer!
