                               Psi4 1.4a3.dev225

  ==> Input File <==

--------------------------------------------------------------------------
#psi4
#
memory 32 gb

molecule  {
1 1
  N       -2.8138210    -0.0000810     0.0131690
  C       -1.3233890    -0.0000370    -0.0148680
  C        0.7280520     1.2302730    -0.0129860
  C        0.7281180    -1.2302340    -0.0129780
  C       -0.6725800    -1.2264340    -0.0069900
  C       -0.6726490     1.2263940    -0.0069970
  C        1.3988940     0.0000390    -0.0107890
  C        1.4942690     2.5253230     0.0134310
  C        1.4944180    -2.5252350     0.0134270
  H       -1.2241800    -2.1659650    -0.0138510
  H       -1.1736661     2.0796643    -0.0132328
  H        2.4879510     0.0000680    -0.0240190
  H       -3.1956820     0.8285560    -0.4636260
  H       -3.1956410    -0.8285950    -0.4638730
  H       -3.1827690    -0.0002330     0.9749950
  H        0.8779320     3.3605910    -0.3276200
  H        1.8358100     2.7495590     1.0289260
  H        2.3762850     2.4675780    -0.6290150
  H        2.3762540    -2.4675350    -0.6292720
  H        0.8780380    -3.3605930    -0.3273260
  H        1.8362550    -2.7492930     1.0288600
units angstrom
no_reorient  #important for SAPT in psi4, default
symmetry c1  #important for SAPT in psi4, default
}

set PROPERTIES_ORIGIN ["COM"]
properties('MP2/aug-cc-pvtz', properties = ['dipole'])
--------------------------------------------------------------------------

    Molecular point group: c1
  Charge       = 1
  Multiplicity = 1
  Basis Set: AUG-CC-PVTZ
    Blend: AUG-CC-PVTZ
  Basis Set: (AUG-CC-PVTZ AUX)
    Blend: AUG-CC-PVTZ-JKFIT

    Orbital Energies [Eh]
    ---------------------

    Doubly Occupied:

       1A    -15.889027     2A    -11.458297     3A    -11.394590
       4A    -11.393784     5A    -11.393107     6A    -11.382288
       7A    -11.370909     8A    -11.344971     9A    -11.344828
      10A     -1.502895    11A     -1.309617    12A     -1.206801
      13A     -1.182382    14A     -1.086674    15A     -1.070570
      16A     -0.990580    17A     -0.966256    18A     -0.949992
      19A     -0.911669    20A     -0.863119    21A     -0.826117
      22A     -0.794623    23A     -0.732801    24A     -0.715910
      25A     -0.710522    26A     -0.690265    27A     -0.679631
      28A     -0.657115    29A     -0.640927    30A     -0.634299
      31A     -0.628921    32A     -0.486029    33A     -0.474774

  @DF-RHF Final Energy:  -364.28874086494358

   => Energetics <=

    Nuclear Repulsion Energy =            432.8847123224905999
    One-Electron Energy =               -1338.9783345658547660
    Two-Electron Energy =                 541.8048813784205322
    Total Energy =                       -364.2887408649436338
  Basis Set: (AUG-CC-PVTZ AUX)
    Blend: AUG-CC-PVTZ-RI
    Molecular point group: c1

    Geometry (in Angstrom), charge = 1, multiplicity = 1:

       Center              X                  Y                   Z               Mass
    ------------   -----------------  -----------------  -----------------  -----------------
         N           -2.808919076867     0.000631044252     0.014303707969    14.003074004430
         C           -1.318487076867     0.000675044252    -0.013733292031    12.000000000000
         C            0.732953923133     1.230985044252    -0.011851292031    12.000000000000
         C            0.733019923133    -1.229521955748    -0.011843292031    12.000000000000
         C           -0.667678076867    -1.225721955748    -0.005855292031    12.000000000000
         C           -0.667747076867     1.227106044252    -0.005862292031    12.000000000000
         C            1.403795923133     0.000751044252    -0.009654292031    12.000000000000
         C            1.499170923133     2.526035044252     0.014565707969    12.000000000000
         C            1.499319923133    -2.524522955748     0.014561707969    12.000000000000
         H           -1.219278076867    -2.165252955748    -0.012716292031     1.007825032230
         H           -1.168764176867     2.080376344252    -0.012098092031     1.007825032230
         H            2.492852923133     0.000780044252    -0.022884292031     1.007825032230
         H           -3.190780076867     0.829268044252    -0.462491292031     1.007825032230
         H           -3.190739076867    -0.827882955748    -0.462738292031     1.007825032230
         H           -3.177867076867     0.000479044252     0.976129707969     1.007825032230
         H            0.882833923133     3.361303044252    -0.326485292031     1.007825032230
         H            1.840711923133     2.750271044252     1.030060707969     1.007825032230
         H            2.381186923133     2.468290044252    -0.627880292031     1.007825032230
         H            2.381155923133    -2.466822955748    -0.628137292031     1.007825032230
         H            0.882939923133    -3.359880955748    -0.326191292031     1.007825032230
         H            1.841156923133    -2.748580955748     1.029994707969     1.007825032230

  Basis Set: AUG-CC-PVTZ
    Blend: AUG-CC-PVTZ
  Basis Set: (AUG-CC-PVTZ AUX)
    Blend: AUG-CC-PVTZ-JKFIT
	 Reference Energy          =    -364.2887408649435770 [Eh]
	 Singles Energy            =      -0.0000000000000000 [Eh]
	 Same-Spin Energy          =      -0.3969336739008560 [Eh]
	 Opposite-Spin Energy      =      -1.3047374400359601 [Eh]
	 Correlation Energy        =      -1.7016711139368161 [Eh]
	 Total Energy              =    -365.9904119788803882 [Eh]

	 ================> DF-SCS-MP2 Energies <==================
	-----------------------------------------------------------
	 SCS Same-Spin Scale       =       0.3333333333333333 [-]
	 SCS Opposite-Spin Scale   =       1.2000000000000000 [-]
	 SCS Same-Spin Energy      =      -0.1323112246336187 [Eh]
	 SCS Opposite-Spin Energy  =      -1.5656849280431522 [Eh]
	 SCS Correlation Energy    =      -1.6979961526767708 [Eh]
	 SCS Total Energy          =    -365.9867370176203281 [Eh]
	-----------------------------------------------------------

  Dipole Moment: [D]
     X:    -8.3862      Y:    -0.0024      Z:     0.1690     Total:     8.3879

*** Psi4 exiting successfully. Buy a developer a beer!
