                               Psi4 1.4a3.dev225

  ==> Input File <==

--------------------------------------------------------------------------
#psi4
#
memory 32 gb

molecule  {
1 1
  N       -2.8138210    -0.0000810     0.0131690
  C       -1.3233890    -0.0000370    -0.0148680
  C        0.7280520     1.2302730    -0.0129860
  C        0.7281180    -1.2302340    -0.0129780
  C       -0.6725800    -1.2264340    -0.0069900
  C       -0.6726490     1.2263940    -0.0069970
  C        1.3988940     0.0000390    -0.0107890
  C        1.4942690     2.5253230     0.0134310
  C        1.4944180    -2.5252350     0.0134270
  H       -1.2241800    -2.1659650    -0.0138510
  H       -1.2242990     2.1658960    -0.0138630
  H        2.4879510     0.0000680    -0.0240190
  H       -3.1956820     0.8285560    -0.4636260
  H       -3.1956410    -0.8285950    -0.4638730
  H       -3.1827690    -0.0002330     0.9749950
  H        0.8779320     3.3605910    -0.3276200
  H        1.8358100     2.7495590     1.0289260
  H        2.3762850     2.4675780    -0.6290150
  H        2.3649490    -2.4637675    -0.6441621
  H        0.8780380    -3.3605930    -0.3273260
  H        1.8362550    -2.7492930     1.0288600
units angstrom
no_reorient  #important for SAPT in psi4, default
symmetry c1  #important for SAPT in psi4, default
}

set PROPERTIES_ORIGIN ["COM"]
properties('MP2/aug-cc-pvtz', properties = ['dipole'])
--------------------------------------------------------------------------

    Molecular point group: c1
  Charge       = 1
  Multiplicity = 1
  Basis Set: AUG-CC-PVTZ
    Blend: AUG-CC-PVTZ
  Basis Set: (AUG-CC-PVTZ AUX)
    Blend: AUG-CC-PVTZ-JKFIT

    Orbital Energies [Eh]
    ---------------------

    Doubly Occupied:

       1A    -15.888687     2A    -11.458875     3A    -11.394821
       4A    -11.394711     5A    -11.393498     6A    -11.393417
       7A    -11.371524     8A    -11.344998     9A    -11.344973
      10A     -1.502530    11A     -1.309232    12A     -1.204863
      13A     -1.182069    14A     -1.083094    15A     -1.070383
      16A     -0.988824    17A     -0.965979    18A     -0.949648
      19A     -0.907757    20A     -0.855866    21A     -0.820433
      22A     -0.794769    23A     -0.724068    24A     -0.715238
      25A     -0.711317    26A     -0.691196    27A     -0.678878
      28A     -0.656063    29A     -0.640660    30A     -0.634896
      31A     -0.628523    32A     -0.486458    33A     -0.475048

  @DF-RHF Final Energy:  -364.29433715288576

   => Energetics <=

    Nuclear Repulsion Energy =            432.3514123786642926
    One-Electron Energy =               -1337.9649057468168394
    Two-Electron Energy =                 541.3191562152668439
    Total Energy =                       -364.2943371528857597
  Basis Set: (AUG-CC-PVTZ AUX)
    Blend: AUG-CC-PVTZ-RI
    Molecular point group: c1

    Geometry (in Angstrom), charge = 1, multiplicity = 1:

       Center              X                  Y                   Z               Mass
    ------------   -----------------  -----------------  -----------------  -----------------
         N           -2.808407822871    -0.000111836127     0.014431817179    14.003074004430
         C           -1.317975822871    -0.000067836127    -0.013605182821    12.000000000000
         C            0.733465177129     1.230242163873    -0.011723182821    12.000000000000
         C            0.733531177129    -1.230264836127    -0.011715182821    12.000000000000
         C           -0.667166822871    -1.226464836127    -0.005727182821    12.000000000000
         C           -0.667235822871     1.226363163873    -0.005734182821    12.000000000000
         C            1.404307177129     0.000008163873    -0.009526182821    12.000000000000
         C            1.499682177129     2.525292163873     0.014693817179    12.000000000000
         C            1.499831177129    -2.525265836127     0.014689817179    12.000000000000
         H           -1.218766822871    -2.165995836127    -0.012588182821     1.007825032230
         H           -1.218885822871     2.165865163873    -0.012600182821     1.007825032230
         H            2.493364177129     0.000037163873    -0.022756182821     1.007825032230
         H           -3.190268822871     0.828525163873    -0.462363182821     1.007825032230
         H           -3.190227822871    -0.828625836127    -0.462610182821     1.007825032230
         H           -3.177355822871    -0.000263836127     0.976257817179     1.007825032230
         H            0.883345177129     3.360560163873    -0.326357182821     1.007825032230
         H            1.841223177129     2.749528163873     1.030188817179     1.007825032230
         H            2.381698177129     2.467547163873    -0.627752182821     1.007825032230
         H            2.370362177129    -2.463798336127    -0.642899282821     1.007825032230
         H            0.883451177129    -3.360623836127    -0.326063182821     1.007825032230
         H            1.841668177129    -2.749323836127     1.030122817179     1.007825032230

  Basis Set: AUG-CC-PVTZ
    Blend: AUG-CC-PVTZ
  Basis Set: (AUG-CC-PVTZ AUX)
    Blend: AUG-CC-PVTZ-JKFIT
	 Reference Energy          =    -364.2943371528857597 [Eh]
	 Singles Energy            =      -0.0000000000000000 [Eh]
	 Same-Spin Energy          =      -0.3971583982252209 [Eh]
	 Opposite-Spin Energy      =      -1.3053254228439892 [Eh]
	 Correlation Energy        =      -1.7024838210692101 [Eh]
	 Total Energy              =    -365.9968209739549820 [Eh]

	 ================> DF-SCS-MP2 Energies <==================
	-----------------------------------------------------------
	 SCS Same-Spin Scale       =       0.3333333333333333 [-]
	 SCS Opposite-Spin Scale   =       1.2000000000000000 [-]
	 SCS Same-Spin Energy      =      -0.1323861327417403 [Eh]
	 SCS Opposite-Spin Energy  =      -1.5663905074127871 [Eh]
	 SCS Correlation Energy    =      -1.6987766401545275 [Eh]
	 SCS Total Energy          =    -365.9931137930402656 [Eh]
	-----------------------------------------------------------

  Dipole Moment: [D]
     X:    -8.3714      Y:    -0.0000      Z:     0.1656     Total:     8.3731

*** Psi4 exiting successfully. Buy a developer a beer!
