                               Psi4 1.4a3.dev225

  ==> Input File <==

--------------------------------------------------------------------------
#psi4
#
memory 32 gb

molecule  {
1 1
  N       -2.8138210    -0.0000810     0.0131690
  C       -1.3233890    -0.0000370    -0.0148680
  C        0.7280520     1.2302730    -0.0129860
  C        0.7281180    -1.2302340    -0.0129780
  C       -0.6725800    -1.2264340    -0.0069900
  C       -0.6726490     1.2263940    -0.0069970
  C        1.3988940     0.0000390    -0.0107890
  C        1.4942690     2.5253230     0.0134310
  C        1.4944180    -2.5252350     0.0134270
  H       -1.2241800    -2.1659650    -0.0138510
  H       -1.2242990     2.1658960    -0.0138630
  H        2.4879510     0.0000680    -0.0240190
  H       -3.1956820     0.8285560    -0.4636260
  H       -3.1956410    -0.8285950    -0.4638730
  H       -3.1827690    -0.0002330     0.9749950
  H        0.8752643     3.3516205    -0.3442355
  H        1.8358100     2.7495590     1.0289260
  H        2.3762850     2.4675780    -0.6290150
  H        2.3762540    -2.4675350    -0.6292720
  H        0.8780380    -3.3605930    -0.3273260
  H        1.8362550    -2.7492930     1.0288600
units angstrom
no_reorient  #important for SAPT in psi4, default
symmetry c1  #important for SAPT in psi4, default
}

set PROPERTIES_ORIGIN ["COM"]
properties('MP2/aug-cc-pvtz', properties = ['dipole'])
--------------------------------------------------------------------------

    Molecular point group: c1
  Charge       = 1
  Multiplicity = 1
  Basis Set: AUG-CC-PVTZ
    Blend: AUG-CC-PVTZ
  Basis Set: (AUG-CC-PVTZ AUX)
    Blend: AUG-CC-PVTZ-JKFIT

    Orbital Energies [Eh]
    ---------------------

    Doubly Occupied:

       1A    -15.888710     2A    -11.458916     3A    -11.394803
       4A    -11.394725     5A    -11.393490     6A    -11.393458
       7A    -11.371478     8A    -11.345009     9A    -11.344963
      10A     -1.502551    11A     -1.309238    12A     -1.204884
      13A     -1.182058    14A     -1.083097    15A     -1.070382
      16A     -0.988852    17A     -0.965991    18A     -0.949666
      19A     -0.907724    20A     -0.855930    21A     -0.820462
      22A     -0.794877    23A     -0.723991    24A     -0.715092
      25A     -0.711133    26A     -0.690923    27A     -0.678721
      28A     -0.656957    29A     -0.641155    30A     -0.634846
      31A     -0.627943    32A     -0.486433    33A     -0.475037

  @DF-RHF Final Energy:  -364.29433605562792

   => Energetics <=

    Nuclear Repulsion Energy =            432.3527016854985163
    One-Electron Energy =               -1337.9670866522469623
    Two-Electron Energy =                 541.3200489111205798
    Total Energy =                       -364.2943360556279231
  Basis Set: (AUG-CC-PVTZ AUX)
    Blend: AUG-CC-PVTZ-RI
    Molecular point group: c1

    Geometry (in Angstrom), charge = 1, multiplicity = 1:

       Center              X                  Y                   Z               Mass
    ------------   -----------------  -----------------  -----------------  -----------------
         N           -2.808479117734    -0.000006692857     0.014446059148    14.003074004430
         C           -1.318047117734     0.000037307143    -0.013590940852    12.000000000000
         C            0.733393882266     1.230347307143    -0.011708940852    12.000000000000
         C            0.733459882266    -1.230159692857    -0.011700940852    12.000000000000
         C           -0.667238117734    -1.226359692857    -0.005712940852    12.000000000000
         C           -0.667307117734     1.226468307143    -0.005719940852    12.000000000000
         C            1.404235882266     0.000113307143    -0.009511940852    12.000000000000
         C            1.499610882266     2.525397307143     0.014708059148    12.000000000000
         C            1.499759882266    -2.525160692857     0.014704059148    12.000000000000
         H           -1.218838117734    -2.165890692857    -0.012573940852     1.007825032230
         H           -1.218957117734     2.165970307143    -0.012585940852     1.007825032230
         H            2.493292882266     0.000142307143    -0.022741940852     1.007825032230
         H           -3.190340117734     0.828630307143    -0.462348940852     1.007825032230
         H           -3.190299117734    -0.828520692857    -0.462595940852     1.007825032230
         H           -3.177427117734    -0.000158692857     0.976272059148     1.007825032230
         H            0.880606182266     3.351694807143    -0.342958440852     1.007825032230
         H            1.841151882266     2.749633307143     1.030203059148     1.007825032230
         H            2.381626882266     2.467652307143    -0.627737940852     1.007825032230
         H            2.381595882266    -2.467460692857    -0.627994940852     1.007825032230
         H            0.883379882266    -3.360518692857    -0.326048940852     1.007825032230
         H            1.841596882266    -2.749218692857     1.030137059148     1.007825032230

  Basis Set: AUG-CC-PVTZ
    Blend: AUG-CC-PVTZ
  Basis Set: (AUG-CC-PVTZ AUX)
    Blend: AUG-CC-PVTZ-JKFIT
	 Reference Energy          =    -364.2943360556279231 [Eh]
	 Singles Energy            =      -0.0000000000000000 [Eh]
	 Same-Spin Energy          =      -0.3971598846641096 [Eh]
	 Opposite-Spin Energy      =      -1.3053224086943631 [Eh]
	 Correlation Energy        =      -1.7024822933584727 [Eh]
	 Total Energy              =    -365.9968183489863804 [Eh]

	 ================> DF-SCS-MP2 Energies <==================
	-----------------------------------------------------------
	 SCS Same-Spin Scale       =       0.3333333333333333 [-]
	 SCS Opposite-Spin Scale   =       1.2000000000000000 [-]
	 SCS Same-Spin Energy      =      -0.1323866282213698 [Eh]
	 SCS Opposite-Spin Energy  =      -1.5663868904332356 [Eh]
	 SCS Correlation Energy    =      -1.6987735186546056 [Eh]
	 SCS Total Energy          =    -365.9931095742825278 [Eh]
	-----------------------------------------------------------

  Dipole Moment: [D]
     X:    -8.3649      Y:    -0.0042      Z:     0.1651     Total:     8.3665

*** Psi4 exiting successfully. Buy a developer a beer!
