                               Psi4 1.4a3.dev225

  ==> Input File <==

--------------------------------------------------------------------------
#psi4
#
memory 32 gb

molecule  {
1 1
  N       -2.8138210    -0.0000810     0.0131690
  C       -1.3233890    -0.0000370    -0.0148680
  C        0.7280520     1.2302730    -0.0129860
  C        0.7281180    -1.2302340    -0.0129780
  C       -0.6725800    -1.2264340    -0.0069900
  C       -0.6726490     1.2263940    -0.0069970
  C        1.3988940     0.0000390    -0.0107890
  C        1.4942690     2.5253230     0.0134310
  C        1.4944180    -2.5252350     0.0134270
  H       -1.2241800    -2.1659650    -0.0138510
  H       -1.2242990     2.1658960    -0.0138630
  H        2.4879510     0.0000680    -0.0240190
  H       -3.1585887     0.7480637    -0.4173110
  H       -3.1956410    -0.8285950    -0.4638730
  H       -3.1827690    -0.0002330     0.9749950
  H        0.8779320     3.3605910    -0.3276200
  H        1.8358100     2.7495590     1.0289260
  H        2.3762850     2.4675780    -0.6290150
  H        2.3762540    -2.4675350    -0.6292720
  H        0.8780380    -3.3605930    -0.3273260
  H        1.8362550    -2.7492930     1.0288600
units angstrom
no_reorient  #important for SAPT in psi4, default
symmetry c1  #important for SAPT in psi4, default
}

set PROPERTIES_ORIGIN ["COM"]
properties('MP2/aug-cc-pvtz', properties = ['dipole'])
--------------------------------------------------------------------------

    Molecular point group: c1
  Charge       = 1
  Multiplicity = 1
  Basis Set: AUG-CC-PVTZ
    Blend: AUG-CC-PVTZ
  Basis Set: (AUG-CC-PVTZ AUX)
    Blend: AUG-CC-PVTZ-JKFIT

    Orbital Energies [Eh]
    ---------------------

    Doubly Occupied:

       1A    -15.881964     2A    -11.459803     3A    -11.395452
       4A    -11.395368     5A    -11.394232     6A    -11.394110
       7A    -11.372189     8A    -11.345365     9A    -11.345266
      10A     -1.520946    11A     -1.311195    12A     -1.205458
      13A     -1.184974    14A     -1.084717    15A     -1.070896
      16A     -0.995677    17A     -0.981813    18A     -0.956720
      19A     -0.914760    20A     -0.857842    21A     -0.821603
      22A     -0.796860    23A     -0.724678    24A     -0.715898
      25A     -0.711222    26A     -0.690674    27A     -0.679492
      28A     -0.657383    29A     -0.641688    30A     -0.635495
      31A     -0.628946    32A     -0.487252    33A     -0.475522

  @DF-RHF Final Energy:  -364.28870202290102

   => Energetics <=

    Nuclear Repulsion Energy =            432.8952329748591410
    One-Electron Energy =               -1338.8969509625219416
    Two-Electron Energy =                 541.7130159647617802
    Total Energy =                       -364.2887020229010204
  Basis Set: (AUG-CC-PVTZ AUX)
    Blend: AUG-CC-PVTZ-RI
    Molecular point group: c1

    Geometry (in Angstrom), charge = 1, multiplicity = 1:

       Center              X                  Y                   Z               Mass
    ------------   -----------------  -----------------  -----------------  -----------------
         N           -2.808807316949     0.000583669523     0.013926611934    14.003074004430
         C           -1.318375316949     0.000627669523    -0.014110388066    12.000000000000
         C            0.733065683051     1.230937669523    -0.012228388066    12.000000000000
         C            0.733131683051    -1.229569330477    -0.012220388066    12.000000000000
         C           -0.667566316949    -1.225769330477    -0.006232388066    12.000000000000
         C           -0.667635316949     1.227058669523    -0.006239388066    12.000000000000
         C            1.403907683051     0.000703669523    -0.010031388066    12.000000000000
         C            1.499282683051     2.525987669523     0.014188611934    12.000000000000
         C            1.499431683051    -2.524570330477     0.014184611934    12.000000000000
         H           -1.219166316949    -2.165300330477    -0.013093388066     1.007825032230
         H           -1.219285316949     2.166560669523    -0.013105388066     1.007825032230
         H            2.492964683051     0.000732669523    -0.023261388066     1.007825032230
         H           -3.153575016949     0.748728369523    -0.416553388066     1.007825032230
         H           -3.190627316949    -0.827930330477    -0.463115388066     1.007825032230
         H           -3.177755316949     0.000431669523     0.975752611934     1.007825032230
         H            0.882945683051     3.361255669523    -0.326862388066     1.007825032230
         H            1.840823683051     2.750223669523     1.029683611934     1.007825032230
         H            2.381298683051     2.468242669523    -0.628257388066     1.007825032230
         H            2.381267683051    -2.466870330477    -0.628514388066     1.007825032230
         H            0.883051683051    -3.359928330477    -0.326568388066     1.007825032230
         H            1.841268683051    -2.748628330477     1.029617611934     1.007825032230

  Basis Set: AUG-CC-PVTZ
    Blend: AUG-CC-PVTZ
  Basis Set: (AUG-CC-PVTZ AUX)
    Blend: AUG-CC-PVTZ-JKFIT
	 Reference Energy          =    -364.2887020229010204 [Eh]
	 Singles Energy            =      -0.0000000000000000 [Eh]
	 Same-Spin Energy          =      -0.3965976821492754 [Eh]
	 Opposite-Spin Energy      =      -1.3037152844175155 [Eh]
	 Correlation Energy        =      -1.7003129665667909 [Eh]
	 Total Energy              =    -365.9890149894678189 [Eh]

	 ================> DF-SCS-MP2 Energies <==================
	-----------------------------------------------------------
	 SCS Same-Spin Scale       =       0.3333333333333333 [-]
	 SCS Opposite-Spin Scale   =       1.2000000000000000 [-]
	 SCS Same-Spin Energy      =      -0.1321992273830918 [Eh]
	 SCS Opposite-Spin Energy  =      -1.5644583413010185 [Eh]
	 SCS Correlation Energy    =      -1.6966575686841103 [Eh]
	 SCS Total Energy          =    -365.9853595915851088 [Eh]
	-----------------------------------------------------------

  Dipole Moment: [D]
     X:    -8.2963      Y:    -0.0999      Z:     0.2355     Total:     8.3002

*** Psi4 exiting successfully. Buy a developer a beer!
