                               Psi4 1.4a3.dev225

  ==> Input File <==

--------------------------------------------------------------------------
#psi4
#
memory 32 gb

molecule  {
1 1
  N       -2.8138210    -0.0000810     0.0131690
  C       -1.3233890    -0.0000370    -0.0148680
  C        0.7280520     1.2302730    -0.0129860
  C        0.7281180    -1.2302340    -0.0129780
  C       -0.5479612    -1.1516826    -0.0054823
  C       -0.6726490     1.2263940    -0.0069970
  C        1.3988940     0.0000390    -0.0107890
  C        1.4942690     2.5253230     0.0134310
  C        1.4944180    -2.5252350     0.0134270
  H       -1.2241800    -2.1659650    -0.0138510
  H       -1.2242990     2.1658960    -0.0138630
  H        2.4879510     0.0000680    -0.0240190
  H       -3.1956820     0.8285560    -0.4636260
  H       -3.1956410    -0.8285950    -0.4638730
  H       -3.1827690    -0.0002330     0.9749950
  H        0.8779320     3.3605910    -0.3276200
  H        1.8358100     2.7495590     1.0289260
  H        2.3762850     2.4675780    -0.6290150
  H        2.3762540    -2.4675350    -0.6292720
  H        0.8780380    -3.3605930    -0.3273260
  H        1.8362550    -2.7492930     1.0288600
units angstrom
no_reorient  #important for SAPT in psi4, default
symmetry c1  #important for SAPT in psi4, default
}

set PROPERTIES_ORIGIN ["COM"]
properties('MP2/aug-cc-pvtz', properties = ['dipole'])
--------------------------------------------------------------------------

    Molecular point group: c1
  Charge       = 1
  Multiplicity = 1
  Basis Set: AUG-CC-PVTZ
    Blend: AUG-CC-PVTZ
  Basis Set: (AUG-CC-PVTZ AUX)
    Blend: AUG-CC-PVTZ-JKFIT

    Orbital Energies [Eh]
    ---------------------

    Doubly Occupied:

       1A    -15.894631     2A    -11.456189     3A    -11.398511
       4A    -11.391803     5A    -11.389370     6A    -11.376552
       7A    -11.374498     8A    -11.345205     9A    -11.343601
      10A     -1.505013    11A     -1.324295    12A     -1.214715
      13A     -1.180957    14A     -1.079892    15A     -1.068907
      16A     -0.999978    17A     -0.970115    18A     -0.953142
      19A     -0.907116    20A     -0.862601    21A     -0.816061
      22A     -0.797912    23A     -0.724022    24A     -0.715424
      25A     -0.694315    26A     -0.690392    27A     -0.676588
      28A     -0.656923    29A     -0.645249    30A     -0.639914
      31A     -0.613963    32A     -0.492526    33A     -0.479654

  @DF-RHF Final Energy:  -364.26693484744408

   => Energetics <=

    Nuclear Repulsion Energy =            434.5147315822698602
    One-Electron Energy =               -1342.2032597636059563
    Two-Electron Energy =                 543.4215933338920195
    Total Energy =                       -364.2669348474440767
  Basis Set: (AUG-CC-PVTZ AUX)
    Blend: AUG-CC-PVTZ-RI
    Molecular point group: c1

    Geometry (in Angstrom), charge = 1, multiplicity = 1:

       Center              X                  Y                   Z               Mass
    ------------   -----------------  -----------------  -----------------  -----------------
         N           -2.820748989140    -0.007427495042     0.014160729253    14.003074004430
         C           -1.330316989140    -0.007383495042    -0.013876270747    12.000000000000
         C            0.721124010860     1.222926504958    -0.011994270747    12.000000000000
         C            0.721190010860    -1.237580495042    -0.011986270747    12.000000000000
         C           -0.554889189140    -1.159029095042    -0.004490570747    12.000000000000
         C           -0.679576989140     1.219047504958    -0.006005270747    12.000000000000
         C            1.391966010860    -0.007307495042    -0.009797270747    12.000000000000
         C            1.487341010860     2.517976504958     0.014422729253    12.000000000000
         C            1.487490010860    -2.532581495042     0.014418729253    12.000000000000
         H           -1.231107989140    -2.173311495042    -0.012859270747     1.007825032230
         H           -1.231226989140     2.158549504958    -0.012871270747     1.007825032230
         H            2.481023010860    -0.007278495042    -0.023027270747     1.007825032230
         H           -3.202609989140     0.821209504958    -0.462634270747     1.007825032230
         H           -3.202568989140    -0.835941495042    -0.462881270747     1.007825032230
         H           -3.189696989140    -0.007579495042     0.975986729253     1.007825032230
         H            0.871004010860     3.353244504958    -0.326628270747     1.007825032230
         H            1.828882010860     2.742212504958     1.029917729253     1.007825032230
         H            2.369357010860     2.460231504958    -0.628023270747     1.007825032230
         H            2.369326010860    -2.474881495042    -0.628280270747     1.007825032230
         H            0.871110010860    -3.367939495042    -0.326334270747     1.007825032230
         H            1.829327010860    -2.756639495042     1.029851729253     1.007825032230

  Basis Set: AUG-CC-PVTZ
    Blend: AUG-CC-PVTZ
  Basis Set: (AUG-CC-PVTZ AUX)
    Blend: AUG-CC-PVTZ-JKFIT
	 Reference Energy          =    -364.2669348474440767 [Eh]
	 Singles Energy            =      -0.0000000000000000 [Eh]
	 Same-Spin Energy          =      -0.3975979635601105 [Eh]
	 Opposite-Spin Energy      =      -1.3063631253764698 [Eh]
	 Correlation Energy        =      -1.7039610889365804 [Eh]
	 Total Energy              =    -365.9708959363806571 [Eh]

	 ================> DF-SCS-MP2 Energies <==================
	-----------------------------------------------------------
	 SCS Same-Spin Scale       =       0.3333333333333333 [-]
	 SCS Opposite-Spin Scale   =       1.2000000000000000 [-]
	 SCS Same-Spin Energy      =      -0.1325326545200368 [Eh]
	 SCS Opposite-Spin Energy  =      -1.5676357504517637 [Eh]
	 SCS Correlation Energy    =      -1.7001684049718004 [Eh]
	 SCS Total Energy          =    -365.9671032524158818 [Eh]
	-----------------------------------------------------------

  Dipole Moment: [D]
     X:    -8.4879      Y:     0.0592      Z:     0.1678     Total:     8.4898

*** Psi4 exiting successfully. Buy a developer a beer!
