                               Psi4 1.4a3.dev225

  ==> Input File <==

--------------------------------------------------------------------------
#psi4
#
memory 32 gb

molecule  {
1 1
  N       -2.8138210    -0.0000810     0.0131690
  C       -1.3233890    -0.0000370    -0.0148680
  C        0.7280520     1.2302730    -0.0129860
  C        0.7281180    -1.2302340    -0.0129780
  C       -0.6725800    -1.2264340    -0.0069900
  C       -0.6726490     1.2263940    -0.0069970
  C        1.3988940     0.0000390    -0.0107890
  C        1.4942690     2.5253230     0.0134310
  C        1.4944180    -2.5252350     0.0134270
  H       -1.2241800    -2.1659650    -0.0138510
  H       -1.2242990     2.1658960    -0.0138630
  H        2.4879510     0.0000680    -0.0240190
  H       -3.1865862     0.8390908    -0.4522635
  H       -3.1956410    -0.8285950    -0.4638730
  H       -3.1827690    -0.0002330     0.9749950
  H        0.8779320     3.3605910    -0.3276200
  H        1.8358100     2.7495590     1.0289260
  H        2.3762850     2.4675780    -0.6290150
  H        2.3762540    -2.4675350    -0.6292720
  H        0.8780380    -3.3605930    -0.3273260
  H        1.8362550    -2.7492930     1.0288600
units angstrom
no_reorient  #important for SAPT in psi4, default
symmetry c1  #important for SAPT in psi4, default
}

set PROPERTIES_ORIGIN ["COM"]
properties('MP2/aug-cc-pvtz', properties = ['dipole'])
--------------------------------------------------------------------------

    Molecular point group: c1
  Charge       = 1
  Multiplicity = 1
  Basis Set: AUG-CC-PVTZ
    Blend: AUG-CC-PVTZ
  Basis Set: (AUG-CC-PVTZ AUX)
    Blend: AUG-CC-PVTZ-JKFIT

    Orbital Energies [Eh]
    ---------------------

    Doubly Occupied:

       1A    -15.888720     2A    -11.458928     3A    -11.394930
       4A    -11.394862     5A    -11.393614     6A    -11.393502
       7A    -11.371562     8A    -11.345043     9A    -11.345003
      10A     -1.502600    11A     -1.309260    12A     -1.204924
      13A     -1.182004    14A     -1.083270    15A     -1.070422
      16A     -0.988671    17A     -0.967219    18A     -0.948489
      19A     -0.908497    20A     -0.855827    21A     -0.820468
      22A     -0.795021    23A     -0.724201    24A     -0.715427
      25A     -0.710756    26A     -0.690374    27A     -0.679148
      28A     -0.656921    29A     -0.641176    30A     -0.634614
      31A     -0.628550    32A     -0.486425    33A     -0.475083

  @DF-RHF Final Energy:  -364.29434423881912

   => Energetics <=

    Nuclear Repulsion Energy =            432.3556277650753259
    One-Electron Energy =               -1337.9689249124712660
    Two-Electron Energy =                 541.3189529085768754
    Total Energy =                       -364.2943442388191215
  Basis Set: (AUG-CC-PVTZ AUX)
    Blend: AUG-CC-PVTZ-RI
    Molecular point group: c1

    Geometry (in Angstrom), charge = 1, multiplicity = 1:

       Center              X                  Y                   Z               Mass
    ------------   -----------------  -----------------  -----------------  -----------------
         N           -2.808576217190    -0.000167695451     0.014215120348    14.003074004430
         C           -1.318144217190    -0.000123695451    -0.013821879652    12.000000000000
         C            0.733296782810     1.230186304549    -0.011939879652    12.000000000000
         C            0.733362782810    -1.230320695451    -0.011931879652    12.000000000000
         C           -0.667335217190    -1.226520695451    -0.005943879652    12.000000000000
         C           -0.667404217190     1.226307304549    -0.005950879652    12.000000000000
         C            1.404138782810    -0.000047695451    -0.009742879652    12.000000000000
         C            1.499513782810     2.525236304549     0.014477120348    12.000000000000
         C            1.499662782810    -2.525321695451     0.014473120348    12.000000000000
         H           -1.218935217190    -2.166051695451    -0.012804879652     1.007825032230
         H           -1.219054217190     2.165809304549    -0.012816879652     1.007825032230
         H            2.493195782810    -0.000018695451    -0.022972879652     1.007825032230
         H           -3.181341417190     0.839004104549    -0.451217379652     1.007825032230
         H           -3.190396217190    -0.828681695451    -0.462826879652     1.007825032230
         H           -3.177524217190    -0.000319695451     0.976041120348     1.007825032230
         H            0.883176782810     3.360504304549    -0.326573879652     1.007825032230
         H            1.841054782810     2.749472304549     1.029972120348     1.007825032230
         H            2.381529782810     2.467491304549    -0.627968879652     1.007825032230
         H            2.381498782810    -2.467621695451    -0.628225879652     1.007825032230
         H            0.883282782810    -3.360679695451    -0.326279879652     1.007825032230
         H            1.841499782810    -2.749379695451     1.029906120348     1.007825032230

  Basis Set: AUG-CC-PVTZ
    Blend: AUG-CC-PVTZ
  Basis Set: (AUG-CC-PVTZ AUX)
    Blend: AUG-CC-PVTZ-JKFIT
	 Reference Energy          =    -364.2943442388191215 [Eh]
	 Singles Energy            =      -0.0000000000000000 [Eh]
	 Same-Spin Energy          =      -0.3971669989409421 [Eh]
	 Opposite-Spin Energy      =      -1.3053206741383256 [Eh]
	 Correlation Energy        =      -1.7024876730792677 [Eh]
	 Total Energy              =    -365.9968319118983686 [Eh]

	 ================> DF-SCS-MP2 Energies <==================
	-----------------------------------------------------------
	 SCS Same-Spin Scale       =       0.3333333333333333 [-]
	 SCS Opposite-Spin Scale   =       1.2000000000000000 [-]
	 SCS Same-Spin Energy      =      -0.1323889996469807 [Eh]
	 SCS Opposite-Spin Energy  =      -1.5663848089659906 [Eh]
	 SCS Correlation Energy    =      -1.6987738086129713 [Eh]
	 SCS Total Energy          =    -365.9931180474321195 [Eh]
	-----------------------------------------------------------

  Dipole Moment: [D]
     X:    -8.3546      Y:     0.0074      Z:     0.1834     Total:     8.3566

*** Psi4 exiting successfully. Buy a developer a beer!
