                               Psi4 1.4a3.dev225

  ==> Input File <==

--------------------------------------------------------------------------
#psi4
#
memory 32 gb

molecule  {
1 1
  N       -2.8138210    -0.0000810     0.0131690
  C       -1.3233890    -0.0000370    -0.0148680
  C        0.7280520     1.2302730    -0.0129860
  C        0.7281180    -1.2302340    -0.0129780
  C       -0.6725800    -1.2264340    -0.0069900
  C       -0.6726490     1.2263940    -0.0069970
  C        1.3988940     0.0000390    -0.0107890
  C        1.4942690     2.5253230     0.0134310
  C        1.4944180    -2.5252350     0.0134270
  H       -1.2241800    -2.1659650    -0.0138510
  H       -1.2242990     2.1658960    -0.0138630
  H        2.4879510     0.0000680    -0.0240190
  H       -3.2142286     0.8688021    -0.4867835
  H       -3.1956410    -0.8285950    -0.4638730
  H       -3.1827690    -0.0002330     0.9749950
  H        0.8779320     3.3605910    -0.3276200
  H        1.8358100     2.7495590     1.0289260
  H        2.3762850     2.4675780    -0.6290150
  H        2.3762540    -2.4675350    -0.6292720
  H        0.8780380    -3.3605930    -0.3273260
  H        1.8362550    -2.7492930     1.0288600
units angstrom
no_reorient  #important for SAPT in psi4, default
symmetry c1  #important for SAPT in psi4, default
}

set PROPERTIES_ORIGIN ["COM"]
properties('MP2/aug-cc-pvtz', properties = ['dipole'])
--------------------------------------------------------------------------

    Molecular point group: c1
  Charge       = 1
  Multiplicity = 1
  Basis Set: AUG-CC-PVTZ
    Blend: AUG-CC-PVTZ
  Basis Set: (AUG-CC-PVTZ AUX)
    Blend: AUG-CC-PVTZ-JKFIT

    Orbital Energies [Eh]
    ---------------------

    Doubly Occupied:

       1A    -15.891425     2A    -11.458471     3A    -11.394558
       4A    -11.394519     5A    -11.393201     6A    -11.393122
       7A    -11.371219     8A    -11.344830     9A    -11.344780
      10A     -1.495127    11A     -1.308368    12A     -1.204551
      13A     -1.180821    14A     -1.082434    15A     -1.070131
      16A     -0.987480    17A     -0.960856    18A     -0.943991
      19A     -0.902339    20A     -0.854878    21A     -0.819867
      22A     -0.793640    23A     -0.723813    24A     -0.715110
      25A     -0.710462    26A     -0.690153    27A     -0.678899
      28A     -0.656591    29A     -0.640846    30A     -0.634159
      31A     -0.628259    32A     -0.485998    33A     -0.474735

  @DF-RHF Final Energy:  -364.29085591086289

   => Energetics <=

    Nuclear Repulsion Energy =            432.0869688095269794
    One-Electron Energy =               -1337.4963803515749987
    Two-Electron Energy =                 541.1185556311851315
    Total Energy =                       -364.2908559108628879
  Basis Set: (AUG-CC-PVTZ AUX)
    Blend: AUG-CC-PVTZ-RI
    Molecular point group: c1

    Geometry (in Angstrom), charge = 1, multiplicity = 1:

       Center              X                  Y                   Z               Mass
    ------------   -----------------  -----------------  -----------------  -----------------
         N           -2.808348048533    -0.000412941428     0.014500058777    14.003074004430
         C           -1.317916048533    -0.000368941428    -0.013536941223    12.000000000000
         C            0.733524951467     1.229941058572    -0.011654941223    12.000000000000
         C            0.733590951467    -1.230565941428    -0.011646941223    12.000000000000
         C           -0.667107048533    -1.226765941428    -0.005658941223    12.000000000000
         C           -0.667176048533     1.226062058572    -0.005665941223    12.000000000000
         C            1.404366951467    -0.000292941428    -0.009457941223    12.000000000000
         C            1.499741951467     2.524991058572     0.014762058777    12.000000000000
         C            1.499890951467    -2.525566941428     0.014758058777    12.000000000000
         H           -1.218707048533    -2.166296941428    -0.012519941223     1.007825032230
         H           -1.218826048533     2.165564058572    -0.012531941223     1.007825032230
         H            2.493423951467    -0.000263941428    -0.022687941223     1.007825032230
         H           -3.208755648533     0.868470158572    -0.485452441223     1.007825032230
         H           -3.190168048533    -0.828926941428    -0.462541941223     1.007825032230
         H           -3.177296048533    -0.000564941428     0.976326058777     1.007825032230
         H            0.883404951467     3.360259058572    -0.326288941223     1.007825032230
         H            1.841282951467     2.749227058572     1.030257058777     1.007825032230
         H            2.381757951467     2.467246058572    -0.627683941223     1.007825032230
         H            2.381726951467    -2.467866941428    -0.627940941223     1.007825032230
         H            0.883510951467    -3.360924941428    -0.325994941223     1.007825032230
         H            1.841727951467    -2.749624941428     1.030191058777     1.007825032230

  Basis Set: AUG-CC-PVTZ
    Blend: AUG-CC-PVTZ
  Basis Set: (AUG-CC-PVTZ AUX)
    Blend: AUG-CC-PVTZ-JKFIT
	 Reference Energy          =    -364.2908559108628879 [Eh]
	 Singles Energy            =      -0.0000000000000000 [Eh]
	 Same-Spin Energy          =      -0.3974650873905283 [Eh]
	 Opposite-Spin Energy      =      -1.3062217369368989 [Eh]
	 Correlation Energy        =      -1.7036868243274272 [Eh]
	 Total Energy              =    -365.9945427351902936 [Eh]

	 ================> DF-SCS-MP2 Energies <==================
	-----------------------------------------------------------
	 SCS Same-Spin Scale       =       0.3333333333333333 [-]
	 SCS Opposite-Spin Scale   =       1.2000000000000000 [-]
	 SCS Same-Spin Energy      =      -0.1324883624635094 [Eh]
	 SCS Opposite-Spin Energy  =      -1.5674660843242787 [Eh]
	 SCS Correlation Energy    =      -1.6999544467877881 [Eh]
	 SCS Total Energy          =    -365.9908103576506733 [Eh]
	-----------------------------------------------------------

  Dipole Moment: [D]
     X:    -8.4011      Y:     0.0523      Z:     0.1359     Total:     8.4023

*** Psi4 exiting successfully. Buy a developer a beer!
