                               Psi4 1.4a3.dev225

  ==> Input File <==

--------------------------------------------------------------------------
#psi4
#
memory 32 gb

molecule  {
1 1
  N       -2.8138210    -0.0000810     0.0131690
  C       -1.3233890    -0.0000370    -0.0148680
  C        0.7280520     1.2302730    -0.0129860
  C        0.7281180    -1.2302340    -0.0129780
  C       -0.6725800    -1.2264340    -0.0069900
  C       -0.6726490     1.2263940    -0.0069970
  C        1.3988940     0.0000390    -0.0107890
  C        1.4942690     2.5253230     0.0134310
  C        1.4944180    -2.5252350     0.0134270
  H       -1.2241800    -2.1659650    -0.0138510
  H       -1.2242990     2.1658960    -0.0138630
  H        2.4879510     0.0000680    -0.0240190
  H       -3.1956820     0.8285560    -0.4636260
  H       -3.1956410    -0.8285950    -0.4638730
  H       -3.1827690    -0.0002330     0.9749950
  H        0.8779320     3.3605910    -0.3276200
  H        1.8358100     2.7495590     1.0289260
  H        2.3762850     2.4675780    -0.6290150
  H        2.3762540    -2.4675350    -0.6292720
  H        0.8780380    -3.3605930    -0.3273260
  H        1.8206404    -2.7390583     0.9824764
units angstrom
no_reorient  #important for SAPT in psi4, default
symmetry c1  #important for SAPT in psi4, default
}

set PROPERTIES_ORIGIN ["COM"]
properties('MP2/aug-cc-pvtz', properties = ['dipole'])
--------------------------------------------------------------------------

    Molecular point group: c1
  Charge       = 1
  Multiplicity = 1
  Basis Set: AUG-CC-PVTZ
    Blend: AUG-CC-PVTZ
  Basis Set: (AUG-CC-PVTZ AUX)
    Blend: AUG-CC-PVTZ-JKFIT

    Orbital Energies [Eh]
    ---------------------

    Doubly Occupied:

       1A    -15.888669     2A    -11.458858     3A    -11.394795
       4A    -11.394622     5A    -11.393464     6A    -11.393359
       7A    -11.371487     8A    -11.344958     9A    -11.339174
      10A     -1.502512    11A     -1.309242    12A     -1.205282
      13A     -1.182342    14A     -1.084762    15A     -1.072204
      16A     -0.989032    17A     -0.966747    18A     -0.949630
      19A     -0.908286    20A     -0.856364    21A     -0.820449
      22A     -0.794829    23A     -0.724527    24A     -0.716931
      25A     -0.713324    26A     -0.694196    27A     -0.678898
      28A     -0.657027    29A     -0.641122    30A     -0.636230
      31A     -0.628368    32A     -0.486665    33A     -0.475274

  @DF-RHF Final Energy:  -364.29340653252933

   => Energetics <=

    Nuclear Repulsion Energy =            432.5610438177254196
    One-Electron Energy =               -1338.3616413636850666
    Two-Electron Energy =                 541.5071910134302016
    Total Energy =                       -364.2934065325293886
  Basis Set: (AUG-CC-PVTZ AUX)
    Blend: AUG-CC-PVTZ-RI
    Molecular point group: c1

    Geometry (in Angstrom), charge = 1, multiplicity = 1:

       Center              X                  Y                   Z               Mass
    ------------   -----------------  -----------------  -----------------  -----------------
         N           -2.808372250140    -0.000165218335     0.014691773970    14.003074004430
         C           -1.317940250140    -0.000121218335    -0.013345226030    12.000000000000
         C            0.733500749860     1.230188781665    -0.011463226030    12.000000000000
         C            0.733566749860    -1.230318218335    -0.011455226030    12.000000000000
         C           -0.667131250140    -1.226518218335    -0.005467226030    12.000000000000
         C           -0.667200250140     1.226309781665    -0.005474226030    12.000000000000
         C            1.404342749860    -0.000045218335    -0.009266226030    12.000000000000
         C            1.499717749860     2.525238781665     0.014953773970    12.000000000000
         C            1.499866749860    -2.525319218335     0.014949773970    12.000000000000
         H           -1.218731250140    -2.166049218335    -0.012328226030     1.007825032230
         H           -1.218850250140     2.165811781665    -0.012340226030     1.007825032230
         H            2.493399749860    -0.000016218335    -0.022496226030     1.007825032230
         H           -3.190233250140     0.828471781665    -0.462103226030     1.007825032230
         H           -3.190192250140    -0.828679218335    -0.462350226030     1.007825032230
         H           -3.177320250140    -0.000317218335     0.976517773970     1.007825032230
         H            0.883380749860     3.360506781665    -0.326097226030     1.007825032230
         H            1.841258749860     2.749474781665     1.030448773970     1.007825032230
         H            2.381733749860     2.467493781665    -0.627492226030     1.007825032230
         H            2.381702749860    -2.467619218335    -0.627749226030     1.007825032230
         H            0.883486749860    -3.360677218335    -0.325803226030     1.007825032230
         H            1.826089149860    -2.739142518335     0.983999173970     1.007825032230

  Basis Set: AUG-CC-PVTZ
    Blend: AUG-CC-PVTZ
  Basis Set: (AUG-CC-PVTZ AUX)
    Blend: AUG-CC-PVTZ-JKFIT
	 Reference Energy          =    -364.2934065325293318 [Eh]
	 Singles Energy            =      -0.0000000000000000 [Eh]
	 Same-Spin Energy          =      -0.3971534025380403 [Eh]
	 Opposite-Spin Energy      =      -1.3050344921839911 [Eh]
	 Correlation Energy        =      -1.7021878947220315 [Eh]
	 Total Energy              =    -365.9955944272513761 [Eh]

	 ================> DF-SCS-MP2 Energies <==================
	-----------------------------------------------------------
	 SCS Same-Spin Scale       =       0.3333333333333333 [-]
	 SCS Opposite-Spin Scale   =       1.2000000000000000 [-]
	 SCS Same-Spin Energy      =      -0.1323844675126801 [Eh]
	 SCS Opposite-Spin Energy  =      -1.5660413906207893 [Eh]
	 SCS Correlation Energy    =      -1.6984258581334695 [Eh]
	 SCS Total Energy          =    -365.9918323906628075 [Eh]
	-----------------------------------------------------------

  Dipole Moment: [D]
     X:    -8.3644      Y:    -0.0020      Z:     0.1752     Total:     8.3662

*** Psi4 exiting successfully. Buy a developer a beer!
