                               Psi4 1.4a3.dev225

  ==> Input File <==

--------------------------------------------------------------------------
#psi4
#
memory 32 gb

molecule  {
1 1
  N       -2.8138210    -0.0000810     0.0131690
  C       -1.3233890    -0.0000370    -0.0148680
  C        0.7280520     1.2302730    -0.0129860
  C        0.7281180    -1.2302340    -0.0129780
  C       -0.6725800    -1.2264340    -0.0069900
  C       -0.6726490     1.2263940    -0.0069970
  C        1.3988940     0.0000390    -0.0107890
  C        1.4942690     2.5253230     0.0134310
  C        1.4944180    -2.5252350     0.0134270
  H       -1.2241800    -2.1659650    -0.0138510
  H       -1.2242990     2.1658960    -0.0138630
  H        2.4879510     0.0000680    -0.0240190
  H       -3.1956820     0.8285560    -0.4636260
  H       -3.1956410    -0.8285950    -0.4638730
  H       -3.1827690    -0.0002330     0.9749950
  H        0.8779320     3.3605910    -0.3276200
  H        1.8982144     2.7905301     1.2144713
  H        2.3762850     2.4675780    -0.6290150
  H        2.3762540    -2.4675350    -0.6292720
  H        0.8780380    -3.3605930    -0.3273260
  H        1.8362550    -2.7492930     1.0288600
units angstrom
no_reorient  #important for SAPT in psi4, default
symmetry c1  #important for SAPT in psi4, default
}

set PROPERTIES_ORIGIN ["COM"]
properties('MP2/aug-cc-pvtz', properties = ['dipole'])
--------------------------------------------------------------------------

    Molecular point group: c1
  Charge       = 1
  Multiplicity = 1
  Basis Set: AUG-CC-PVTZ
    Blend: AUG-CC-PVTZ
  Basis Set: (AUG-CC-PVTZ AUX)
    Blend: AUG-CC-PVTZ-JKFIT

    Orbital Energies [Eh]
    ---------------------

    Doubly Occupied:

       1A    -15.889058     2A    -11.459372     3A    -11.396037
       4A    -11.395239     5A    -11.394439     6A    -11.394006
       7A    -11.372197     8A    -11.366105     9A    -11.345218
      10A     -1.502901    11A     -1.309691    12A     -1.204331
      13A     -1.181750    14A     -1.081032    15A     -1.064081
      16A     -0.988747    17A     -0.964240    18A     -0.949995
      19A     -0.906812    20A     -0.855246    21A     -0.820915
      22A     -0.795434    23A     -0.724441    24A     -0.716010
      25A     -0.705419    26A     -0.680627    27A     -0.672004
      28A     -0.655468    29A     -0.641817    30A     -0.630149
      31A     -0.619286    32A     -0.485623    33A     -0.473599

  @DF-RHF Final Energy:  -364.27433833270362

   => Energetics <=

    Nuclear Repulsion Energy =            431.5606847867235842
    One-Electron Energy =               -1336.3874707327206579
    Two-Electron Energy =                 540.5524476132933387
    Total Energy =                       -364.2743383327036781
  Basis Set: (AUG-CC-PVTZ AUX)
    Blend: AUG-CC-PVTZ-RI
    Molecular point group: c1

    Geometry (in Angstrom), charge = 1, multiplicity = 1:

       Center              X                  Y                   Z               Mass
    ------------   -----------------  -----------------  -----------------  -----------------
         N           -2.809016242357    -0.000418925796     0.012777363295    14.003074004430
         C           -1.318584242357    -0.000374925796    -0.015259636705    12.000000000000
         C            0.732856757643     1.229935074204    -0.013377636705    12.000000000000
         C            0.732922757643    -1.230571925796    -0.013369636705    12.000000000000
         C           -0.667775242357    -1.226771925796    -0.007381636705    12.000000000000
         C           -0.667844242357     1.226056074204    -0.007388636705    12.000000000000
         C            1.403698757643    -0.000298925796    -0.011180636705    12.000000000000
         C            1.499073757643     2.524985074204     0.013039363295    12.000000000000
         C            1.499222757643    -2.525572925796     0.013035363295    12.000000000000
         H           -1.219375242357    -2.166302925796    -0.014242636705     1.007825032230
         H           -1.219494242357     2.165558074204    -0.014254636705     1.007825032230
         H            2.492755757643    -0.000269925796    -0.024410636705     1.007825032230
         H           -3.190877242357     0.828218074204    -0.464017636705     1.007825032230
         H           -3.190836242357    -0.828932925796    -0.464264636705     1.007825032230
         H           -3.177964242357    -0.000570925796     0.974603363295     1.007825032230
         H            0.882736757643     3.360253074204    -0.328011636705     1.007825032230
         H            1.903019157643     2.790192174204     1.214079663295     1.007825032230
         H            2.381089757643     2.467240074204    -0.629406636705     1.007825032230
         H            2.381058757643    -2.467872925796    -0.629663636705     1.007825032230
         H            0.882842757643    -3.360930925796    -0.327717636705     1.007825032230
         H            1.841059757643    -2.749630925796     1.028468363295     1.007825032230

  Basis Set: AUG-CC-PVTZ
    Blend: AUG-CC-PVTZ
  Basis Set: (AUG-CC-PVTZ AUX)
    Blend: AUG-CC-PVTZ-JKFIT
	 Reference Energy          =    -364.2743383327036213 [Eh]
	 Singles Energy            =      -0.0000000000000000 [Eh]
	 Same-Spin Energy          =      -0.3972188144072086 [Eh]
	 Opposite-Spin Energy      =      -1.3068881588060359 [Eh]
	 Correlation Energy        =      -1.7041069732132446 [Eh]
	 Total Energy              =    -365.9784453059168641 [Eh]

	 ================> DF-SCS-MP2 Energies <==================
	-----------------------------------------------------------
	 SCS Same-Spin Scale       =       0.3333333333333333 [-]
	 SCS Opposite-Spin Scale   =       1.2000000000000000 [-]
	 SCS Same-Spin Energy      =      -0.1324062714690695 [Eh]
	 SCS Opposite-Spin Energy  =      -1.5682657905672430 [Eh]
	 SCS Correlation Energy    =      -1.7006720620363125 [Eh]
	 SCS Total Energy          =    -365.9750103947399111 [Eh]
	-----------------------------------------------------------

  Dipole Moment: [D]
     X:    -8.3904      Y:    -0.0298      Z:     0.1306     Total:     8.3914

*** Psi4 exiting successfully. Buy a developer a beer!
