                               Psi4 1.4a3.dev225

  ==> Input File <==

--------------------------------------------------------------------------
#psi4
#
memory 32 gb

molecule  {
1 1
  N       -2.8138210    -0.0000810     0.0131690
  C       -1.3233890    -0.0000370    -0.0148680
  C        0.7280520     1.2302730    -0.0129860
  C        0.7281180    -1.2302340    -0.0129780
  C       -0.6725800    -1.2264340    -0.0069900
  C       -0.6726490     1.2263940    -0.0069970
  C        1.3988940     0.0000390    -0.0107890
  C        1.4942690     2.5253230     0.0134310
  C        1.4689591    -2.4822109     0.0125497
  H       -1.2241800    -2.1659650    -0.0138510
  H       -1.2242990     2.1658960    -0.0138630
  H        2.4879510     0.0000680    -0.0240190
  H       -3.1956820     0.8285560    -0.4636260
  H       -3.1956410    -0.8285950    -0.4638730
  H       -3.1827690    -0.0002330     0.9749950
  H        0.8779320     3.3605910    -0.3276200
  H        1.8358100     2.7495590     1.0289260
  H        2.3762850     2.4675780    -0.6290150
  H        2.3762540    -2.4675350    -0.6292720
  H        0.8780380    -3.3605930    -0.3273260
  H        1.8362550    -2.7492930     1.0288600
units angstrom
no_reorient  #important for SAPT in psi4, default
symmetry c1  #important for SAPT in psi4, default
}

set PROPERTIES_ORIGIN ["COM"]
properties('MP2/aug-cc-pvtz', properties = ['dipole'])
--------------------------------------------------------------------------

    Molecular point group: c1
  Charge       = 1
  Multiplicity = 1
  Basis Set: AUG-CC-PVTZ
    Blend: AUG-CC-PVTZ
  Basis Set: (AUG-CC-PVTZ AUX)
    Blend: AUG-CC-PVTZ-JKFIT

    Orbital Energies [Eh]
    ---------------------

    Doubly Occupied:

       1A    -15.888817     2A    -11.459075     3A    -11.394922
       4A    -11.394100     5A    -11.393561     6A    -11.392457
       7A    -11.371538     8A    -11.346301     9A    -11.345057
      10A     -1.502660    11A     -1.310756    12A     -1.208987
      13A     -1.183787    14A     -1.083832    15A     -1.070548
      16A     -0.989196    17A     -0.965156    18A     -0.949768
      19A     -0.907837    20A     -0.856331    21A     -0.821046
      22A     -0.796049    23A     -0.727593    24A     -0.720211
      25A     -0.710187    26A     -0.687442    27A     -0.677814
      28A     -0.654604    29A     -0.642437    30A     -0.631852
      31A     -0.628057    32A     -0.485812    33A     -0.473927

  @DF-RHF Final Energy:  -364.29100681894550

   => Energetics <=

    Nuclear Repulsion Energy =            433.1991138256587988
    One-Electron Energy =               -1339.6368088246256320
    Two-Electron Energy =                 542.1466881800214423
    Total Energy =                       -364.2910068189454478
  Basis Set: (AUG-CC-PVTZ AUX)
    Blend: AUG-CC-PVTZ-RI
    Molecular point group: c1

    Geometry (in Angstrom), charge = 1, multiplicity = 1:

       Center              X                  Y                   Z               Mass
    ------------   -----------------  -----------------  -----------------  -----------------
         N           -2.805998972533    -0.004309255611     0.014395133096    14.003074004430
         C           -1.315566972533    -0.004265255611    -0.013641866904    12.000000000000
         C            0.735874027467     1.226044744389    -0.011759866904    12.000000000000
         C            0.735940027467    -1.234462255611    -0.011751866904    12.000000000000
         C           -0.664757972533    -1.230662255611    -0.005763866904    12.000000000000
         C           -0.664826972533     1.222165744389    -0.005770866904    12.000000000000
         C            1.406716027467    -0.004189255611    -0.009562866904    12.000000000000
         C            1.502091027467     2.521094744389     0.014657133096    12.000000000000
         C            1.476781127467    -2.486439155611     0.013775833096    12.000000000000
         H           -1.216357972533    -2.170193255611    -0.012624866904     1.007825032230
         H           -1.216476972533     2.161667744389    -0.012636866904     1.007825032230
         H            2.495773027467    -0.004160255611    -0.022792866904     1.007825032230
         H           -3.187859972533     0.824327744389    -0.462399866904     1.007825032230
         H           -3.187818972533    -0.832823255611    -0.462646866904     1.007825032230
         H           -3.174946972533    -0.004461255611     0.976221133096     1.007825032230
         H            0.885754027467     3.356362744389    -0.326393866904     1.007825032230
         H            1.843632027467     2.745330744389     1.030152133096     1.007825032230
         H            2.384107027467     2.463349744389    -0.627788866904     1.007825032230
         H            2.384076027467    -2.471763255611    -0.628045866904     1.007825032230
         H            0.885860027467    -3.364821255611    -0.326099866904     1.007825032230
         H            1.844077027467    -2.753521255611     1.030086133096     1.007825032230

  Basis Set: AUG-CC-PVTZ
    Blend: AUG-CC-PVTZ
  Basis Set: (AUG-CC-PVTZ AUX)
    Blend: AUG-CC-PVTZ-JKFIT
	 Reference Energy          =    -364.2910068189455046 [Eh]
	 Singles Energy            =      -0.0000000000000000 [Eh]
	 Same-Spin Energy          =      -0.3977258382992662 [Eh]
	 Opposite-Spin Energy      =      -1.3058867182084843 [Eh]
	 Correlation Energy        =      -1.7036125565077505 [Eh]
	 Total Energy              =    -365.9946193754532828 [Eh]

	 ================> DF-SCS-MP2 Energies <==================
	-----------------------------------------------------------
	 SCS Same-Spin Scale       =       0.3333333333333333 [-]
	 SCS Opposite-Spin Scale   =       1.2000000000000000 [-]
	 SCS Same-Spin Energy      =      -0.1325752794330887 [Eh]
	 SCS Opposite-Spin Energy  =      -1.5670640618501812 [Eh]
	 SCS Correlation Energy    =      -1.6996393412832700 [Eh]
	 SCS Total Energy          =    -365.9906461602287777 [Eh]
	-----------------------------------------------------------

  Dipole Moment: [D]
     X:    -8.3408      Y:    -0.0375      Z:     0.1746     Total:     8.3427

*** Psi4 exiting successfully. Buy a developer a beer!
