                               Psi4 1.4a3.dev225

  ==> Input File <==

--------------------------------------------------------------------------
#psi4
#
memory 32 gb

molecule  {
1 1
  N       -2.8138210    -0.0000810     0.0131690
  C       -1.3233890    -0.0000370    -0.0148680
  C        0.7280520     1.2302730    -0.0129860
  C        0.7281180    -1.2302340    -0.0129780
  C       -0.6725800    -1.2264340    -0.0069900
  C       -0.6726490     1.2263940    -0.0069970
  C        1.3988940     0.0000390    -0.0107890
  C        1.4942690     2.5253230     0.0134310
  C        1.4944180    -2.5252350     0.0134270
  H       -1.2241800    -2.1659650    -0.0138510
  H       -1.2242990     2.1658960    -0.0138630
  H        2.4879510     0.0000680    -0.0240190
  H       -3.1956820     0.8285560    -0.4636260
  H       -3.1956410    -0.8285950    -0.4638730
  H       -3.1827690    -0.0002330     0.9749950
  H        0.9343401     3.2841460    -0.2964065
  H        1.8358100     2.7495590     1.0289260
  H        2.3762850     2.4675780    -0.6290150
  H        2.3762540    -2.4675350    -0.6292720
  H        0.8780380    -3.3605930    -0.3273260
  H        1.8362550    -2.7492930     1.0288600
units angstrom
no_reorient  #important for SAPT in psi4, default
symmetry c1  #important for SAPT in psi4, default
}

set PROPERTIES_ORIGIN ["COM"]
properties('MP2/aug-cc-pvtz', properties = ['dipole'])
--------------------------------------------------------------------------

    Molecular point group: c1
  Charge       = 1
  Multiplicity = 1
  Basis Set: AUG-CC-PVTZ
    Blend: AUG-CC-PVTZ
  Basis Set: (AUG-CC-PVTZ AUX)
    Blend: AUG-CC-PVTZ-JKFIT

    Orbital Energies [Eh]
    ---------------------

    Doubly Occupied:

       1A    -15.888652     2A    -11.458857     3A    -11.394579
       4A    -11.394418     5A    -11.393306     6A    -11.393231
       7A    -11.371017     8A    -11.344781     9A    -11.332976
      10A     -1.502491    11A     -1.309164    12A     -1.205948
      13A     -1.182368    14A     -1.086978    15A     -1.074237
      16A     -0.988792    17A     -0.967537    18A     -0.949611
      19A     -0.909653    20A     -0.856314    21A     -0.820264
      22A     -0.795798    23A     -0.726170    24A     -0.717781
      25A     -0.711133    26A     -0.692941    27A     -0.685068
      28A     -0.659686    29A     -0.641659    30A     -0.634910
      31A     -0.630098    32A     -0.486101    33A     -0.474975

  @DF-RHF Final Energy:  -364.28837443328484

   => Energetics <=

    Nuclear Repulsion Energy =            432.7919373907694762
    One-Electron Energy =               -1338.7976336071869810
    Two-Electron Energy =                 541.7173217831326610
    Total Energy =                       -364.2883744332848437
  Basis Set: (AUG-CC-PVTZ AUX)
    Blend: AUG-CC-PVTZ-RI
    Molecular point group: c1

    Geometry (in Angstrom), charge = 1, multiplicity = 1:

       Center              X                  Y                   Z               Mass
    ------------   -----------------  -----------------  -----------------  -----------------
         N           -2.808966747099     0.000550261896     0.014051264242    14.003074004430
         C           -1.318534747099     0.000594261896    -0.013985735758    12.000000000000
         C            0.732906252901     1.230904261896    -0.012103735758    12.000000000000
         C            0.732972252901    -1.229602738104    -0.012095735758    12.000000000000
         C           -0.667725747099    -1.225802738104    -0.006107735758    12.000000000000
         C           -0.667794747099     1.227025261896    -0.006114735758    12.000000000000
         C            1.403748252901     0.000670261896    -0.009906735758    12.000000000000
         C            1.499123252901     2.525954261896     0.014313264242    12.000000000000
         C            1.499272252901    -2.524603738104     0.014309264242    12.000000000000
         H           -1.219325747099    -2.165333738104    -0.012968735758     1.007825032230
         H           -1.219444747099     2.166527261896    -0.012980735758     1.007825032230
         H            2.492805252901     0.000699261896    -0.023136735758     1.007825032230
         H           -3.190827747099     0.829187261896    -0.462743735758     1.007825032230
         H           -3.190786747099    -0.827963738104    -0.462990735758     1.007825032230
         H           -3.177914747099     0.000398261896     0.975877264242     1.007825032230
         H            0.939194352901     3.284777261896    -0.295524235758     1.007825032230
         H            1.840664252901     2.750190261896     1.029808264242     1.007825032230
         H            2.381139252901     2.468209261896    -0.628132735758     1.007825032230
         H            2.381108252901    -2.466903738104    -0.628389735758     1.007825032230
         H            0.882892252901    -3.359961738104    -0.326443735758     1.007825032230
         H            1.841109252901    -2.748661738104     1.029742264242     1.007825032230

  Basis Set: AUG-CC-PVTZ
    Blend: AUG-CC-PVTZ
  Basis Set: (AUG-CC-PVTZ AUX)
    Blend: AUG-CC-PVTZ-JKFIT
	 Reference Energy          =    -364.2883744332848437 [Eh]
	 Singles Energy            =      -0.0000000000000000 [Eh]
	 Same-Spin Energy          =      -0.3971481565347008 [Eh]
	 Opposite-Spin Energy      =      -1.3047720302487062 [Eh]
	 Correlation Energy        =      -1.7019201867834071 [Eh]
	 Total Energy              =    -365.9902946200682550 [Eh]

	 ================> DF-SCS-MP2 Energies <==================
	-----------------------------------------------------------
	 SCS Same-Spin Scale       =       0.3333333333333333 [-]
	 SCS Opposite-Spin Scale   =       1.2000000000000000 [-]
	 SCS Same-Spin Energy      =      -0.1323827188449003 [Eh]
	 SCS Opposite-Spin Energy  =      -1.5657264362984475 [Eh]
	 SCS Correlation Energy    =      -1.6981091551433478 [Eh]
	 SCS Total Energy          =    -365.9864835884282002 [Eh]
	-----------------------------------------------------------

  Dipole Moment: [D]
     X:    -8.3764      Y:     0.0313      Z:     0.1637     Total:     8.3781

*** Psi4 exiting successfully. Buy a developer a beer!
