                               Psi4 1.4a3.dev225

  ==> Input File <==

--------------------------------------------------------------------------
#psi4
#
memory 32 gb

molecule  {
1 1
  N       -2.8138210    -0.0000810     0.0131690
  C       -1.3241053    -0.0000332    -0.0408754
  C        0.7280520     1.2302730    -0.0129860
  C        0.7281180    -1.2302340    -0.0129780
  C       -0.6725800    -1.2264340    -0.0069900
  C       -0.6726490     1.2263940    -0.0069970
  C        1.3988940     0.0000390    -0.0107890
  C        1.4942690     2.5253230     0.0134310
  C        1.4944180    -2.5252350     0.0134270
  H       -1.2241800    -2.1659650    -0.0138510
  H       -1.2242990     2.1658960    -0.0138630
  H        2.4879510     0.0000680    -0.0240190
  H       -3.1956820     0.8285560    -0.4636260
  H       -3.1956410    -0.8285950    -0.4638730
  H       -3.1827690    -0.0002330     0.9749950
  H        0.8779320     3.3605910    -0.3276200
  H        1.8358100     2.7495590     1.0289260
  H        2.3762850     2.4675780    -0.6290150
  H        2.3762540    -2.4675350    -0.6292720
  H        0.8780380    -3.3605930    -0.3273260
  H        1.8362550    -2.7492930     1.0288600
units angstrom
no_reorient  #important for SAPT in psi4, default
symmetry c1  #important for SAPT in psi4, default
}

set PROPERTIES_ORIGIN ["COM"]
properties('MP2/aug-cc-pvtz', properties = ['dipole'])
--------------------------------------------------------------------------

    Molecular point group: c1
  Charge       = 1
  Multiplicity = 1
  Basis Set: AUG-CC-PVTZ
    Blend: AUG-CC-PVTZ
  Basis Set: (AUG-CC-PVTZ AUX)
    Blend: AUG-CC-PVTZ-JKFIT

    Orbital Energies [Eh]
    ---------------------

    Doubly Occupied:

       1A    -15.888619     2A    -11.458900     3A    -11.394907
       4A    -11.394893     5A    -11.393641     6A    -11.393636
       7A    -11.371767     8A    -11.345001     9A    -11.345001
      10A     -1.502429    11A     -1.309174    12A     -1.204862
      13A     -1.181998    14A     -1.083024    15A     -1.070436
      16A     -0.988921    17A     -0.966042    18A     -0.949444
      19A     -0.907766    20A     -0.855740    21A     -0.820573
      22A     -0.794670    23A     -0.724031    24A     -0.715471
      25A     -0.710668    26A     -0.690376    27A     -0.679158
      28A     -0.656859    29A     -0.641411    30A     -0.634360
      31A     -0.628508    32A     -0.486515    33A     -0.474979

  @DF-RHF Final Energy:  -364.29398221434889

   => Energetics <=

    Nuclear Repulsion Energy =            432.3127125571506895
    One-Electron Energy =               -1337.8858320524798273
    Two-Electron Energy =                 541.2791372809801942
    Total Energy =                       -364.2939822143489437
  Basis Set: (AUG-CC-PVTZ AUX)
    Blend: AUG-CC-PVTZ-RI
    Molecular point group: c1

    Geometry (in Angstrom), charge = 1, multiplicity = 1:

       Center              X                  Y                   Z               Mass
    ------------   -----------------  -----------------  -----------------  -----------------
         N           -2.808430737951    -0.000081111527     0.016864982996    14.003074004430
         C           -1.318715037951    -0.000033311527    -0.037179417004    12.000000000000
         C            0.733442262049     1.230272888473    -0.009290017004    12.000000000000
         C            0.733508262049    -1.230234111527    -0.009282017004    12.000000000000
         C           -0.667189737951    -1.226434111527    -0.003294017004    12.000000000000
         C           -0.667258737951     1.226393888473    -0.003301017004    12.000000000000
         C            1.404284262049     0.000038888473    -0.007093017004    12.000000000000
         C            1.499659262049     2.525322888473     0.017126982996    12.000000000000
         C            1.499808262049    -2.525235111527     0.017122982996    12.000000000000
         H           -1.218789737951    -2.165965111527    -0.010155017004     1.007825032230
         H           -1.218908737951     2.165895888473    -0.010167017004     1.007825032230
         H            2.493341262049     0.000067888473    -0.020323017004     1.007825032230
         H           -3.190291737951     0.828555888473    -0.459930017004     1.007825032230
         H           -3.190250737951    -0.828595111527    -0.460177017004     1.007825032230
         H           -3.177378737951    -0.000233111527     0.978690982996     1.007825032230
         H            0.883322262049     3.360590888473    -0.323924017004     1.007825032230
         H            1.841200262049     2.749558888473     1.032621982996     1.007825032230
         H            2.381675262049     2.467577888473    -0.625319017004     1.007825032230
         H            2.381644262049    -2.467535111527    -0.625576017004     1.007825032230
         H            0.883428262049    -3.360593111527    -0.323630017004     1.007825032230
         H            1.841645262049    -2.749293111527     1.032555982996     1.007825032230

  Basis Set: AUG-CC-PVTZ
    Blend: AUG-CC-PVTZ
  Basis Set: (AUG-CC-PVTZ AUX)
    Blend: AUG-CC-PVTZ-JKFIT
	 Reference Energy          =    -364.2939822143488868 [Eh]
	 Singles Energy            =      -0.0000000000000000 [Eh]
	 Same-Spin Energy          =      -0.3971810455329805 [Eh]
	 Opposite-Spin Energy      =      -1.3053658841817910 [Eh]
	 Correlation Energy        =      -1.7025469297147715 [Eh]
	 Total Energy              =    -365.9965291440636861 [Eh]

	 ================> DF-SCS-MP2 Energies <==================
	-----------------------------------------------------------
	 SCS Same-Spin Scale       =       0.3333333333333333 [-]
	 SCS Opposite-Spin Scale   =       1.2000000000000000 [-]
	 SCS Same-Spin Energy      =      -0.1323936818443268 [Eh]
	 SCS Opposite-Spin Energy  =      -1.5664390610181491 [Eh]
	 SCS Correlation Energy    =      -1.6988327428624759 [Eh]
	 SCS Total Energy          =    -365.9928149572113512 [Eh]
	-----------------------------------------------------------

  Dipole Moment: [D]
     X:    -8.3541      Y:    -0.0002      Z:     0.1930     Total:     8.3563

*** Psi4 exiting successfully. Buy a developer a beer!
