                               Psi4 1.4a3.dev225

  ==> Input File <==

--------------------------------------------------------------------------
#psi4
#
memory 32 gb

molecule  {
1 1
  N       -2.8138210    -0.0000810     0.0131690
  C       -1.3233890    -0.0000370    -0.0148680
  C        0.7280520     1.2302730    -0.0129860
  C        0.7281180    -1.2302340    -0.0129780
  C       -0.6725800    -1.2264340    -0.0069900
  C       -0.6726490     1.2263940    -0.0069970
  C        1.3988940     0.0000390    -0.0107890
  C        1.4942690     2.5253230     0.0134310
  C        1.4944180    -2.5252350     0.0134270
  H       -1.2241800    -2.1659650    -0.0138510
  H       -1.2242990     2.1658960    -0.0138630
  H        2.4879510     0.0000680    -0.0240190
  H       -3.1956820     0.8285560    -0.4636260
  H       -3.1956410    -0.8285950    -0.4638730
  H       -3.1827690    -0.0002330     0.9749950
  H        0.8779320     3.3605910    -0.3276200
  H        1.8358100     2.7495590     1.0289260
  H        2.3762850     2.4675780    -0.6290150
  H        2.5376567    -2.4569741    -0.7469054
  H        0.8780380    -3.3605930    -0.3273260
  H        1.8362550    -2.7492930     1.0288600
units angstrom
no_reorient  #important for SAPT in psi4, default
symmetry c1  #important for SAPT in psi4, default
}

set PROPERTIES_ORIGIN ["COM"]
properties('MP2/aug-cc-pvtz', properties = ['dipole'])
--------------------------------------------------------------------------

    Molecular point group: c1
  Charge       = 1
  Multiplicity = 1
  Basis Set: AUG-CC-PVTZ
    Blend: AUG-CC-PVTZ
  Basis Set: (AUG-CC-PVTZ AUX)
    Blend: AUG-CC-PVTZ-JKFIT

    Orbital Energies [Eh]
    ---------------------

    Doubly Occupied:

       1A    -15.889189     2A    -11.459502     3A    -11.396287
       4A    -11.395179     5A    -11.394789     6A    -11.393984
       7A    -11.371851     8A    -11.366152     9A    -11.345139
      10A     -1.503021    11A     -1.309737    12A     -1.204530
      13A     -1.181549    14A     -1.080778    15A     -1.064608
      16A     -0.988281    17A     -0.964233    18A     -0.950121
      19A     -0.907336    20A     -0.855008    21A     -0.820528
      22A     -0.793881    23A     -0.724896    24A     -0.716065
      25A     -0.708945    26A     -0.688498    27A     -0.673621
      28A     -0.648722    29A     -0.637388    30A     -0.630314
      31A     -0.616499    32A     -0.486020    33A     -0.475086

  @DF-RHF Final Energy:  -364.27390478549790

   => Energetics <=

    Nuclear Repulsion Energy =            431.5692002362825974
    One-Electron Energy =               -1336.4027384929443087
    Two-Electron Energy =                 540.5596334711639201
    Total Energy =                       -364.2739047854978480
  Basis Set: (AUG-CC-PVTZ AUX)
    Blend: AUG-CC-PVTZ-RI
    Molecular point group: c1

    Geometry (in Angstrom), charge = 1, multiplicity = 1:

       Center              X                  Y                   Z               Mass
    ------------   -----------------  -----------------  -----------------  -----------------
         N           -2.809833404006    -0.000167910888     0.015279891180    14.003074004430
         C           -1.319401404006    -0.000123910888    -0.012757108820    12.000000000000
         C            0.732039595994     1.230186089112    -0.010875108820    12.000000000000
         C            0.732105595994    -1.230320910888    -0.010867108820    12.000000000000
         C           -0.668592404006    -1.226520910888    -0.004879108820    12.000000000000
         C           -0.668661404006     1.226307089112    -0.004886108820    12.000000000000
         C            1.402881595994    -0.000047910888    -0.008678108820    12.000000000000
         C            1.498256595994     2.525236089112     0.015541891180    12.000000000000
         C            1.498405595994    -2.525321910888     0.015537891180    12.000000000000
         H           -1.220192404006    -2.166051910888    -0.011740108820     1.007825032230
         H           -1.220311404006     2.165809089112    -0.011752108820     1.007825032230
         H            2.491938595994    -0.000018910888    -0.021908108820     1.007825032230
         H           -3.191694404006     0.828469089112    -0.461515108820     1.007825032230
         H           -3.191653404006    -0.828681910888    -0.461762108820     1.007825032230
         H           -3.178781404006    -0.000319910888     0.977105891180     1.007825032230
         H            0.881919595994     3.360504089112    -0.325509108820     1.007825032230
         H            1.839797595994     2.749472089112     1.031036891180     1.007825032230
         H            2.380272595994     2.467491089112    -0.626904108820     1.007825032230
         H            2.541644295994    -2.457061010888    -0.744794508820     1.007825032230
         H            0.882025595994    -3.360679910888    -0.325215108820     1.007825032230
         H            1.840242595994    -2.749379910888     1.030970891180     1.007825032230

  Basis Set: AUG-CC-PVTZ
    Blend: AUG-CC-PVTZ
  Basis Set: (AUG-CC-PVTZ AUX)
    Blend: AUG-CC-PVTZ-JKFIT
	 Reference Energy          =    -364.2739047854979049 [Eh]
	 Singles Energy            =      -0.0000000000000000 [Eh]
	 Same-Spin Energy          =      -0.3972645751133116 [Eh]
	 Opposite-Spin Energy      =      -1.3070045276096334 [Eh]
	 Correlation Energy        =      -1.7042691027229451 [Eh]
	 Total Energy              =    -365.9781738882208515 [Eh]

	 ================> DF-SCS-MP2 Energies <==================
	-----------------------------------------------------------
	 SCS Same-Spin Scale       =       0.3333333333333333 [-]
	 SCS Opposite-Spin Scale   =       1.2000000000000000 [-]
	 SCS Same-Spin Energy      =      -0.1324215250377705 [Eh]
	 SCS Opposite-Spin Energy  =      -1.5684054331315600 [Eh]
	 SCS Correlation Energy    =      -1.7008269581693305 [Eh]
	 SCS Total Energy          =    -365.9747317436672347 [Eh]
	-----------------------------------------------------------

  Dipole Moment: [D]
     X:    -8.4212      Y:     0.0228      Z:     0.1967     Total:     8.4235

*** Psi4 exiting successfully. Buy a developer a beer!
