                               Psi4 1.4a3.dev225

  ==> Input File <==

--------------------------------------------------------------------------
#psi4
#
memory 32 gb

molecule  {
1 1
  N       -2.8138210    -0.0000810     0.0131690
  C       -1.3233890    -0.0000370    -0.0148680
  C        0.7280520     1.2302730    -0.0129860
  C        0.7281180    -1.2302340    -0.0129780
  C       -0.6725800    -1.2264340    -0.0069900
  C       -0.6726490     1.2263940    -0.0069970
  C        1.3988940     0.0000390    -0.0107890
  C        1.4942690     2.5253230     0.0134310
  C        1.5046016    -2.5424446     0.0137779
  H       -1.2241800    -2.1659650    -0.0138510
  H       -1.2242990     2.1658960    -0.0138630
  H        2.4879510     0.0000680    -0.0240190
  H       -3.1956820     0.8285560    -0.4636260
  H       -3.1956410    -0.8285950    -0.4638730
  H       -3.1827690    -0.0002330     0.9749950
  H        0.8779320     3.3605910    -0.3276200
  H        1.8358100     2.7495590     1.0289260
  H        2.3762850     2.4675780    -0.6290150
  H        2.3762540    -2.4675350    -0.6292720
  H        0.8780380    -3.3605930    -0.3273260
  H        1.8362550    -2.7492930     1.0288600
units angstrom
no_reorient  #important for SAPT in psi4, default
symmetry c1  #important for SAPT in psi4, default
}

set PROPERTIES_ORIGIN ["COM"]
properties('MP2/aug-cc-pvtz', properties = ['dipole'])
--------------------------------------------------------------------------

    Molecular point group: c1
  Charge       = 1
  Multiplicity = 1
  Basis Set: AUG-CC-PVTZ
    Blend: AUG-CC-PVTZ
  Basis Set: (AUG-CC-PVTZ AUX)
    Blend: AUG-CC-PVTZ-JKFIT

    Orbital Energies [Eh]
    ---------------------

    Doubly Occupied:

       1A    -15.888650     2A    -11.458833     3A    -11.395264
       4A    -11.394768     5A    -11.393609     6A    -11.393457
       7A    -11.371523     8A    -11.344932     9A    -11.344670
      10A     -1.502490    11A     -1.308715    12A     -1.203482
      13A     -1.181299    14A     -1.082847    15A     -1.070378
      16A     -0.988730    17A     -0.966335    18A     -0.949610
      19A     -0.907750    20A     -0.855804    21A     -0.820254
      22A     -0.794412    23A     -0.723595    24A     -0.713005
      25A     -0.711128    26A     -0.691587    27A     -0.680324
      28A     -0.657779    29A     -0.641313    30A     -0.635561
      31A     -0.626430    32A     -0.486640    33A     -0.475288

  @DF-RHF Final Energy:  -364.29430828624464

   => Energetics <=

    Nuclear Repulsion Energy =            432.0015876068140983
    One-Electron Energy =               -1337.2708743341122499
    Two-Electron Energy =                 540.9749784410533948
    Total Energy =                       -364.2943082862447000
  Basis Set: (AUG-CC-PVTZ AUX)
    Blend: AUG-CC-PVTZ-RI
    Molecular point group: c1

    Geometry (in Angstrom), charge = 1, multiplicity = 1:

       Center              X                  Y                   Z               Mass
    ------------   -----------------  -----------------  -----------------  -----------------
         N           -2.809502007740     0.001610665039     0.014274422488    14.003074004430
         C           -1.319070007740     0.001654665039    -0.013762577512    12.000000000000
         C            0.732370992260     1.231964665039    -0.011880577512    12.000000000000
         C            0.732436992260    -1.228542334961    -0.011872577512    12.000000000000
         C           -0.668261007740    -1.224742334961    -0.005884577512    12.000000000000
         C           -0.668330007740     1.228085665039    -0.005891577512    12.000000000000
         C            1.403212992260     0.001730665039    -0.009683577512    12.000000000000
         C            1.498587992260     2.527014665039     0.014536422488    12.000000000000
         C            1.508920592260    -2.540752934961     0.014883322488    12.000000000000
         H           -1.219861007740    -2.164273334961    -0.012745577512     1.007825032230
         H           -1.219980007740     2.167587665039    -0.012757577512     1.007825032230
         H            2.492269992260     0.001759665039    -0.022913577512     1.007825032230
         H           -3.191363007740     0.830247665039    -0.462520577512     1.007825032230
         H           -3.191322007740    -0.826903334961    -0.462767577512     1.007825032230
         H           -3.178450007740     0.001458665039     0.976100422488     1.007825032230
         H            0.882250992260     3.362282665039    -0.326514577512     1.007825032230
         H            1.840128992260     2.751250665039     1.030031422488     1.007825032230
         H            2.380603992260     2.469269665039    -0.627909577512     1.007825032230
         H            2.380572992260    -2.465843334961    -0.628166577512     1.007825032230
         H            0.882356992260    -3.358901334961    -0.326220577512     1.007825032230
         H            1.840573992260    -2.747601334961     1.029965422488     1.007825032230

  Basis Set: AUG-CC-PVTZ
    Blend: AUG-CC-PVTZ
  Basis Set: (AUG-CC-PVTZ AUX)
    Blend: AUG-CC-PVTZ-JKFIT
	 Reference Energy          =    -364.2943082862446431 [Eh]
	 Singles Energy            =      -0.0000000000000000 [Eh]
	 Same-Spin Energy          =      -0.3969870039803192 [Eh]
	 Opposite-Spin Energy      =      -1.3051761254808185 [Eh]
	 Correlation Energy        =      -1.7021631294611377 [Eh]
	 Total Energy              =    -365.9964714157057983 [Eh]

	 ================> DF-SCS-MP2 Energies <==================
	-----------------------------------------------------------
	 SCS Same-Spin Scale       =       0.3333333333333333 [-]
	 SCS Opposite-Spin Scale   =       1.2000000000000000 [-]
	 SCS Same-Spin Energy      =      -0.1323290013267731 [Eh]
	 SCS Opposite-Spin Energy  =      -1.5662113505769821 [Eh]
	 SCS Correlation Energy    =      -1.6985403519037552 [Eh]
	 SCS Total Energy          =    -365.9928486381484163 [Eh]
	-----------------------------------------------------------

  Dipole Moment: [D]
     X:    -8.3747      Y:     0.0123      Z:     0.1687     Total:     8.3764

*** Psi4 exiting successfully. Buy a developer a beer!
