                               Psi4 1.4a3.dev225

  ==> Input File <==

--------------------------------------------------------------------------
#psi4
#
memory 32 gb

molecule  {
1 1
  N       -2.8138210    -0.0000810     0.0131690
  C       -1.3233890    -0.0000370    -0.0148680
  C        0.7280520     1.2302730    -0.0129860
  C        0.7281180    -1.2302340    -0.0129780
  C       -0.6725800    -1.2264340    -0.0069900
  C       -0.6726490     1.2263940    -0.0069970
  C        1.3988940     0.0000390    -0.0107890
  C        1.4942690     2.5253230     0.0134310
  C        1.4944180    -2.5252350     0.0134270
  H       -1.2241800    -2.1659650    -0.0138510
  H       -1.2242990     2.1658960    -0.0138630
  H        2.4879510     0.0000680    -0.0240190
  H       -3.2031007     0.8446545    -0.4728890
  H       -3.1956410    -0.8285950    -0.4638730
  H       -3.1827690    -0.0002330     0.9749950
  H        0.8779320     3.3605910    -0.3276200
  H        1.8358100     2.7495590     1.0289260
  H        2.3762850     2.4675780    -0.6290150
  H        2.3762540    -2.4675350    -0.6292720
  H        0.8780380    -3.3605930    -0.3273260
  H        1.8362550    -2.7492930     1.0288600
units angstrom
no_reorient  #important for SAPT in psi4, default
symmetry c1  #important for SAPT in psi4, default
}

set PROPERTIES_ORIGIN ["COM"]
properties('MP2/aug-cc-pvtz', properties = ['dipole'])
--------------------------------------------------------------------------

    Molecular point group: c1
  Charge       = 1
  Multiplicity = 1
  Basis Set: AUG-CC-PVTZ
    Blend: AUG-CC-PVTZ
  Basis Set: (AUG-CC-PVTZ AUX)
    Blend: AUG-CC-PVTZ-JKFIT

    Orbital Energies [Eh]
    ---------------------

    Doubly Occupied:

       1A    -15.889850     2A    -11.458738     3A    -11.394722
       4A    -11.394704     5A    -11.393383     6A    -11.393354
       7A    -11.371413     8A    -11.344919     9A    -11.344899
      10A     -1.499457    11A     -1.308890    12A     -1.204733
      13A     -1.181552    14A     -1.082824    15A     -1.070281
      16A     -0.988262    17A     -0.963635    18A     -0.947516
      19A     -0.905812    20A     -0.855547    21A     -0.820238
      22A     -0.794395    23A     -0.723993    24A     -0.715272
      25A     -0.710620    26A     -0.690260    27A     -0.679020
      28A     -0.656755    29A     -0.641018    30A     -0.634438
      31A     -0.628400    32A     -0.486255    33A     -0.474898

  @DF-RHF Final Energy:  -364.29335759000423

   => Energetics <=

    Nuclear Repulsion Energy =            432.2352584894213123
    One-Electron Energy =               -1337.7571257626145780
    Two-Electron Energy =                 541.2285096831890314
    Total Energy =                       -364.2933575900042342
  Basis Set: (AUG-CC-PVTZ AUX)
    Blend: AUG-CC-PVTZ-RI
    Molecular point group: c1

    Geometry (in Angstrom), charge = 1, multiplicity = 1:

       Center              X                  Y                   Z               Mass
    ------------   -----------------  -----------------  -----------------  -----------------
         N           -2.808439901556    -0.000213619898     0.014385369408    14.003074004430
         C           -1.318007901556    -0.000169619898    -0.013651630592    12.000000000000
         C            0.733433098444     1.230140380102    -0.011769630592    12.000000000000
         C            0.733499098444    -1.230366619898    -0.011761630592    12.000000000000
         C           -0.667198901556    -1.226566619898    -0.005773630592    12.000000000000
         C           -0.667267901556     1.226261380102    -0.005780630592    12.000000000000
         C            1.404275098444    -0.000093619898    -0.009572630592    12.000000000000
         C            1.499650098444     2.525190380102     0.014647369408    12.000000000000
         C            1.499799098444    -2.525367619898     0.014643369408    12.000000000000
         H           -1.218798901556    -2.166097619898    -0.012634630592     1.007825032230
         H           -1.218917901556     2.165763380102    -0.012646630592     1.007825032230
         H            2.493332098444    -0.000064619898    -0.022802630592     1.007825032230
         H           -3.197719601556     0.844521880102    -0.471672630592     1.007825032230
         H           -3.190259901556    -0.828727619898    -0.462656630592     1.007825032230
         H           -3.177387901556    -0.000365619898     0.976211369408     1.007825032230
         H            0.883313098444     3.360458380102    -0.326403630592     1.007825032230
         H            1.841191098444     2.749426380102     1.030142369408     1.007825032230
         H            2.381666098444     2.467445380102    -0.627798630592     1.007825032230
         H            2.381635098444    -2.467667619898    -0.628055630592     1.007825032230
         H            0.883419098444    -3.360725619898    -0.326109630592     1.007825032230
         H            1.841636098444    -2.749425619898     1.030076369408     1.007825032230

  Basis Set: AUG-CC-PVTZ
    Blend: AUG-CC-PVTZ
  Basis Set: (AUG-CC-PVTZ AUX)
    Blend: AUG-CC-PVTZ-JKFIT
	 Reference Energy          =    -364.2933575900042342 [Eh]
	 Singles Energy            =      -0.0000000000000000 [Eh]
	 Same-Spin Energy          =      -0.3972784745817858 [Eh]
	 Opposite-Spin Energy      =      -1.3056668543324053 [Eh]
	 Correlation Energy        =      -1.7029453289141911 [Eh]
	 Total Energy              =    -365.9963029189184454 [Eh]

	 ================> DF-SCS-MP2 Energies <==================
	-----------------------------------------------------------
	 SCS Same-Spin Scale       =       0.3333333333333333 [-]
	 SCS Opposite-Spin Scale   =       1.2000000000000000 [-]
	 SCS Same-Spin Energy      =      -0.1324261581939286 [Eh]
	 SCS Opposite-Spin Energy  =      -1.5668002251988862 [Eh]
	 SCS Correlation Energy    =      -1.6992263833928147 [Eh]
	 SCS Total Energy          =    -365.9925839733970747 [Eh]
	-----------------------------------------------------------

  Dipole Moment: [D]
     X:    -8.3802      Y:     0.0206      Z:     0.1566     Total:     8.3817

*** Psi4 exiting successfully. Buy a developer a beer!
