                               Psi4 1.4a3.dev225

  ==> Input File <==

--------------------------------------------------------------------------
#psi4
#
memory 32 gb

molecule  {
1 1
  N       -2.8138210    -0.0000810     0.0131690
  C       -1.3233890    -0.0000370    -0.0148680
  C        0.7280520     1.2302730    -0.0129860
  C        0.7281180    -1.2302340    -0.0129780
  C       -0.6725800    -1.2264340    -0.0069900
  C       -0.6726490     1.2263940    -0.0069970
  C        1.4946333     0.1756348    -0.0104766
  C        1.4942690     2.5253230     0.0134310
  C        1.4944180    -2.5252350     0.0134270
  H       -1.2241800    -2.1659650    -0.0138510
  H       -1.2242990     2.1658960    -0.0138630
  H        2.4879510     0.0000680    -0.0240190
  H       -3.1956820     0.8285560    -0.4636260
  H       -3.1956410    -0.8285950    -0.4638730
  H       -3.1827690    -0.0002330     0.9749950
  H        0.8779320     3.3605910    -0.3276200
  H        1.8358100     2.7495590     1.0289260
  H        2.3762850     2.4675780    -0.6290150
  H        2.3762540    -2.4675350    -0.6292720
  H        0.8780380    -3.3605930    -0.3273260
  H        1.8362550    -2.7492930     1.0288600
units angstrom
no_reorient  #important for SAPT in psi4, default
symmetry c1  #important for SAPT in psi4, default
}

set PROPERTIES_ORIGIN ["COM"]
properties('MP2/aug-cc-pvtz', properties = ['dipole'])
--------------------------------------------------------------------------

    Molecular point group: c1
  Charge       = 1
  Multiplicity = 1
  Basis Set: AUG-CC-PVTZ
    Blend: AUG-CC-PVTZ
  Basis Set: (AUG-CC-PVTZ AUX)
    Blend: AUG-CC-PVTZ-JKFIT

    Orbital Energies [Eh]
    ---------------------

    Doubly Occupied:

       1A    -15.889661     2A    -11.462068     3A    -11.413724
       4A    -11.398568     5A    -11.388459     6A    -11.378858
       7A    -11.372976     8A    -11.348527     9A    -11.337747
      10A     -1.503633    11A     -1.304896    12A     -1.209727
      13A     -1.178396    14A     -1.085802    15A     -1.062760
      16A     -0.995649    17A     -0.963215    18A     -0.950608
      19A     -0.900827    20A     -0.855745    21A     -0.837111
      22A     -0.793368    23A     -0.725682    24A     -0.714227
      25A     -0.708867    26A     -0.693910    27A     -0.690378
      28A     -0.657037    29A     -0.653585    30A     -0.632181
      31A     -0.587492    32A     -0.497686    33A     -0.462809

  @DF-RHF Final Energy:  -364.25225236323308

   => Energetics <=

    Nuclear Repulsion Energy =            431.0287053630090099
    One-Electron Energy =               -1335.2495597885097141
    Two-Electron Energy =                 539.9686020622675642
    Total Energy =                       -364.2522523632330831
  Basis Set: (AUG-CC-PVTZ AUX)
    Blend: AUG-CC-PVTZ-RI
    Molecular point group: c1

    Geometry (in Angstrom), charge = 1, multiplicity = 1:

       Center              X                  Y                   Z               Mass
    ------------   -----------------  -----------------  -----------------  -----------------
         N           -2.817910638708    -0.017338738184     0.014278206366    14.003074004430
         C           -1.327478638708    -0.017294738184    -0.013758793634    12.000000000000
         C            0.723962361292     1.213015261816    -0.011876793634    12.000000000000
         C            0.724028361292    -1.247491738184    -0.011868793634    12.000000000000
         C           -0.676669638708    -1.243691738184    -0.005880793634    12.000000000000
         C           -0.676738638708     1.209136261816    -0.005887793634    12.000000000000
         C            1.490543661292     0.158377061816    -0.009367393634    12.000000000000
         C            1.490179361292     2.508065261816     0.014540206366    12.000000000000
         C            1.490328361292    -2.542492738184     0.014536206366    12.000000000000
         H           -1.228269638708    -2.183222738184    -0.012741793634     1.007825032230
         H           -1.228388638708     2.148638261816    -0.012753793634     1.007825032230
         H            2.483861361292    -0.017189738184    -0.022909793634     1.007825032230
         H           -3.199771638708     0.811298261816    -0.462516793634     1.007825032230
         H           -3.199730638708    -0.845852738184    -0.462763793634     1.007825032230
         H           -3.186858638708    -0.017490738184     0.976104206366     1.007825032230
         H            0.873842361292     3.343333261816    -0.326510793634     1.007825032230
         H            1.831720361292     2.732301261816     1.030035206366     1.007825032230
         H            2.372195361292     2.450320261816    -0.627905793634     1.007825032230
         H            2.372164361292    -2.484792738184    -0.628162793634     1.007825032230
         H            0.873948361292    -3.377850738184    -0.326216793634     1.007825032230
         H            1.832165361292    -2.766550738184     1.029969206366     1.007825032230

  Basis Set: AUG-CC-PVTZ
    Blend: AUG-CC-PVTZ
  Basis Set: (AUG-CC-PVTZ AUX)
    Blend: AUG-CC-PVTZ-JKFIT
	 Reference Energy          =    -364.2522523632330831 [Eh]
	 Singles Energy            =      -0.0000000000000000 [Eh]
	 Same-Spin Energy          =      -0.3966692536342559 [Eh]
	 Opposite-Spin Energy      =      -1.3071881877167375 [Eh]
	 Correlation Energy        =      -1.7038574413509935 [Eh]
	 Total Energy              =    -365.9561098045840595 [Eh]

	 ================> DF-SCS-MP2 Energies <==================
	-----------------------------------------------------------
	 SCS Same-Spin Scale       =       0.3333333333333333 [-]
	 SCS Opposite-Spin Scale   =       1.2000000000000000 [-]
	 SCS Same-Spin Energy      =      -0.1322230845447520 [Eh]
	 SCS Opposite-Spin Energy  =      -1.5686258252600849 [Eh]
	 SCS Correlation Energy    =      -1.7008489098048369 [Eh]
	 SCS Total Energy          =    -365.9531012730379302 [Eh]
	-----------------------------------------------------------

  Dipole Moment: [D]
     X:    -8.4077      Y:    -0.2906      Z:     0.1700     Total:     8.4145

*** Psi4 exiting successfully. Buy a developer a beer!
