                               Psi4 1.4a3.dev225

  ==> Input File <==

--------------------------------------------------------------------------
#psi4
#
memory 32 gb

molecule  {
1 1
  N       -2.8138210    -0.0000810     0.0131690
  C       -1.3233890    -0.0000370    -0.0148680
  C        0.7280520     1.2302730    -0.0129860
  C        0.7281180    -1.2302340    -0.0129780
  C       -0.6725800    -1.2264340    -0.0069900
  C       -0.6726490     1.2263940    -0.0069970
  C        1.3988940     0.0000390    -0.0107890
  C        1.4942690     2.5253230     0.0134310
  C        1.4944180    -2.5252350     0.0134270
  H       -1.2241800    -2.1659650    -0.0138510
  H       -1.2242990     2.1658960    -0.0138630
  H        2.4879510     0.0000680    -0.0240190
  H       -3.1956820     0.8285560    -0.4636260
  H       -3.1956410    -0.8285950    -0.4638730
  H       -3.1827690    -0.0002330     0.9749950
  H        0.8779320     3.3605910    -0.3276200
  H        1.8358100     2.7495590     1.0289260
  H        2.2955671     2.4728625    -0.5702214
  H        2.3762540    -2.4675350    -0.6292720
  H        0.8780380    -3.3605930    -0.3273260
  H        1.8362550    -2.7492930     1.0288600
units angstrom
no_reorient  #important for SAPT in psi4, default
symmetry c1  #important for SAPT in psi4, default
}

set PROPERTIES_ORIGIN ["COM"]
properties('MP2/aug-cc-pvtz', properties = ['dipole'])
--------------------------------------------------------------------------

    Molecular point group: c1
  Charge       = 1
  Multiplicity = 1
  Basis Set: AUG-CC-PVTZ
    Blend: AUG-CC-PVTZ
  Basis Set: (AUG-CC-PVTZ AUX)
    Blend: AUG-CC-PVTZ-JKFIT

    Orbital Energies [Eh]
    ---------------------

    Doubly Occupied:

       1A    -15.888574     2A    -11.458747     3A    -11.394791
       4A    -11.394342     5A    -11.393393     6A    -11.393086
       7A    -11.371554     8A    -11.344960     9A    -11.333281
      10A     -1.502421    11A     -1.309226    12A     -1.205761
      13A     -1.182816    14A     -1.087524    15A     -1.073454
      16A     -0.989543    17A     -0.967494    18A     -0.949541
      19A     -0.908487    20A     -0.857068    21A     -0.820649
      22A     -0.795950    23A     -0.724048    24A     -0.717583
      25A     -0.713075    26A     -0.695710    27A     -0.681883
      28A     -0.661617    29A     -0.642978    30A     -0.634900
      31A     -0.628235    32A     -0.486665    33A     -0.475010

  @DF-RHF Final Energy:  -364.28834987275337

   => Energetics <=

    Nuclear Repulsion Energy =            432.7951419864380114
    One-Electron Energy =               -1338.7982482852144130
    Two-Electron Energy =                 541.7147564260230865
    Total Energy =                       -364.2883498727533151
  Basis Set: (AUG-CC-PVTZ AUX)
    Blend: AUG-CC-PVTZ-RI
    Molecular point group: c1

    Geometry (in Angstrom), charge = 1, multiplicity = 1:

       Center              X                  Y                   Z               Mass
    ------------   -----------------  -----------------  -----------------  -----------------
         N           -2.807834867984    -0.000124357900     0.013823609828    14.003074004430
         C           -1.317402867984    -0.000080357900    -0.014213390172    12.000000000000
         C            0.734038132016     1.230229642100    -0.012331390172    12.000000000000
         C            0.734104132016    -1.230277357900    -0.012323390172    12.000000000000
         C           -0.666593867984    -1.226477357900    -0.006335390172    12.000000000000
         C           -0.666662867984     1.226350642100    -0.006342390172    12.000000000000
         C            1.404880132016    -0.000004357900    -0.010134390172    12.000000000000
         C            1.500255132016     2.525279642100     0.014085609828    12.000000000000
         C            1.500404132016    -2.525278357900     0.014081609828    12.000000000000
         H           -1.218193867984    -2.166008357900    -0.013196390172     1.007825032230
         H           -1.218312867984     2.165852642100    -0.013208390172     1.007825032230
         H            2.493937132016     0.000024642100    -0.023364390172     1.007825032230
         H           -3.189695867984     0.828512642100    -0.462971390172     1.007825032230
         H           -3.189654867984    -0.828638357900    -0.463218390172     1.007825032230
         H           -3.176782867984    -0.000276357900     0.975649609828     1.007825032230
         H            0.883918132016     3.360547642100    -0.326965390172     1.007825032230
         H            1.841796132016     2.749515642100     1.029580609828     1.007825032230
         H            2.301553232016     2.472819142100    -0.569566790172     1.007825032230
         H            2.382240132016    -2.467578357900    -0.628617390172     1.007825032230
         H            0.884024132016    -3.360636357900    -0.326671390172     1.007825032230
         H            1.842241132016    -2.749336357900     1.029514609828     1.007825032230

  Basis Set: AUG-CC-PVTZ
    Blend: AUG-CC-PVTZ
  Basis Set: (AUG-CC-PVTZ AUX)
    Blend: AUG-CC-PVTZ-JKFIT
	 Reference Energy          =    -364.2883498727533720 [Eh]
	 Singles Energy            =      -0.0000000000000000 [Eh]
	 Same-Spin Energy          =      -0.3971433969877428 [Eh]
	 Opposite-Spin Energy      =      -1.3047991386745581 [Eh]
	 Correlation Energy        =      -1.7019425356623010 [Eh]
	 Total Energy              =    -365.9902924084156552 [Eh]

	 ================> DF-SCS-MP2 Energies <==================
	-----------------------------------------------------------
	 SCS Same-Spin Scale       =       0.3333333333333333 [-]
	 SCS Opposite-Spin Scale   =       1.2000000000000000 [-]
	 SCS Same-Spin Energy      =      -0.1323811323292476 [Eh]
	 SCS Opposite-Spin Energy  =      -1.5657589664094698 [Eh]
	 SCS Correlation Energy    =      -1.6981400987387174 [Eh]
	 SCS Total Energy          =    -365.9864899714920625 [Eh]
	-----------------------------------------------------------

  Dipole Moment: [D]
     X:    -8.3517      Y:     0.0042      Z:     0.1637     Total:     8.3533

*** Psi4 exiting successfully. Buy a developer a beer!
