                               Psi4 1.4a3.dev225

  ==> Input File <==

--------------------------------------------------------------------------
#psi4
#
memory 32 gb

molecule  {
1 1
  N       -2.8138210    -0.0000810     0.0131690
  C       -1.3286231    -0.0000602     0.1410782
  C        0.7280520     1.2302730    -0.0129860
  C        0.7281180    -1.2302340    -0.0129780
  C       -0.6725800    -1.2264340    -0.0069900
  C       -0.6726490     1.2263940    -0.0069970
  C        1.3988940     0.0000390    -0.0107890
  C        1.4942690     2.5253230     0.0134310
  C        1.4944180    -2.5252350     0.0134270
  H       -1.2241800    -2.1659650    -0.0138510
  H       -1.2242990     2.1658960    -0.0138630
  H        2.4879510     0.0000680    -0.0240190
  H       -3.1956820     0.8285560    -0.4636260
  H       -3.1956410    -0.8285950    -0.4638730
  H       -3.1827690    -0.0002330     0.9749950
  H        0.8779320     3.3605910    -0.3276200
  H        1.8358100     2.7495590     1.0289260
  H        2.3762850     2.4675780    -0.6290150
  H        2.3762540    -2.4675350    -0.6292720
  H        0.8780380    -3.3605930    -0.3273260
  H        1.8362550    -2.7492930     1.0288600
units angstrom
no_reorient  #important for SAPT in psi4, default
symmetry c1  #important for SAPT in psi4, default
}

set PROPERTIES_ORIGIN ["COM"]
properties('MP2/aug-cc-pvtz', properties = ['dipole'])
--------------------------------------------------------------------------

    Molecular point group: c1
  Charge       = 1
  Multiplicity = 1
  Basis Set: AUG-CC-PVTZ
    Blend: AUG-CC-PVTZ
  Basis Set: (AUG-CC-PVTZ AUX)
    Blend: AUG-CC-PVTZ-JKFIT

    Orbital Energies [Eh]
    ---------------------

    Doubly Occupied:

       1A    -15.887697     2A    -11.460076     3A    -11.396237
       4A    -11.396201     5A    -11.394040     6A    -11.394009
       7A    -11.373036     8A    -11.345097     9A    -11.345097
      10A     -1.501977    11A     -1.307945    12A     -1.204466
      13A     -1.180841    14A     -1.081416    15A     -1.070561
      16A     -0.990468    17A     -0.965129    18A     -0.948603
      19A     -0.907576    20A     -0.853793    21A     -0.820420
      22A     -0.792901    23A     -0.723371    24A     -0.716463
      25A     -0.709630    26A     -0.690317    27A     -0.679336
      28A     -0.656459    29A     -0.641987    30A     -0.632077
      31A     -0.628529    32A     -0.486512    33A     -0.473989

  @DF-RHF Final Energy:  -364.28680126025540

   => Energetics <=

    Nuclear Repulsion Energy =            432.0237194824708808
    One-Electron Energy =               -1337.3085272792193336
    Two-Electron Energy =                 540.9980065364931079
    Total Energy =                       -364.2868012602554018
  Basis Set: (AUG-CC-PVTZ AUX)
    Blend: AUG-CC-PVTZ-RI
    Molecular point group: c1

    Geometry (in Angstrom), charge = 1, multiplicity = 1:

       Center              X                  Y                   Z               Mass
    ------------   -----------------  -----------------  -----------------  -----------------
         N           -2.807986717120    -0.000078457898    -0.001017877827    14.003074004430
         C           -1.322788817120    -0.000057657898     0.126891322173    12.000000000000
         C            0.733886282880     1.230275542102    -0.027172877827    12.000000000000
         C            0.733952282880    -1.230231457898    -0.027164877827    12.000000000000
         C           -0.666745717120    -1.226431457898    -0.021176877827    12.000000000000
         C           -0.666814717120     1.226396542102    -0.021183877827    12.000000000000
         C            1.404728282880     0.000041542102    -0.024975877827    12.000000000000
         C            1.500103282880     2.525325542102    -0.000755877827    12.000000000000
         C            1.500252282880    -2.525232457898    -0.000759877827    12.000000000000
         H           -1.218345717120    -2.165962457898    -0.028037877827     1.007825032230
         H           -1.218464717120     2.165898542102    -0.028049877827     1.007825032230
         H            2.493785282880     0.000070542102    -0.038205877827     1.007825032230
         H           -3.189847717120     0.828558542102    -0.477812877827     1.007825032230
         H           -3.189806717120    -0.828592457898    -0.478059877827     1.007825032230
         H           -3.176934717120    -0.000230457898     0.960808122173     1.007825032230
         H            0.883766282880     3.360593542102    -0.341806877827     1.007825032230
         H            1.841644282880     2.749561542102     1.014739122173     1.007825032230
         H            2.382119282880     2.467580542102    -0.643201877827     1.007825032230
         H            2.382088282880    -2.467532457898    -0.643458877827     1.007825032230
         H            0.883872282880    -3.360590457898    -0.341512877827     1.007825032230
         H            1.842089282880    -2.749290457898     1.014673122173     1.007825032230

  Basis Set: AUG-CC-PVTZ
    Blend: AUG-CC-PVTZ
  Basis Set: (AUG-CC-PVTZ AUX)
    Blend: AUG-CC-PVTZ-JKFIT
	 Reference Energy          =    -364.2868012602554018 [Eh]
	 Singles Energy            =      -0.0000000000000000 [Eh]
	 Same-Spin Energy          =      -0.3974940098953383 [Eh]
	 Opposite-Spin Energy      =      -1.3063740223613323 [Eh]
	 Correlation Energy        =      -1.7038680322566706 [Eh]
	 Total Energy              =    -365.9906692925120524 [Eh]

	 ================> DF-SCS-MP2 Energies <==================
	-----------------------------------------------------------
	 SCS Same-Spin Scale       =       0.3333333333333333 [-]
	 SCS Opposite-Spin Scale   =       1.2000000000000000 [-]
	 SCS Same-Spin Energy      =      -0.1324980032984461 [Eh]
	 SCS Opposite-Spin Energy  =      -1.5676488268335986 [Eh]
	 SCS Correlation Energy    =      -1.7001468301320448 [Eh]
	 SCS Total Energy          =    -365.9869480903874432 [Eh]
	-----------------------------------------------------------

  Dipole Moment: [D]
     X:    -8.3327      Y:    -0.0002      Z:     0.0328     Total:     8.3328

*** Psi4 exiting successfully. Buy a developer a beer!
