                               Psi4 1.4a3.dev225

  ==> Input File <==

--------------------------------------------------------------------------
#psi4
#
memory 32 gb

molecule  {
1 1
  N       -2.8138210    -0.0000810     0.0131690
  C       -1.3233890    -0.0000370    -0.0148680
  C        0.7280520     1.2302730    -0.0129860
  C        0.7281180    -1.2302340    -0.0129780
  C       -0.6725800    -1.2264340    -0.0069900
  C       -0.6726490     1.2263940    -0.0069970
  C        1.3988940     0.0000390    -0.0107890
  C        1.4942690     2.5253230     0.0134310
  C        1.4944180    -2.5252350     0.0134270
  H       -1.2241800    -2.1659650    -0.0138510
  H       -1.2242990     2.1658960    -0.0138630
  H        2.4879510     0.0000680    -0.0240190
  H       -3.1956820     0.8285560    -0.4636260
  H       -3.1956410    -0.8285950    -0.4638730
  H       -3.1827690    -0.0002330     0.9749950
  H        0.8779320     3.3605910    -0.3276200
  H        1.8202089     2.7393162     0.9825397
  H        2.3762850     2.4675780    -0.6290150
  H        2.3762540    -2.4675350    -0.6292720
  H        0.8780380    -3.3605930    -0.3273260
  H        1.8362550    -2.7492930     1.0288600
units angstrom
no_reorient  #important for SAPT in psi4, default
symmetry c1  #important for SAPT in psi4, default
}

set PROPERTIES_ORIGIN ["COM"]
properties('MP2/aug-cc-pvtz', properties = ['dipole'])
--------------------------------------------------------------------------

    Molecular point group: c1
  Charge       = 1
  Multiplicity = 1
  Basis Set: AUG-CC-PVTZ
    Blend: AUG-CC-PVTZ
  Basis Set: (AUG-CC-PVTZ AUX)
    Blend: AUG-CC-PVTZ-JKFIT

    Orbital Energies [Eh]
    ---------------------

    Doubly Occupied:

       1A    -15.888669     2A    -11.458858     3A    -11.394795
       4A    -11.394622     5A    -11.393463     6A    -11.393360
       7A    -11.371487     8A    -11.344958     9A    -11.339174
      10A     -1.502512    11A     -1.309242    12A     -1.205282
      13A     -1.182342    14A     -1.084762    15A     -1.072204
      16A     -0.989032    17A     -0.966747    18A     -0.949630
      19A     -0.908286    20A     -0.856364    21A     -0.820449
      22A     -0.794829    23A     -0.724527    24A     -0.716931
      25A     -0.713324    26A     -0.694196    27A     -0.678898
      28A     -0.657027    29A     -0.641121    30A     -0.636230
      31A     -0.628368    32A     -0.486665    33A     -0.475275

  @DF-RHF Final Energy:  -364.29340661800597

   => Energetics <=

    Nuclear Repulsion Energy =            432.5610435836910597
    One-Electron Energy =               -1338.3616413502331852
    Two-Electron Energy =                 541.5071911485360943
    Total Energy =                       -364.2934066180059745
  Basis Set: (AUG-CC-PVTZ AUX)
    Blend: AUG-CC-PVTZ-RI
    Molecular point group: c1

    Geometry (in Angstrom), charge = 1, multiplicity = 1:

       Center              X                  Y                   Z               Mass
    ------------   -----------------  -----------------  -----------------  -----------------
         N           -2.808372361573     0.000003809089     0.014691796256    14.003074004430
         C           -1.317940361573     0.000047809089    -0.013345203744    12.000000000000
         C            0.733500638427     1.230357809089    -0.011463203744    12.000000000000
         C            0.733566638427    -1.230149190911    -0.011455203744    12.000000000000
         C           -0.667131361573    -1.226349190911    -0.005467203744    12.000000000000
         C           -0.667200361573     1.226478809089    -0.005474203744    12.000000000000
         C            1.404342638427     0.000123809089    -0.009266203744    12.000000000000
         C            1.499717638427     2.525407809089     0.014953796256    12.000000000000
         C            1.499866638427    -2.525150190911     0.014949796256    12.000000000000
         H           -1.218731361573    -2.165880190911    -0.012328203744     1.007825032230
         H           -1.218850361573     2.165980809089    -0.012340203744     1.007825032230
         H            2.493399638427     0.000152809089    -0.022496203744     1.007825032230
         H           -3.190233361573     0.828640809089    -0.462103203744     1.007825032230
         H           -3.190192361573    -0.828510190911    -0.462350203744     1.007825032230
         H           -3.177320361573    -0.000148190911     0.976517796256     1.007825032230
         H            0.883380638427     3.360675809089    -0.326097203744     1.007825032230
         H            1.825657538427     2.739401009089     0.984062496256     1.007825032230
         H            2.381733638427     2.467662809089    -0.627492203744     1.007825032230
         H            2.381702638427    -2.467450190911    -0.627749203744     1.007825032230
         H            0.883486638427    -3.360508190911    -0.325803203744     1.007825032230
         H            1.841703638427    -2.749208190911     1.030382796256     1.007825032230

  Basis Set: AUG-CC-PVTZ
    Blend: AUG-CC-PVTZ
  Basis Set: (AUG-CC-PVTZ AUX)
    Blend: AUG-CC-PVTZ-JKFIT
	 Reference Energy          =    -364.2934066180059745 [Eh]
	 Singles Energy            =      -0.0000000000000000 [Eh]
	 Same-Spin Energy          =      -0.3971534042759634 [Eh]
	 Opposite-Spin Energy      =      -1.3050344929951394 [Eh]
	 Correlation Energy        =      -1.7021878972711026 [Eh]
	 Total Energy              =    -365.9955945152771051 [Eh]

	 ================> DF-SCS-MP2 Energies <==================
	-----------------------------------------------------------
	 SCS Same-Spin Scale       =       0.3333333333333333 [-]
	 SCS Opposite-Spin Scale   =       1.2000000000000000 [-]
	 SCS Same-Spin Energy      =      -0.1323844680919878 [Eh]
	 SCS Opposite-Spin Energy  =      -1.5660413915941673 [Eh]
	 SCS Correlation Energy    =      -1.6984258596861550 [Eh]
	 SCS Total Energy          =    -365.9918324776921281 [Eh]
	-----------------------------------------------------------

  Dipole Moment: [D]
     X:    -8.3644      Y:     0.0016      Z:     0.1752     Total:     8.3662

*** Psi4 exiting successfully. Buy a developer a beer!
