                               Psi4 1.4a3.dev225

  ==> Input File <==

--------------------------------------------------------------------------
#psi4
#
memory 32 gb

molecule  {
1 1
  N       -2.8138210    -0.0000810     0.0131690
  C       -1.3233890    -0.0000370    -0.0148680
  C        0.7280520     1.2302730    -0.0129860
  C        0.7281180    -1.2302340    -0.0129780
  C       -0.6725800    -1.2264340    -0.0069900
  C       -0.6726490     1.2263940    -0.0069970
  C        1.3988940     0.0000390    -0.0107890
  C        1.4942690     2.5253230     0.0134310
  C        1.4944180    -2.5252350     0.0134270
  H       -1.2241800    -2.1659650    -0.0138510
  H       -1.2242990     2.1658960    -0.0138630
  H        2.4879510     0.0000680    -0.0240190
  H       -3.1956820     0.8285560    -0.4636260
  H       -3.1956410    -0.8285950    -0.4638730
  H       -3.2543982    -0.0002625     1.1617281
  H        0.8779320     3.3605910    -0.3276200
  H        1.8358100     2.7495590     1.0289260
  H        2.3762850     2.4675780    -0.6290150
  H        2.3762540    -2.4675350    -0.6292720
  H        0.8780380    -3.3605930    -0.3273260
  H        1.8362550    -2.7492930     1.0288600
units angstrom
no_reorient  #important for SAPT in psi4, default
symmetry c1  #important for SAPT in psi4, default
}

set PROPERTIES_ORIGIN ["COM"]
properties('MP2/aug-cc-pvtz', properties = ['dipole'])
--------------------------------------------------------------------------

    Molecular point group: c1
  Charge       = 1
  Multiplicity = 1
  Basis Set: AUG-CC-PVTZ
    Blend: AUG-CC-PVTZ
  Basis Set: (AUG-CC-PVTZ AUX)
    Blend: AUG-CC-PVTZ-JKFIT

    Orbital Energies [Eh]
    ---------------------

    Doubly Occupied:

       1A    -15.896934     2A    -11.457012     3A    -11.393569
       4A    -11.393568     5A    -11.391998     6A    -11.391991
       7A    -11.370491     8A    -11.344209     9A    -11.344208
      10A     -1.478114    11A     -1.305991    12A     -1.203653
      13A     -1.177582    14A     -1.081623    15A     -1.069362
      16A     -0.984199    17A     -0.961859    18A     -0.904529
      19A     -0.891474    20A     -0.851298    21A     -0.816917
      22A     -0.793107    23A     -0.722754    24A     -0.714271
      25A     -0.709311    26A     -0.689584    27A     -0.678219
      28A     -0.655885    29A     -0.639797    30A     -0.631580
      31A     -0.627493    32A     -0.484118    33A     -0.473835

  @DF-RHF Final Energy:  -364.26736070322522

   => Energetics <=

    Nuclear Repulsion Energy =            431.4057921264577544
    One-Electron Energy =               -1336.2852330528794482
    Two-Electron Energy =                 540.6120802231964717
    Total Energy =                       -364.2673607032252221
  Basis Set: (AUG-CC-PVTZ AUX)
    Blend: AUG-CC-PVTZ-RI
    Molecular point group: c1

    Geometry (in Angstrom), charge = 1, multiplicity = 1:

       Center              X                  Y                   Z               Mass
    ------------   -----------------  -----------------  -----------------  -----------------
         N           -2.807909888838    -0.000080494551     0.012767558838    14.003074004430
         C           -1.317477888838    -0.000036494551    -0.015269441162    12.000000000000
         C            0.733963111162     1.230273505449    -0.013387441162    12.000000000000
         C            0.734029111162    -1.230233494551    -0.013379441162    12.000000000000
         C           -0.666668888838    -1.226433494551    -0.007391441162    12.000000000000
         C           -0.666737888838     1.226394505449    -0.007398441162    12.000000000000
         C            1.404805111162     0.000039505449    -0.011190441162    12.000000000000
         C            1.500180111162     2.525323505449     0.013029558838    12.000000000000
         C            1.500329111162    -2.525234494551     0.013025558838    12.000000000000
         H           -1.218268888838    -2.165964494551    -0.014252441162     1.007825032230
         H           -1.218387888838     2.165896505449    -0.014264441162     1.007825032230
         H            2.493862111162     0.000068505449    -0.024420441162     1.007825032230
         H           -3.189770888838     0.828556505449    -0.464027441162     1.007825032230
         H           -3.189729888838    -0.828594494551    -0.464274441162     1.007825032230
         H           -3.248487088838    -0.000261994551     1.161326658838     1.007825032230
         H            0.883843111162     3.360591505449    -0.328021441162     1.007825032230
         H            1.841721111162     2.749559505449     1.028524558838     1.007825032230
         H            2.382196111162     2.467578505449    -0.629416441162     1.007825032230
         H            2.382165111162    -2.467534494551    -0.629673441162     1.007825032230
         H            0.883949111162    -3.360592494551    -0.327727441162     1.007825032230
         H            1.842166111162    -2.749292494551     1.028458558838     1.007825032230

  Basis Set: AUG-CC-PVTZ
    Blend: AUG-CC-PVTZ
  Basis Set: (AUG-CC-PVTZ AUX)
    Blend: AUG-CC-PVTZ-JKFIT
	 Reference Energy          =    -364.2673607032252221 [Eh]
	 Singles Energy            =      -0.0000000000000000 [Eh]
	 Same-Spin Energy          =      -0.3983627582637282 [Eh]
	 Opposite-Spin Energy      =      -1.3090335078755726 [Eh]
	 Correlation Energy        =      -1.7073962661393010 [Eh]
	 Total Energy              =    -365.9747569693645346 [Eh]

	 ================> DF-SCS-MP2 Energies <==================
	-----------------------------------------------------------
	 SCS Same-Spin Scale       =       0.3333333333333333 [-]
	 SCS Opposite-Spin Scale   =       1.2000000000000000 [-]
	 SCS Same-Spin Energy      =      -0.1327875860879094 [Eh]
	 SCS Opposite-Spin Energy  =      -1.5708402094506870 [Eh]
	 SCS Correlation Energy    =      -1.7036277955385963 [Eh]
	 SCS Total Energy          =    -365.9709884987638020 [Eh]
	-----------------------------------------------------------

  Dipole Moment: [D]
     X:    -8.4741      Y:    -0.0003      Z:     0.4563     Total:     8.4864

*** Psi4 exiting successfully. Buy a developer a beer!
