                               Psi4 1.4a3.dev225

  ==> Input File <==

--------------------------------------------------------------------------
#psi4
#
memory 32 gb

molecule  {
1 1
  N       -2.8138210    -0.0000810     0.0131690
  C       -1.3233890    -0.0000370    -0.0148680
  C        0.7280520     1.2302730    -0.0129860
  C        0.7281180    -1.2302340    -0.0129780
  C       -0.6725800    -1.2264340    -0.0069900
  C       -0.6726490     1.2263940    -0.0069970
  C        1.3988940     0.0000390    -0.0107890
  C        1.4942690     2.5253230     0.0134310
  C        1.4435001    -2.4391868     0.0116725
  H       -1.2241800    -2.1659650    -0.0138510
  H       -1.2242990     2.1658960    -0.0138630
  H        2.4879510     0.0000680    -0.0240190
  H       -3.1956820     0.8285560    -0.4636260
  H       -3.1956410    -0.8285950    -0.4638730
  H       -3.1827690    -0.0002330     0.9749950
  H        0.8779320     3.3605910    -0.3276200
  H        1.8358100     2.7495590     1.0289260
  H        2.3762850     2.4675780    -0.6290150
  H        2.3762540    -2.4675350    -0.6292720
  H        0.8780380    -3.3605930    -0.3273260
  H        1.8362550    -2.7492930     1.0288600
units angstrom
no_reorient  #important for SAPT in psi4, default
symmetry c1  #important for SAPT in psi4, default
}

set PROPERTIES_ORIGIN ["COM"]
properties('MP2/aug-cc-pvtz', properties = ['dipole'])
--------------------------------------------------------------------------

    Molecular point group: c1
  Charge       = 1
  Multiplicity = 1
  Basis Set: AUG-CC-PVTZ
    Blend: AUG-CC-PVTZ
  Basis Set: (AUG-CC-PVTZ AUX)
    Blend: AUG-CC-PVTZ-JKFIT

    Orbital Energies [Eh]
    ---------------------

    Doubly Occupied:

       1A    -15.888868     2A    -11.459167     3A    -11.394935
       4A    -11.393853     5A    -11.393523     6A    -11.390322
       7A    -11.371464     8A    -11.348326     9A    -11.345084
      10A     -1.502713    11A     -1.312606    12A     -1.214241
      13A     -1.185199    14A     -1.084727    15A     -1.070931
      16A     -0.989521    17A     -0.964060    18A     -0.949814
      19A     -0.907658    20A     -0.856633    21A     -0.821649
      22A     -0.797333    23A     -0.735451    24A     -0.721819
      25A     -0.710171    26A     -0.685256    27A     -0.678076
      28A     -0.653430    29A     -0.644952    30A     -0.628489
      31A     -0.621168    32A     -0.485164    33A     -0.472178

  @DF-RHF Final Energy:  -364.28180343014077

   => Energetics <=

    Nuclear Repulsion Energy =            434.0963823188985771
    One-Electron Energy =               -1341.3988081944005444
    Two-Electron Energy =                 543.0206224453611412
    Total Energy =                       -364.2818034301408261
  Basis Set: (AUG-CC-PVTZ AUX)
    Blend: AUG-CC-PVTZ-RI
    Molecular point group: c1

    Geometry (in Angstrom), charge = 1, multiplicity = 1:

       Center              X                  Y                   Z               Mass
    ------------   -----------------  -----------------  -----------------  -----------------
         N           -2.803496797507    -0.008537773169     0.014481346534    14.003074004430
         C           -1.313064797507    -0.008493773169    -0.013555653466    12.000000000000
         C            0.738376202493     1.221816226831    -0.011673653466    12.000000000000
         C            0.738442202493    -1.238690773169    -0.011665653466    12.000000000000
         C           -0.662255797507    -1.234890773169    -0.005677653466    12.000000000000
         C           -0.662324797507     1.217937226831    -0.005684653466    12.000000000000
         C            1.409218202493    -0.008417773169    -0.009476653466    12.000000000000
         C            1.504593202493     2.516866226831     0.014743346534    12.000000000000
         C            1.453824302493    -2.447643573169     0.012984846534    12.000000000000
         H           -1.213855797507    -2.174421773169    -0.012538653466     1.007825032230
         H           -1.213974797507     2.157439226831    -0.012550653466     1.007825032230
         H            2.498275202493    -0.008388773169    -0.022706653466     1.007825032230
         H           -3.185357797507     0.820099226831    -0.462313653466     1.007825032230
         H           -3.185316797507    -0.837051773169    -0.462560653466     1.007825032230
         H           -3.172444797507    -0.008689773169     0.976307346534     1.007825032230
         H            0.888256202493     3.352134226831    -0.326307653466     1.007825032230
         H            1.846134202493     2.741102226831     1.030238346534     1.007825032230
         H            2.386609202493     2.459121226831    -0.627702653466     1.007825032230
         H            2.386578202493    -2.475991773169    -0.627959653466     1.007825032230
         H            0.888362202493    -3.369049773169    -0.326013653466     1.007825032230
         H            1.846579202493    -2.757749773169     1.030172346534     1.007825032230

  Basis Set: AUG-CC-PVTZ
    Blend: AUG-CC-PVTZ
  Basis Set: (AUG-CC-PVTZ AUX)
    Blend: AUG-CC-PVTZ-JKFIT
	 Reference Energy          =    -364.2818034301407693 [Eh]
	 Singles Energy            =      -0.0000000000000000 [Eh]
	 Same-Spin Energy          =      -0.3985175066411342 [Eh]
	 Opposite-Spin Energy      =      -1.3068392569357674 [Eh]
	 Correlation Energy        =      -1.7053567635769016 [Eh]
	 Total Energy              =    -365.9871601937176706 [Eh]

	 ================> DF-SCS-MP2 Energies <==================
	-----------------------------------------------------------
	 SCS Same-Spin Scale       =       0.3333333333333333 [-]
	 SCS Opposite-Spin Scale   =       1.2000000000000000 [-]
	 SCS Same-Spin Energy      =      -0.1328391688803781 [Eh]
	 SCS Opposite-Spin Energy  =      -1.5682071083229208 [Eh]
	 SCS Correlation Energy    =      -1.7010462772032988 [Eh]
	 SCS Total Energy          =    -365.9828497073440872 [Eh]
	-----------------------------------------------------------

  Dipole Moment: [D]
     X:    -8.3089      Y:    -0.0838      Z:     0.1801     Total:     8.3113

*** Psi4 exiting successfully. Buy a developer a beer!
