                               Psi4 1.4a3.dev225

  ==> Input File <==

--------------------------------------------------------------------------
#psi4
#
memory 32 gb

molecule  {
1 1
  N       -2.8138210    -0.0000810     0.0131690
  C       -1.3233890    -0.0000370    -0.0148680
  C        0.7280520     1.2302730    -0.0129860
  C        0.7281180    -1.2302340    -0.0129780
  C       -0.6725800    -1.2264340    -0.0069900
  C       -0.6726490     1.2263940    -0.0069970
  C        1.4228288     0.0439380    -0.0107109
  C        1.4942690     2.5253230     0.0134310
  C        1.4944180    -2.5252350     0.0134270
  H       -1.2241800    -2.1659650    -0.0138510
  H       -1.2242990     2.1658960    -0.0138630
  H        2.4879510     0.0000680    -0.0240190
  H       -3.1956820     0.8285560    -0.4636260
  H       -3.1956410    -0.8285950    -0.4638730
  H       -3.1827690    -0.0002330     0.9749950
  H        0.8779320     3.3605910    -0.3276200
  H        1.8358100     2.7495590     1.0289260
  H        2.3762850     2.4675780    -0.6290150
  H        2.3762540    -2.4675350    -0.6292720
  H        0.8780380    -3.3605930    -0.3273260
  H        1.8362550    -2.7492930     1.0288600
units angstrom
no_reorient  #important for SAPT in psi4, default
symmetry c1  #important for SAPT in psi4, default
}

set PROPERTIES_ORIGIN ["COM"]
properties('MP2/aug-cc-pvtz', properties = ['dipole'])
--------------------------------------------------------------------------

    Molecular point group: c1
  Charge       = 1
  Multiplicity = 1
  Basis Set: AUG-CC-PVTZ
    Blend: AUG-CC-PVTZ
  Basis Set: (AUG-CC-PVTZ AUX)
    Blend: AUG-CC-PVTZ-JKFIT

    Orbital Energies [Eh]
    ---------------------

    Doubly Occupied:

       1A    -15.888867     2A    -11.459464     3A    -11.400845
       4A    -11.395245     5A    -11.392467     6A    -11.390154
       7A    -11.372059     8A    -11.346081     9A    -11.342952
      10A     -1.502732    11A     -1.307461    12A     -1.204599
      13A     -1.181576    14A     -1.083341    15A     -1.068853
      16A     -0.990484    17A     -0.965126    18A     -0.949826
      19A     -0.905487    20A     -0.855915    21A     -0.824515
      22A     -0.793926    23A     -0.724306    24A     -0.715036
      25A     -0.710010    26A     -0.690157    27A     -0.682731
      28A     -0.656766    29A     -0.645993    30A     -0.634029
      31A     -0.621501    32A     -0.486640    33A     -0.473115

  @DF-RHF Final Energy:  -364.29121332449483

   => Energetics <=

    Nuclear Repulsion Energy =            431.9643539207630170
    One-Electron Energy =               -1337.1866146385455068
    Two-Electron Energy =                 540.9310473932877130
    Total Energy =                       -364.2912133244948336
  Basis Set: (AUG-CC-PVTZ AUX)
    Blend: AUG-CC-PVTZ-RI
    Molecular point group: c1

    Geometry (in Angstrom), charge = 1, multiplicity = 1:

       Center              X                  Y                   Z               Mass
    ------------   -----------------  -----------------  -----------------  -----------------
         N           -2.810853510518    -0.004395243000     0.014301233963    14.003074004430
         C           -1.320421510518    -0.004351243000    -0.013735766037    12.000000000000
         C            0.731019489482     1.225958757000    -0.011853766037    12.000000000000
         C            0.731085489482    -1.234548243000    -0.011845766037    12.000000000000
         C           -0.669612510518    -1.230748243000    -0.005857766037    12.000000000000
         C           -0.669681510518     1.222079757000    -0.005864766037    12.000000000000
         C            1.425796289482     0.039623757000    -0.009578666037    12.000000000000
         C            1.497236489482     2.521008757000     0.014563233963    12.000000000000
         C            1.497385489482    -2.529549243000     0.014559233963    12.000000000000
         H           -1.221212510518    -2.170279243000    -0.012718766037     1.007825032230
         H           -1.221331510518     2.161581757000    -0.012730766037     1.007825032230
         H            2.490918489482    -0.004246243000    -0.022886766037     1.007825032230
         H           -3.192714510518     0.824241757000    -0.462493766037     1.007825032230
         H           -3.192673510518    -0.832909243000    -0.462740766037     1.007825032230
         H           -3.179801510518    -0.004547243000     0.976127233963     1.007825032230
         H            0.880899489482     3.356276757000    -0.326487766037     1.007825032230
         H            1.838777489482     2.745244757000     1.030058233963     1.007825032230
         H            2.379252489482     2.463263757000    -0.627882766037     1.007825032230
         H            2.379221489482    -2.471849243000    -0.628139766037     1.007825032230
         H            0.881005489482    -3.364907243000    -0.326193766037     1.007825032230
         H            1.839222489482    -2.753607243000     1.029992233963     1.007825032230

  Basis Set: AUG-CC-PVTZ
    Blend: AUG-CC-PVTZ
  Basis Set: (AUG-CC-PVTZ AUX)
    Blend: AUG-CC-PVTZ-JKFIT
	 Reference Energy          =    -364.2912133244948336 [Eh]
	 Singles Energy            =      -0.0000000000000000 [Eh]
	 Same-Spin Energy          =      -0.3970653267353157 [Eh]
	 Opposite-Spin Energy      =      -1.3054576943948892 [Eh]
	 Correlation Energy        =      -1.7025230211302049 [Eh]
	 Total Energy              =    -365.9937363456250523 [Eh]

	 ================> DF-SCS-MP2 Energies <==================
	-----------------------------------------------------------
	 SCS Same-Spin Scale       =       0.3333333333333333 [-]
	 SCS Opposite-Spin Scale   =       1.2000000000000000 [-]
	 SCS Same-Spin Energy      =      -0.1323551089117719 [Eh]
	 SCS Opposite-Spin Energy  =      -1.5665492332738671 [Eh]
	 SCS Correlation Energy    =      -1.6989043421856389 [Eh]
	 SCS Total Energy          =    -365.9901176666804758 [Eh]
	-----------------------------------------------------------

  Dipole Moment: [D]
     X:    -8.3691      Y:    -0.0843      Z:     0.1703     Total:     8.3713

*** Psi4 exiting successfully. Buy a developer a beer!
