                               Psi4 1.4a3.dev225

  ==> Input File <==

--------------------------------------------------------------------------
#psi4
#
memory 32 gb

molecule  {
1 1
  N       -2.8138210    -0.0000810     0.0131690
  C       -1.3233890    -0.0000370    -0.0148680
  C        0.7280520     1.2302730    -0.0129860
  C        0.7281180    -1.2302340    -0.0129780
  C       -0.6725800    -1.2264340    -0.0069900
  C       -0.6726490     1.2263940    -0.0069970
  C        1.3988940     0.0000390    -0.0107890
  C        1.4942690     2.5253230     0.0134310
  C        1.4944180    -2.5252350     0.0134270
  H       -1.2140543    -2.1487181    -0.0137251
  H       -1.2242990     2.1658960    -0.0138630
  H        2.4879510     0.0000680    -0.0240190
  H       -3.1956820     0.8285560    -0.4636260
  H       -3.1956410    -0.8285950    -0.4638730
  H       -3.1827690    -0.0002330     0.9749950
  H        0.8779320     3.3605910    -0.3276200
  H        1.8358100     2.7495590     1.0289260
  H        2.3762850     2.4675780    -0.6290150
  H        2.3762540    -2.4675350    -0.6292720
  H        0.8780380    -3.3605930    -0.3273260
  H        1.8362550    -2.7492930     1.0288600
units angstrom
no_reorient  #important for SAPT in psi4, default
symmetry c1  #important for SAPT in psi4, default
}

set PROPERTIES_ORIGIN ["COM"]
properties('MP2/aug-cc-pvtz', properties = ['dipole'])
--------------------------------------------------------------------------

    Molecular point group: c1
  Charge       = 1
  Multiplicity = 1
  Basis Set: AUG-CC-PVTZ
    Blend: AUG-CC-PVTZ
  Basis Set: (AUG-CC-PVTZ AUX)
    Blend: AUG-CC-PVTZ-JKFIT

    Orbital Energies [Eh]
    ---------------------

    Doubly Occupied:

       1A    -15.888773     2A    -11.458772     3A    -11.394768
       4A    -11.394426     5A    -11.393418     6A    -11.391489
       7A    -11.371407     8A    -11.344975     9A    -11.344941
      10A     -1.502618    11A     -1.309286    12A     -1.205160
      13A     -1.182107    14A     -1.083690    15A     -1.070420
      16A     -0.989142    17A     -0.966082    18A     -0.949732
      19A     -0.908411    20A     -0.857186    21A     -0.821710
      22A     -0.794807    23A     -0.725883    24A     -0.715610
      25A     -0.710677    26A     -0.690314    27A     -0.679231
      28A     -0.656922    29A     -0.641090    30A     -0.634545
      31A     -0.628598    32A     -0.486337    33A     -0.474943

  @DF-RHF Final Energy:  -364.29453214444999

   => Energetics <=

    Nuclear Repulsion Energy =            432.4418652783928110
    One-Electron Energy =               -1338.1378583083430840
    Two-Electron Energy =                 541.4014608855003416
    Total Energy =                       -364.2945321444499314
  Basis Set: (AUG-CC-PVTZ AUX)
    Blend: AUG-CC-PVTZ-RI
    Molecular point group: c1

    Geometry (in Angstrom), charge = 1, multiplicity = 1:

       Center              X                  Y                   Z               Mass
    ------------   -----------------  -----------------  -----------------  -----------------
         N           -2.808584718294    -0.000223099136     0.014307870613    14.003074004430
         C           -1.318152718294    -0.000179099136    -0.013729129387    12.000000000000
         C            0.733288281706     1.230130900864    -0.011847129387    12.000000000000
         C            0.733354281706    -1.230376099136    -0.011839129387    12.000000000000
         C           -0.667343718294    -1.226576099136    -0.005851129387    12.000000000000
         C           -0.667412718294     1.226251900864    -0.005858129387    12.000000000000
         C            1.404130281706    -0.000103099136    -0.009650129387    12.000000000000
         C            1.499505281706     2.525180900864     0.014569870613    12.000000000000
         C            1.499654281706    -2.525377099136     0.014565870613    12.000000000000
         H           -1.208818018294    -2.148860199136    -0.012586229387     1.007825032230
         H           -1.219062718294     2.165753900864    -0.012724129387     1.007825032230
         H            2.493187281706    -0.000074099136    -0.022880129387     1.007825032230
         H           -3.190445718294     0.828413900864    -0.462487129387     1.007825032230
         H           -3.190404718294    -0.828737099136    -0.462734129387     1.007825032230
         H           -3.177532718294    -0.000375099136     0.976133870613     1.007825032230
         H            0.883168281706     3.360448900864    -0.326481129387     1.007825032230
         H            1.841046281706     2.749416900864     1.030064870613     1.007825032230
         H            2.381521281706     2.467435900864    -0.627876129387     1.007825032230
         H            2.381490281706    -2.467677099136    -0.628133129387     1.007825032230
         H            0.883274281706    -3.360735099136    -0.326187129387     1.007825032230
         H            1.841491281706    -2.749435099136     1.029998870613     1.007825032230

  Basis Set: AUG-CC-PVTZ
    Blend: AUG-CC-PVTZ
  Basis Set: (AUG-CC-PVTZ AUX)
    Blend: AUG-CC-PVTZ-JKFIT
	 Reference Energy          =    -364.2945321444499882 [Eh]
	 Singles Energy            =      -0.0000000000000000 [Eh]
	 Same-Spin Energy          =      -0.3971048067001480 [Eh]
	 Opposite-Spin Energy      =      -1.3051600049716039 [Eh]
	 Correlation Energy        =      -1.7022648116717518 [Eh]
	 Total Energy              =    -365.9967969561217274 [Eh]

	 ================> DF-SCS-MP2 Energies <==================
	-----------------------------------------------------------
	 SCS Same-Spin Scale       =       0.3333333333333333 [-]
	 SCS Opposite-Spin Scale   =       1.2000000000000000 [-]
	 SCS Same-Spin Energy      =      -0.1323682689000493 [Eh]
	 SCS Opposite-Spin Energy  =      -1.5661920059659247 [Eh]
	 SCS Correlation Energy    =      -1.6985602748659741 [Eh]
	 SCS Total Energy          =    -365.9930924193159854 [Eh]
	-----------------------------------------------------------

  Dipole Moment: [D]
     X:    -8.3707      Y:    -0.0003      Z:     0.1700     Total:     8.3724

*** Psi4 exiting successfully. Buy a developer a beer!
