                               Psi4 1.4a3.dev225

  ==> Input File <==

--------------------------------------------------------------------------
#psi4
#
memory 32 gb

molecule  {
1 1
  N       -2.8138210    -0.0000810     0.0131690
  C       -1.3233890    -0.0000370    -0.0148680
  C        0.7280520     1.2302730    -0.0129860
  C        0.7281180    -1.2302340    -0.0129780
  C       -0.6725800    -1.2264340    -0.0069900
  C       -0.6726490     1.2263940    -0.0069970
  C        1.3988940     0.0000390    -0.0107890
  C        1.4942690     2.5253230     0.0134310
  C        1.4944180    -2.5252350     0.0134270
  H       -1.2241800    -2.1659650    -0.0138510
  H       -1.2242990     2.1658960    -0.0138630
  H        2.4879510     0.0000680    -0.0240190
  H       -3.1956820     0.8285560    -0.4636260
  H       -3.1956410    -0.8285950    -0.4638730
  H       -3.1827690    -0.0002330     0.9749950
  H        0.8666504     3.3758800    -0.3338627
  H        1.8358100     2.7495590     1.0289260
  H        2.3762850     2.4675780    -0.6290150
  H        2.3762540    -2.4675350    -0.6292720
  H        0.8780380    -3.3605930    -0.3273260
  H        1.8362550    -2.7492930     1.0288600
units angstrom
no_reorient  #important for SAPT in psi4, default
symmetry c1  #important for SAPT in psi4, default
}

set PROPERTIES_ORIGIN ["COM"]
properties('MP2/aug-cc-pvtz', properties = ['dipole'])
--------------------------------------------------------------------------

    Molecular point group: c1
  Charge       = 1
  Multiplicity = 1
  Basis Set: AUG-CC-PVTZ
    Blend: AUG-CC-PVTZ
  Basis Set: (AUG-CC-PVTZ AUX)
    Blend: AUG-CC-PVTZ-JKFIT

    Orbital Energies [Eh]
    ---------------------

    Doubly Occupied:

       1A    -15.888726     2A    -11.458935     3A    -11.394947
       4A    -11.394890     5A    -11.393558     6A    -11.393555
       7A    -11.371669     8A    -11.347315     9A    -11.345026
      10A     -1.502568    11A     -1.309286    12A     -1.204713
      13A     -1.182043    14A     -1.082727    15A     -1.069531
      16A     -0.988897    17A     -0.965795    18A     -0.949682
      19A     -0.907495    20A     -0.855922    21A     -0.820531
      22A     -0.794724    23A     -0.723966    24A     -0.715151
      25A     -0.710629    26A     -0.690238    27A     -0.677661
      28A     -0.656051    29A     -0.641005    30A     -0.634565
      31A     -0.627821    32A     -0.486503    33A     -0.475019

  @DF-RHF Final Energy:  -364.29383293345757

   => Energetics <=

    Nuclear Repulsion Energy =            432.2533450250193710
    One-Electron Energy =               -1337.7720640010047646
    Two-Electron Energy =                 541.2248860425278281
    Total Energy =                       -364.2938329334575656
  Basis Set: (AUG-CC-PVTZ AUX)
    Blend: AUG-CC-PVTZ-RI
    Molecular point group: c1

    Geometry (in Angstrom), charge = 1, multiplicity = 1:

       Center              X                  Y                   Z               Mass
    ------------   -----------------  -----------------  -----------------  -----------------
         N           -2.808408016021    -0.000206938043     0.014360438947    14.003074004430
         C           -1.317976016021    -0.000162938043    -0.013676561053    12.000000000000
         C            0.733464983979     1.230147061957    -0.011794561053    12.000000000000
         C            0.733530983979    -1.230359938043    -0.011786561053    12.000000000000
         C           -0.667167016021    -1.226559938043    -0.005798561053    12.000000000000
         C           -0.667236016021     1.226268061957    -0.005805561053    12.000000000000
         C            1.404306983979    -0.000086938043    -0.009597561053    12.000000000000
         C            1.499681983979     2.525197061957     0.014622438947    12.000000000000
         C            1.499830983979    -2.525360938043     0.014618438947    12.000000000000
         H           -1.218767016021    -2.166090938043    -0.012659561053     1.007825032230
         H           -1.218886016021     2.165770061957    -0.012671561053     1.007825032230
         H            2.493363983979    -0.000057938043    -0.022827561053     1.007825032230
         H           -3.190269016021     0.828430061957    -0.462434561053     1.007825032230
         H           -3.190228016021    -0.828720938043    -0.462681561053     1.007825032230
         H           -3.177356016021    -0.000358938043     0.976186438947     1.007825032230
         H            0.872063383979     3.375754061957    -0.332671261053     1.007825032230
         H            1.841222983979     2.749433061957     1.030117438947     1.007825032230
         H            2.381697983979     2.467452061957    -0.627823561053     1.007825032230
         H            2.381666983979    -2.467660938043    -0.628080561053     1.007825032230
         H            0.883450983979    -3.360718938043    -0.326134561053     1.007825032230
         H            1.841667983979    -2.749418938043     1.030051438947     1.007825032230

  Basis Set: AUG-CC-PVTZ
    Blend: AUG-CC-PVTZ
  Basis Set: (AUG-CC-PVTZ AUX)
    Blend: AUG-CC-PVTZ-JKFIT
	 Reference Energy          =    -364.2938329334575656 [Eh]
	 Singles Energy            =      -0.0000000000000000 [Eh]
	 Same-Spin Energy          =      -0.3971638021878801 [Eh]
	 Opposite-Spin Energy      =      -1.3054519845175949 [Eh]
	 Correlation Energy        =      -1.7026157867054750 [Eh]
	 Total Energy              =    -365.9964487201630163 [Eh]

	 ================> DF-SCS-MP2 Energies <==================
	-----------------------------------------------------------
	 SCS Same-Spin Scale       =       0.3333333333333333 [-]
	 SCS Opposite-Spin Scale   =       1.2000000000000000 [-]
	 SCS Same-Spin Energy      =      -0.1323879340626267 [Eh]
	 SCS Opposite-Spin Energy  =      -1.5665423814211139 [Eh]
	 SCS Correlation Energy    =      -1.6989303154837405 [Eh]
	 SCS Total Energy          =    -365.9927632489412872 [Eh]
	-----------------------------------------------------------

  Dipole Moment: [D]
     X:    -8.3639      Y:    -0.0079      Z:     0.1718     Total:     8.3657

*** Psi4 exiting successfully. Buy a developer a beer!
