                               Psi4 1.4a3.dev225

  ==> Input File <==

--------------------------------------------------------------------------
#psi4
#
memory 32 gb

molecule  {
1 1
  N       -2.8138210    -0.0000810     0.0131690
  C       -1.3233890    -0.0000370    -0.0148680
  C        0.7280520     1.2302730    -0.0129860
  C        0.7281180    -1.2302340    -0.0129780
  C       -0.6725800    -1.2264340    -0.0069900
  C       -0.6726490     1.2263940    -0.0069970
  C        1.3988940     0.0000390    -0.0107890
  C        1.4942690     2.5253230     0.0134310
  C        1.5198769    -2.5682591     0.0143043
  H       -1.2241800    -2.1659650    -0.0138510
  H       -1.2242990     2.1658960    -0.0138630
  H        2.4879510     0.0000680    -0.0240190
  H       -3.1956820     0.8285560    -0.4636260
  H       -3.1956410    -0.8285950    -0.4638730
  H       -3.1827690    -0.0002330     0.9749950
  H        0.8779320     3.3605910    -0.3276200
  H        1.8358100     2.7495590     1.0289260
  H        2.3762850     2.4675780    -0.6290150
  H        2.3762540    -2.4675350    -0.6292720
  H        0.8780380    -3.3605930    -0.3273260
  H        1.8362550    -2.7492930     1.0288600
units angstrom
no_reorient  #important for SAPT in psi4, default
symmetry c1  #important for SAPT in psi4, default
}

set PROPERTIES_ORIGIN ["COM"]
properties('MP2/aug-cc-pvtz', properties = ['dipole'])
--------------------------------------------------------------------------

    Molecular point group: c1
  Charge       = 1
  Multiplicity = 1
  Basis Set: AUG-CC-PVTZ
    Blend: AUG-CC-PVTZ
  Basis Set: (AUG-CC-PVTZ AUX)
    Blend: AUG-CC-PVTZ-JKFIT

    Orbital Energies [Eh]
    ---------------------

    Doubly Occupied:

       1A    -15.888542     2A    -11.458685     3A    -11.395861
       4A    -11.394653     5A    -11.393642     6A    -11.393358
       7A    -11.371467     8A    -11.344846     9A    -11.344461
      10A     -1.502381    11A     -1.307964    12A     -1.201684
      13A     -1.180089    14A     -1.082515    15A     -1.070437
      16A     -0.988513    17A     -0.966711    18A     -0.949508
      19A     -0.907618    20A     -0.855547    21A     -0.819919
      22A     -0.793758    23A     -0.723102    24A     -0.712051
      25A     -0.709624    26A     -0.693456    27A     -0.683020
      28A     -0.658844    29A     -0.641778    30A     -0.636778
      31A     -0.621741    32A     -0.486917    33A     -0.475586

  @DF-RHF Final Energy:  -364.29287054663581

   => Energetics <=

    Nuclear Repulsion Energy =            431.5060487787092711
    One-Electron Energy =               -1336.2877292280663823
    Two-Electron Energy =                 540.4888099027211865
    Total Energy =                       -364.2928705466358679
  Basis Set: (AUG-CC-PVTZ AUX)
    Blend: AUG-CC-PVTZ-RI
    Molecular point group: c1

    Geometry (in Angstrom), charge = 1, multiplicity = 1:

       Center              X                  Y                   Z               Mass
    ------------   -----------------  -----------------  -----------------  -----------------
         N           -2.811003302927     0.004147779505     0.014222686562    14.003074004430
         C           -1.320571302927     0.004191779505    -0.013814313438    12.000000000000
         C            0.730869697073     1.234501779505    -0.011932313438    12.000000000000
         C            0.730935697073    -1.226005220495    -0.011924313438    12.000000000000
         C           -0.669762302927    -1.222205220495    -0.005936313438    12.000000000000
         C           -0.669831302927     1.230622779505    -0.005943313438    12.000000000000
         C            1.401711697073     0.004267779505    -0.009735313438    12.000000000000
         C            1.497086697073     2.529551779505     0.014484686562    12.000000000000
         C            1.522694597073    -2.564030320495     0.015357986562    12.000000000000
         H           -1.221362302927    -2.161736220495    -0.012797313438     1.007825032230
         H           -1.221481302927     2.170124779505    -0.012809313438     1.007825032230
         H            2.490768697073     0.004296779505    -0.022965313438     1.007825032230
         H           -3.192864302927     0.832784779505    -0.462572313438     1.007825032230
         H           -3.192823302927    -0.824366220495    -0.462819313438     1.007825032230
         H           -3.179951302927     0.003995779505     0.976048686562     1.007825032230
         H            0.880749697073     3.364819779505    -0.326566313438     1.007825032230
         H            1.838627697073     2.753787779505     1.029979686562     1.007825032230
         H            2.379102697073     2.471806779505    -0.627961313438     1.007825032230
         H            2.379071697073    -2.463306220495    -0.628218313438     1.007825032230
         H            0.880855697073    -3.356364220495    -0.326272313438     1.007825032230
         H            1.839072697073    -2.745064220495     1.029913686562     1.007825032230

  Basis Set: AUG-CC-PVTZ
    Blend: AUG-CC-PVTZ
  Basis Set: (AUG-CC-PVTZ AUX)
    Blend: AUG-CC-PVTZ-JKFIT
	 Reference Energy          =    -364.2928705466358110 [Eh]
	 Singles Energy            =      -0.0000000000000000 [Eh]
	 Same-Spin Energy          =      -0.3967901654621081 [Eh]
	 Opposite-Spin Energy      =      -1.3050722342073222 [Eh]
	 Correlation Energy        =      -1.7018623996694302 [Eh]
	 Total Energy              =    -365.9947329463052483 [Eh]

	 ================> DF-SCS-MP2 Energies <==================
	-----------------------------------------------------------
	 SCS Same-Spin Scale       =       0.3333333333333333 [-]
	 SCS Opposite-Spin Scale   =       1.2000000000000000 [-]
	 SCS Same-Spin Energy      =      -0.1322633884873693 [Eh]
	 SCS Opposite-Spin Energy  =      -1.5660866810487866 [Eh]
	 SCS Correlation Energy    =      -1.6983500695361560 [Eh]
	 SCS Total Energy          =    -365.9912206161719723 [Eh]
	-----------------------------------------------------------

  Dipole Moment: [D]
     X:    -8.3857      Y:     0.0286      Z:     0.1668     Total:     8.3874

*** Psi4 exiting successfully. Buy a developer a beer!
