                               Psi4 1.4a3.dev225

  ==> Input File <==

--------------------------------------------------------------------------
#psi4
#
memory 32 gb

molecule  {
1 1
  N       -2.8138210    -0.0000810     0.0131690
  C       -1.3233890    -0.0000370    -0.0148680
  C        0.7280520     1.2302730    -0.0129860
  C        0.7281180    -1.2302340    -0.0129780
  C       -0.6725800    -1.2264340    -0.0069900
  C       -0.6726490     1.2263940    -0.0069970
  C        1.3988940     0.0000390    -0.0107890
  C        1.4942690     2.5253230     0.0134310
  C        1.4944180    -2.5252350     0.0134270
  H       -1.2241800    -2.1659650    -0.0138510
  H       -1.2242990     2.1658960    -0.0138630
  H        2.4879510     0.0000680    -0.0240190
  H       -3.1956820     0.8285560    -0.4636260
  H       -3.1956410    -0.8285950    -0.4638730
  H       -3.1827690    -0.0002330     0.9749950
  H        0.8779320     3.3605910    -0.3276200
  H        1.7734056     2.7085879     0.8433807
  H        2.3762850     2.4675780    -0.6290150
  H        2.3762540    -2.4675350    -0.6292720
  H        0.8780380    -3.3605930    -0.3273260
  H        1.8362550    -2.7492930     1.0288600
units angstrom
no_reorient  #important for SAPT in psi4, default
symmetry c1  #important for SAPT in psi4, default
}

set PROPERTIES_ORIGIN ["COM"]
properties('MP2/aug-cc-pvtz', properties = ['dipole'])
--------------------------------------------------------------------------

    Molecular point group: c1
  Charge       = 1
  Multiplicity = 1
  Basis Set: AUG-CC-PVTZ
    Blend: AUG-CC-PVTZ
  Basis Set: (AUG-CC-PVTZ AUX)
    Blend: AUG-CC-PVTZ-JKFIT

    Orbital Energies [Eh]
    ---------------------

    Doubly Occupied:

       1A    -15.888648     2A    -11.458800     3A    -11.394830
       4A    -11.394274     5A    -11.393521     6A    -11.393085
       7A    -11.371541     8A    -11.344979     9A    -11.321448
      10A     -1.502497    11A     -1.309479    12A     -1.207823
      13A     -1.183775    14A     -1.095919    15A     -1.075743
      16A     -0.989881    17A     -0.969377    18A     -0.949618
      19A     -0.910266    20A     -0.858121    21A     -0.820541
      22A     -0.795023    23A     -0.740338    24A     -0.722768
      25A     -0.714118    26A     -0.699106    27A     -0.678582
      28A     -0.657450    29A     -0.641647    30A     -0.638693
      31A     -0.628118    32A     -0.487457    33A     -0.476008

  @DF-RHF Final Energy:  -364.26052108776923

   => Energetics <=

    Nuclear Repulsion Energy =            433.3303723960209481
    One-Electron Energy =               -1339.7548357856530856
    Two-Electron Energy =                 542.1639423018629032
    Total Energy =                       -364.2605210877692343
  Basis Set: (AUG-CC-PVTZ AUX)
    Blend: AUG-CC-PVTZ-RI
    Molecular point group: c1

    Geometry (in Angstrom), charge = 1, multiplicity = 1:

       Center              X                  Y                   Z               Mass
    ------------   -----------------  -----------------  -----------------  -----------------
         N           -2.807986033103     0.000257449690     0.015840456363    14.003074004430
         C           -1.317554033103     0.000301449690    -0.012196543637    12.000000000000
         C            0.733886966897     1.230611449690    -0.010314543637    12.000000000000
         C            0.733952966897    -1.229895550310    -0.010306543637    12.000000000000
         C           -0.666745033103    -1.226095550310    -0.004318543637    12.000000000000
         C           -0.666814033103     1.226732449690    -0.004325543637    12.000000000000
         C            1.404728966897     0.000377449690    -0.008117543637    12.000000000000
         C            1.500103966897     2.525661449690     0.016102456363    12.000000000000
         C            1.500252966897    -2.524896550310     0.016098456363    12.000000000000
         H           -1.218345033103    -2.165626550310    -0.011179543637     1.007825032230
         H           -1.218464033103     2.166234449690    -0.011191543637     1.007825032230
         H            2.493785966897     0.000406449690    -0.021347543637     1.007825032230
         H           -3.189847033103     0.828894449690    -0.460954543637     1.007825032230
         H           -3.189806033103    -0.828256550310    -0.461201543637     1.007825032230
         H           -3.176934033103     0.000105449690     0.977666456363     1.007825032230
         H            0.883766966897     3.360929449690    -0.324948543637     1.007825032230
         H            1.779240566897     2.708926349690     0.846052156363     1.007825032230
         H            2.382119966897     2.467916449690    -0.626343543637     1.007825032230
         H            2.382088966897    -2.467196550310    -0.626600543637     1.007825032230
         H            0.883872966897    -3.360254550310    -0.324654543637     1.007825032230
         H            1.842089966897    -2.748954550310     1.031531456363     1.007825032230

  Basis Set: AUG-CC-PVTZ
    Blend: AUG-CC-PVTZ
  Basis Set: (AUG-CC-PVTZ AUX)
    Blend: AUG-CC-PVTZ-JKFIT
	 Reference Energy          =    -364.2605210877692343 [Eh]
	 Singles Energy            =      -0.0000000000000000 [Eh]
	 Same-Spin Energy          =      -0.3972331307306721 [Eh]
	 Opposite-Spin Energy      =      -1.3046828099897603 [Eh]
	 Correlation Energy        =      -1.7019159407204323 [Eh]
	 Total Energy              =    -365.9624370284896600 [Eh]

	 ================> DF-SCS-MP2 Energies <==================
	-----------------------------------------------------------
	 SCS Same-Spin Scale       =       0.3333333333333333 [-]
	 SCS Opposite-Spin Scale   =       1.2000000000000000 [-]
	 SCS Same-Spin Energy      =      -0.1324110435768907 [Eh]
	 SCS Opposite-Spin Energy  =      -1.5656193719877123 [Eh]
	 SCS Correlation Energy    =      -1.6980304155646029 [Eh]
	 SCS Total Energy          =    -365.9585515033338652 [Eh]
	-----------------------------------------------------------

  Dipole Moment: [D]
     X:    -8.3683      Y:    -0.0058      Z:     0.1776     Total:     8.3702

*** Psi4 exiting successfully. Buy a developer a beer!
