                               Psi4 1.4a3.dev225

  ==> Input File <==

--------------------------------------------------------------------------
#psi4
#
memory 32 gb

molecule  {
1 1
  N       -2.8138210    -0.0000810     0.0131690
  C       -1.3233890    -0.0000370    -0.0148680
  C        0.7280520     1.2302730    -0.0129860
  C        0.7281180    -1.2302340    -0.0129780
  C       -0.6725800    -1.2264340    -0.0069900
  C       -0.6726490     1.2263940    -0.0069970
  C        1.3988940     0.0000390    -0.0107890
  C        1.4942690     2.5253230     0.0134310
  C        1.4944180    -2.5252350     0.0134270
  H       -1.2343057    -2.1832119    -0.0139769
  H       -1.2242990     2.1658960    -0.0138630
  H        2.4879510     0.0000680    -0.0240190
  H       -3.1956820     0.8285560    -0.4636260
  H       -3.1956410    -0.8285950    -0.4638730
  H       -3.1827690    -0.0002330     0.9749950
  H        0.8779320     3.3605910    -0.3276200
  H        1.8358100     2.7495590     1.0289260
  H        2.3762850     2.4675780    -0.6290150
  H        2.3762540    -2.4675350    -0.6292720
  H        0.8780380    -3.3605930    -0.3273260
  H        1.8362550    -2.7492930     1.0288600
units angstrom
no_reorient  #important for SAPT in psi4, default
symmetry c1  #important for SAPT in psi4, default
}

set PROPERTIES_ORIGIN ["COM"]
properties('MP2/aug-cc-pvtz', properties = ['dipole'])
--------------------------------------------------------------------------

    Molecular point group: c1
  Charge       = 1
  Multiplicity = 1
  Basis Set: AUG-CC-PVTZ
    Blend: AUG-CC-PVTZ
  Basis Set: (AUG-CC-PVTZ AUX)
    Blend: AUG-CC-PVTZ-JKFIT

    Orbital Energies [Eh]
    ---------------------

    Doubly Occupied:

       1A    -15.888646     2A    -11.459070     3A    -11.396305
       4A    -11.394895     5A    -11.394420     6A    -11.393597
       7A    -11.371684     8A    -11.345018     9A    -11.344982
      10A     -1.502485    11A     -1.309230    12A     -1.204582
      13A     -1.182032    14A     -1.082562    15A     -1.070343
      16A     -0.988621    17A     -0.966003    18A     -0.949601
      19A     -0.907275    20A     -0.854860    21A     -0.819218
      22A     -0.794922    23A     -0.722433    24A     -0.714989
      25A     -0.710771    26A     -0.690348    27A     -0.678953
      28A     -0.656798    29A     -0.641171    30A     -0.634700
      31A     -0.628374    32A     -0.486518    33A     -0.475074

  @DF-RHF Final Energy:  -364.29371046731410

   => Energetics <=

    Nuclear Repulsion Energy =            432.2354113032194505
    One-Electron Energy =               -1337.7372852065586812
    Two-Electron Energy =                 541.2081634360250746
    Total Energy =                       -364.2937104673140993
  Basis Set: (AUG-CC-PVTZ AUX)
    Blend: AUG-CC-PVTZ-RI
    Molecular point group: c1

    Geometry (in Angstrom), charge = 1, multiplicity = 1:

       Center              X                  Y                   Z               Mass
    ------------   -----------------  -----------------  -----------------  -----------------
         N           -2.808417557166     0.000061623030     0.014309949045    14.003074004430
         C           -1.317985557166     0.000105623030    -0.013727050955    12.000000000000
         C            0.733455442834     1.230415623030    -0.011845050955    12.000000000000
         C            0.733521442834    -1.230091376970    -0.011837050955    12.000000000000
         C           -0.667176557166    -1.226291376970    -0.005849050955    12.000000000000
         C           -0.667245557166     1.226536623030    -0.005856050955    12.000000000000
         C            1.404297442834     0.000181623030    -0.009648050955    12.000000000000
         C            1.499672442834     2.525465623030     0.014571949045    12.000000000000
         C            1.499821442834    -2.525092376970     0.014567949045    12.000000000000
         H           -1.228902257166    -2.183069276970    -0.012835950955     1.007825032230
         H           -1.218895557166     2.166038623030    -0.012722050955     1.007825032230
         H            2.493354442834     0.000210623030    -0.022878050955     1.007825032230
         H           -3.190278557166     0.828698623030    -0.462485050955     1.007825032230
         H           -3.190237557166    -0.828452376970    -0.462732050955     1.007825032230
         H           -3.177365557166    -0.000090376970     0.976135949045     1.007825032230
         H            0.883335442834     3.360733623030    -0.326479050955     1.007825032230
         H            1.841213442834     2.749701623030     1.030066949045     1.007825032230
         H            2.381688442834     2.467720623030    -0.627874050955     1.007825032230
         H            2.381657442834    -2.467392376970    -0.628131050955     1.007825032230
         H            0.883441442834    -3.360450376970    -0.326185050955     1.007825032230
         H            1.841658442834    -2.749150376970     1.030000949045     1.007825032230

  Basis Set: AUG-CC-PVTZ
    Blend: AUG-CC-PVTZ
  Basis Set: (AUG-CC-PVTZ AUX)
    Blend: AUG-CC-PVTZ-JKFIT
	 Reference Energy          =    -364.2937104673140993 [Eh]
	 Singles Energy            =      -0.0000000000000000 [Eh]
	 Same-Spin Energy          =      -0.3972120235205997 [Eh]
	 Opposite-Spin Energy      =      -1.3054763402231520 [Eh]
	 Correlation Energy        =      -1.7026883637437518 [Eh]
	 Total Energy              =    -365.9963988310578316 [Eh]

	 ================> DF-SCS-MP2 Energies <==================
	-----------------------------------------------------------
	 SCS Same-Spin Scale       =       0.3333333333333333 [-]
	 SCS Opposite-Spin Scale   =       1.2000000000000000 [-]
	 SCS Same-Spin Energy      =      -0.1324040078401999 [Eh]
	 SCS Opposite-Spin Energy  =      -1.5665716082677823 [Eh]
	 SCS Correlation Energy    =      -1.6989756161079821 [Eh]
	 SCS Total Energy          =    -365.9926860834220861 [Eh]
	-----------------------------------------------------------

  Dipole Moment: [D]
     X:    -8.3616      Y:     0.0001      Z:     0.1704     Total:     8.3633

*** Psi4 exiting successfully. Buy a developer a beer!
