                               Psi4 1.4a3.dev225

  ==> Input File <==

--------------------------------------------------------------------------
#psi4
#
memory 32 gb

molecule  {
1 1
  N       -2.8138210    -0.0000810     0.0131690
  C       -1.3233890    -0.0000370    -0.0148680
  C        0.7280520     1.2302730    -0.0129860
  C        0.7281180    -1.2302340    -0.0129780
  C       -0.6725800    -1.2264340    -0.0069900
  C       -0.6726490     1.2263940    -0.0069970
  C        1.3988940     0.0000390    -0.0107890
  C        1.4942690     2.5253230     0.0134310
  C        1.4944180    -2.5252350     0.0134270
  H       -1.2494942    -2.2090822    -0.0141659
  H       -1.2242990     2.1658960    -0.0138630
  H        2.4879510     0.0000680    -0.0240190
  H       -3.1956820     0.8285560    -0.4636260
  H       -3.1956410    -0.8285950    -0.4638730
  H       -3.1827690    -0.0002330     0.9749950
  H        0.8779320     3.3605910    -0.3276200
  H        1.8358100     2.7495590     1.0289260
  H        2.3762850     2.4675780    -0.6290150
  H        2.3762540    -2.4675350    -0.6292720
  H        0.8780380    -3.3605930    -0.3273260
  H        1.8362550    -2.7492930     1.0288600
units angstrom
no_reorient  #important for SAPT in psi4, default
symmetry c1  #important for SAPT in psi4, default
}

set PROPERTIES_ORIGIN ["COM"]
properties('MP2/aug-cc-pvtz', properties = ['dipole'])
--------------------------------------------------------------------------

    Molecular point group: c1
  Charge       = 1
  Multiplicity = 1
  Basis Set: AUG-CC-PVTZ
    Blend: AUG-CC-PVTZ
  Basis Set: (AUG-CC-PVTZ AUX)
    Blend: AUG-CC-PVTZ-JKFIT

    Orbital Energies [Eh]
    ---------------------

    Doubly Occupied:

       1A    -15.888552     2A    -11.459318     3A    -11.399436
       4A    -11.395007     5A    -11.394822     6A    -11.393740
       7A    -11.371905     8A    -11.345085     9A    -11.344990
      10A     -1.502388    11A     -1.309229    12A     -1.204234
      13A     -1.182003    14A     -1.081852    15A     -1.070286
      16A     -0.988303    17A     -0.965949    18A     -0.949504
      19A     -0.906587    20A     -0.853412    21A     -0.817310
      22A     -0.795015    23A     -0.720356    24A     -0.713866
      25A     -0.710845    26A     -0.690377    27A     -0.678693
      28A     -0.656685    29A     -0.641227    30A     -0.634829
      31A     -0.628165    32A     -0.486665    33A     -0.475191

  @DF-RHF Final Energy:  -364.29187202444359

   => Energetics <=

    Nuclear Repulsion Energy =            432.0863598542500768
    One-Electron Energy =               -1337.4448135738798555
    Two-Electron Energy =                 541.0665816951861871
    Total Energy =                       -364.2918720244435917
  Basis Set: (AUG-CC-PVTZ AUX)
    Blend: AUG-CC-PVTZ-RI
    Molecular point group: c1

    Geometry (in Angstrom), charge = 1, multiplicity = 1:

       Center              X                  Y                   Z               Mass
    ------------   -----------------  -----------------  -----------------  -----------------
         N           -2.808292186734     0.000275164243     0.014311509108    14.003074004430
         C           -1.317860186734     0.000319164243    -0.013725490892    12.000000000000
         C            0.733580813266     1.230629164243    -0.011843490892    12.000000000000
         C            0.733646813266    -1.229877835757    -0.011835490892    12.000000000000
         C           -0.667051186734    -1.226077835757    -0.005847490892    12.000000000000
         C           -0.667120186734     1.226750164243    -0.005854490892    12.000000000000
         C            1.404422813266     0.000395164243    -0.009646490892    12.000000000000
         C            1.499797813266     2.525679164243     0.014573509108    12.000000000000
         C            1.499946813266    -2.524878835757     0.014569509108    12.000000000000
         H           -1.243965386734    -2.208726035757    -0.013023390892     1.007825032230
         H           -1.218770186734     2.166252164243    -0.012720490892     1.007825032230
         H            2.493479813266     0.000424164243    -0.022876490892     1.007825032230
         H           -3.190153186734     0.828912164243    -0.462483490892     1.007825032230
         H           -3.190112186734    -0.828238835757    -0.462730490892     1.007825032230
         H           -3.177240186734     0.000123164243     0.976137509108     1.007825032230
         H            0.883460813266     3.360947164243    -0.326477490892     1.007825032230
         H            1.841338813266     2.749915164243     1.030068509108     1.007825032230
         H            2.381813813266     2.467934164243    -0.627872490892     1.007825032230
         H            2.381782813266    -2.467178835757    -0.628129490892     1.007825032230
         H            0.883566813266    -3.360236835757    -0.326183490892     1.007825032230
         H            1.841783813266    -2.748936835757     1.030002509108     1.007825032230

  Basis Set: AUG-CC-PVTZ
    Blend: AUG-CC-PVTZ
  Basis Set: (AUG-CC-PVTZ AUX)
    Blend: AUG-CC-PVTZ-JKFIT
	 Reference Energy          =    -364.2918720244435917 [Eh]
	 Singles Energy            =      -0.0000000000000000 [Eh]
	 Same-Spin Energy          =      -0.3973000506416369 [Eh]
	 Opposite-Spin Energy      =      -1.3057543390340272 [Eh]
	 Correlation Energy        =      -1.7030543896756640 [Eh]
	 Total Energy              =    -365.9949264141192771 [Eh]

	 ================> DF-SCS-MP2 Energies <==================
	-----------------------------------------------------------
	 SCS Same-Spin Scale       =       0.3333333333333333 [-]
	 SCS Opposite-Spin Scale   =       1.2000000000000000 [-]
	 SCS Same-Spin Energy      =      -0.1324333502138790 [Eh]
	 SCS Opposite-Spin Energy  =      -1.5669052068408325 [Eh]
	 SCS Correlation Energy    =      -1.6993385570547115 [Eh]
	 SCS Total Energy          =    -365.9912105814983079 [Eh]
	-----------------------------------------------------------

  Dipole Moment: [D]
     X:    -8.3542      Y:     0.0012      Z:     0.1708     Total:     8.3559

*** Psi4 exiting successfully. Buy a developer a beer!
