                               Psi4 1.4a3.dev225

  ==> Input File <==

--------------------------------------------------------------------------
#psi4
#
memory 32 gb

molecule  {
1 1
  N       -2.8138210    -0.0000810     0.0131690
  C       -1.3233890    -0.0000370    -0.0148680
  C        0.7280520     1.2302730    -0.0129860
  C        0.7281180    -1.2302340    -0.0129780
  C       -0.6725800    -1.2264340    -0.0069900
  C       -0.6726490     1.2263940    -0.0069970
  C        1.3988940     0.0000390    -0.0107890
  C        1.4942690     2.5253230     0.0134310
  C        1.4944180    -2.5252350     0.0134270
  H       -1.2241800    -2.1659650    -0.0138510
  H       -1.2242990     2.1658960    -0.0138630
  H        2.4879510     0.0000680    -0.0240190
  H       -3.1956820     0.8285560    -0.4636260
  H       -3.1956410    -0.8285950    -0.4638730
  H       -3.1827690    -0.0002330     0.9749950
  H        0.8779320     3.3605910    -0.3276200
  H        1.8358100     2.7495590     1.0289260
  H        2.3762850     2.4675780    -0.6290150
  H        2.3762540    -2.4675350    -0.6292720
  H        0.8780380    -3.3605930    -0.3273260
  H        1.8987135    -2.7902316     1.2143943
units angstrom
no_reorient  #important for SAPT in psi4, default
symmetry c1  #important for SAPT in psi4, default
}

set PROPERTIES_ORIGIN ["COM"]
properties('MP2/aug-cc-pvtz', properties = ['dipole'])
--------------------------------------------------------------------------

    Molecular point group: c1
  Charge       = 1
  Multiplicity = 1
  Basis Set: AUG-CC-PVTZ
    Blend: AUG-CC-PVTZ
  Basis Set: (AUG-CC-PVTZ AUX)
    Blend: AUG-CC-PVTZ-JKFIT

    Orbital Energies [Eh]
    ---------------------

    Doubly Occupied:

       1A    -15.889058     2A    -11.459372     3A    -11.396037
       4A    -11.395239     5A    -11.394438     6A    -11.394007
       7A    -11.372196     8A    -11.366105     9A    -11.345218
      10A     -1.502901    11A     -1.309691    12A     -1.204331
      13A     -1.181750    14A     -1.081032    15A     -1.064081
      16A     -0.988747    17A     -0.964240    18A     -0.949995
      19A     -0.906812    20A     -0.855246    21A     -0.820914
      22A     -0.795433    23A     -0.724441    24A     -0.716010
      25A     -0.705419    26A     -0.680629    27A     -0.672007
      28A     -0.655464    29A     -0.641816    30A     -0.630148
      31A     -0.619287    32A     -0.485623    33A     -0.473599

  @DF-RHF Final Energy:  -364.27433838342949

   => Energetics <=

    Nuclear Repulsion Energy =            431.5606849534062235
    One-Electron Energy =               -1336.3874729242838839
    Two-Electron Energy =                 540.5524495874481090
    Total Energy =                       -364.2743383834294946
  Basis Set: (AUG-CC-PVTZ AUX)
    Blend: AUG-CC-PVTZ-RI
    Molecular point group: c1

    Geometry (in Angstrom), charge = 1, multiplicity = 1:

       Center              X                  Y                   Z               Mass
    ------------   -----------------  -----------------  -----------------  -----------------
         N           -2.809016688914     0.000257181425     0.012777454092    14.003074004430
         C           -1.318584688914     0.000301181425    -0.015259545908    12.000000000000
         C            0.732856311086     1.230611181425    -0.013377545908    12.000000000000
         C            0.732922311086    -1.229895818575    -0.013369545908    12.000000000000
         C           -0.667775688914    -1.226095818575    -0.007381545908    12.000000000000
         C           -0.667844688914     1.226732181425    -0.007388545908    12.000000000000
         C            1.403698311086     0.000377181425    -0.011180545908    12.000000000000
         C            1.499073311086     2.525661181425     0.013039454092    12.000000000000
         C            1.499222311086    -2.524896818575     0.013035454092    12.000000000000
         H           -1.219375688914    -2.165626818575    -0.014242545908     1.007825032230
         H           -1.219494688914     2.166234181425    -0.014254545908     1.007825032230
         H            2.492755311086     0.000406181425    -0.024410545908     1.007825032230
         H           -3.190877688914     0.828894181425    -0.464017545908     1.007825032230
         H           -3.190836688914    -0.828256818575    -0.464264545908     1.007825032230
         H           -3.177964688914     0.000105181425     0.974603454092     1.007825032230
         H            0.882736311086     3.360929181425    -0.328011545908     1.007825032230
         H            1.840614311086     2.749897181425     1.028534454092     1.007825032230
         H            2.381089311086     2.467916181425    -0.629406545908     1.007825032230
         H            2.381058311086    -2.467196818575    -0.629663545908     1.007825032230
         H            0.882842311086    -3.360254818575    -0.327717545908     1.007825032230
         H            1.903517811086    -2.789893418575     1.214002754092     1.007825032230

  Basis Set: AUG-CC-PVTZ
    Blend: AUG-CC-PVTZ
  Basis Set: (AUG-CC-PVTZ AUX)
    Blend: AUG-CC-PVTZ-JKFIT
	 Reference Energy          =    -364.2743383834294946 [Eh]
	 Singles Energy            =      -0.0000000000000000 [Eh]
	 Same-Spin Energy          =      -0.3972188262853451 [Eh]
	 Opposite-Spin Energy      =      -1.3068881726855994 [Eh]
	 Correlation Energy        =      -1.7041069989709445 [Eh]
	 Total Energy              =    -365.9784453824004231 [Eh]

	 ================> DF-SCS-MP2 Energies <==================
	-----------------------------------------------------------
	 SCS Same-Spin Scale       =       0.3333333333333333 [-]
	 SCS Opposite-Spin Scale   =       1.2000000000000000 [-]
	 SCS Same-Spin Energy      =      -0.1324062754284484 [Eh]
	 SCS Opposite-Spin Energy  =      -1.5682658072227194 [Eh]
	 SCS Correlation Energy    =      -1.7006720826511676 [Eh]
	 SCS Total Energy          =    -365.9750104660806755 [Eh]
	-----------------------------------------------------------

  Dipole Moment: [D]
     X:    -8.3904      Y:     0.0293      Z:     0.1306     Total:     8.3914

*** Psi4 exiting successfully. Buy a developer a beer!
