                               Psi4 1.4a3.dev225

  ==> Input File <==

--------------------------------------------------------------------------
#psi4
#
memory 32 gb

molecule  {
1 1
  N       -2.8138210    -0.0000810     0.0131690
  C       -1.3233890    -0.0000370    -0.0148680
  C        0.7280520     1.2302730    -0.0129860
  C        0.7281180    -1.2302340    -0.0129780
  C       -0.6725800    -1.2264340    -0.0069900
  C       -0.6726490     1.2263940    -0.0069970
  C        1.3988940     0.0000390    -0.0107890
  C        1.5960937     2.6974259     0.0169416
  C        1.4944180    -2.5252350     0.0134270
  H       -1.2241800    -2.1659650    -0.0138510
  H       -1.2242990     2.1658960    -0.0138630
  H        2.4879510     0.0000680    -0.0240190
  H       -3.1956820     0.8285560    -0.4636260
  H       -3.1956410    -0.8285950    -0.4638730
  H       -3.1827690    -0.0002330     0.9749950
  H        0.8779320     3.3605910    -0.3276200
  H        1.8358100     2.7495590     1.0289260
  H        2.3762850     2.4675780    -0.6290150
  H        2.3762540    -2.4675350    -0.6292720
  H        0.8780380    -3.3605930    -0.3273260
  H        1.8362550    -2.7492930     1.0288600
units angstrom
no_reorient  #important for SAPT in psi4, default
symmetry c1  #important for SAPT in psi4, default
}

set PROPERTIES_ORIGIN ["COM"]
properties('MP2/aug-cc-pvtz', properties = ['dipole'])
--------------------------------------------------------------------------

    Molecular point group: c1
  Charge       = 1
  Multiplicity = 1
  Basis Set: AUG-CC-PVTZ
    Blend: AUG-CC-PVTZ
  Basis Set: (AUG-CC-PVTZ AUX)
    Blend: AUG-CC-PVTZ-JKFIT

    Orbital Energies [Eh]
    ---------------------

    Doubly Occupied:

       1A    -15.887709     2A    -11.457582     3A    -11.396728
       4A    -11.393676     5A    -11.393042     6A    -11.392430
       7A    -11.370760     8A    -11.348272     9A    -11.344154
      10A     -1.501543    11A     -1.304766    12A     -1.195834
      13A     -1.173678    14A     -1.081679    15A     -1.071482
      16A     -0.987199    17A     -0.967584    18A     -0.948715
      19A     -0.906419    20A     -0.854065    21A     -0.818179
      22A     -0.790811    23A     -0.722856    24A     -0.721122
      25A     -0.705962    26A     -0.699114    27A     -0.697294
      28A     -0.659092    29A     -0.642378    30A     -0.639796
      31A     -0.585360    32A     -0.487327    33A     -0.475596

  @DF-RHF Final Energy:  -364.26762812461146

   => Energetics <=

    Nuclear Repulsion Energy =            429.1435444237924344
    One-Electron Energy =               -1331.5779323910621770
    Two-Electron Energy =                 538.1667598426582799
    Total Energy =                       -364.2676281246114058
  Basis Set: (AUG-CC-PVTZ AUX)
    Blend: AUG-CC-PVTZ-RI
    Molecular point group: c1

    Geometry (in Angstrom), charge = 1, multiplicity = 1:

       Center              X                  Y                   Z               Mass
    ------------   -----------------  -----------------  -----------------  -----------------
         N           -2.818508727239    -0.016995447122     0.013963879166    14.003074004430
         C           -1.328076727239    -0.016951447122    -0.014073120834    12.000000000000
         C            0.723364272761     1.213358552878    -0.012191120834    12.000000000000
         C            0.723430272761    -1.247148447122    -0.012183120834    12.000000000000
         C           -0.677267727239    -1.243348447122    -0.006195120834    12.000000000000
         C           -0.677336727239     1.209479552878    -0.006202120834    12.000000000000
         C            1.394206272761    -0.016875447122    -0.009994120834    12.000000000000
         C            1.591405972761     2.680511452878     0.017736479166    12.000000000000
         C            1.489730272761    -2.542149447122     0.014221879166    12.000000000000
         H           -1.228867727239    -2.182879447122    -0.013056120834     1.007825032230
         H           -1.228986727239     2.148981552878    -0.013068120834     1.007825032230
         H            2.483263272761    -0.016846447122    -0.023224120834     1.007825032230
         H           -3.200369727239     0.811641552878    -0.462831120834     1.007825032230
         H           -3.200328727239    -0.845509447122    -0.463078120834     1.007825032230
         H           -3.187456727239    -0.017147447122     0.975789879166     1.007825032230
         H            0.873244272761     3.343676552878    -0.326825120834     1.007825032230
         H            1.831122272761     2.732644552878     1.029720879166     1.007825032230
         H            2.371597272761     2.450663552878    -0.628220120834     1.007825032230
         H            2.371566272761    -2.484449447122    -0.628477120834     1.007825032230
         H            0.873350272761    -3.377507447122    -0.326531120834     1.007825032230
         H            1.831567272761    -2.766207447122     1.029654879166     1.007825032230

  Basis Set: AUG-CC-PVTZ
    Blend: AUG-CC-PVTZ
  Basis Set: (AUG-CC-PVTZ AUX)
    Blend: AUG-CC-PVTZ-JKFIT
	 Reference Energy          =    -364.2676281246114627 [Eh]
	 Singles Energy            =      -0.0000000000000000 [Eh]
	 Same-Spin Energy          =      -0.3967177616236696 [Eh]
	 Opposite-Spin Energy      =      -1.3061191553993052 [Eh]
	 Correlation Energy        =      -1.7028369170229749 [Eh]
	 Total Energy              =    -365.9704650416344407 [Eh]

	 ================> DF-SCS-MP2 Energies <==================
	-----------------------------------------------------------
	 SCS Same-Spin Scale       =       0.3333333333333333 [-]
	 SCS Opposite-Spin Scale   =       1.2000000000000000 [-]
	 SCS Same-Spin Energy      =      -0.1322392538745565 [Eh]
	 SCS Opposite-Spin Energy  =      -1.5673429864791661 [Eh]
	 SCS Correlation Energy    =      -1.6995822403537226 [Eh]
	 SCS Total Energy          =    -365.9672103649651831 [Eh]
	-----------------------------------------------------------

  Dipole Moment: [D]
     X:    -8.4201      Y:    -0.0836      Z:     0.1602     Total:     8.4220

*** Psi4 exiting successfully. Buy a developer a beer!
