                               Psi4 1.4a3.dev225

  ==> Input File <==

--------------------------------------------------------------------------
#psi4
#
memory 32 gb

molecule  {
1 1
  N       -2.8138210    -0.0000810     0.0131690
  C       -1.3233890    -0.0000370    -0.0148680
  C        0.7280520     1.2302730    -0.0129860
  C        0.7281180    -1.2302340    -0.0129780
  C       -0.6725800    -1.2264340    -0.0069900
  C       -0.6726490     1.2263940    -0.0069970
  C        1.3988940     0.0000390    -0.0107890
  C        1.4942690     2.5253230     0.0134310
  C        1.4944180    -2.5252350     0.0134270
  H       -1.2241800    -2.1659650    -0.0138510
  H       -1.2242990     2.1658960    -0.0138630
  H        2.4879510     0.0000680    -0.0240190
  H       -3.1773769     0.8493700    -0.4407592
  H       -3.1956410    -0.8285950    -0.4638730
  H       -3.1827690    -0.0002330     0.9749950
  H        0.8779320     3.3605910    -0.3276200
  H        1.8358100     2.7495590     1.0289260
  H        2.3762850     2.4675780    -0.6290150
  H        2.3762540    -2.4675350    -0.6292720
  H        0.8780380    -3.3605930    -0.3273260
  H        1.8362550    -2.7492930     1.0288600
units angstrom
no_reorient  #important for SAPT in psi4, default
symmetry c1  #important for SAPT in psi4, default
}

set PROPERTIES_ORIGIN ["COM"]
properties('MP2/aug-cc-pvtz', properties = ['dipole'])
--------------------------------------------------------------------------

    Molecular point group: c1
  Charge       = 1
  Multiplicity = 1
  Basis Set: AUG-CC-PVTZ
    Blend: AUG-CC-PVTZ
  Basis Set: (AUG-CC-PVTZ AUX)
    Blend: AUG-CC-PVTZ-JKFIT

    Orbital Energies [Eh]
    ---------------------

    Doubly Occupied:

       1A    -15.888723     2A    -11.458942     3A    -11.395034
       4A    -11.394899     5A    -11.393725     6A    -11.393498
       7A    -11.371582     8A    -11.345110     9A    -11.345028
      10A     -1.502658    11A     -1.309273    12A     -1.204997
      13A     -1.181946    14A     -1.083447    15A     -1.070465
      16A     -0.988495    17A     -0.968412    18A     -0.947301
      19A     -0.909141    20A     -0.855684    21A     -0.820457
      22A     -0.795171    23A     -0.724293    24A     -0.715476
      25A     -0.710790    26A     -0.690420    27A     -0.679198
      28A     -0.656978    29A     -0.641222    30A     -0.634610
      31A     -0.628609    32A     -0.486427    33A     -0.475162

  @DF-RHF Final Energy:  -364.29424077658007

   => Energetics <=

    Nuclear Repulsion Energy =            432.3741892874028281
    One-Electron Energy =               -1338.0025108845688919
    Two-Electron Energy =                 541.3340808205859958
    Total Energy =                       -364.2942407765800681
  Basis Set: (AUG-CC-PVTZ AUX)
    Blend: AUG-CC-PVTZ-RI
    Molecular point group: c1

    Geometry (in Angstrom), charge = 1, multiplicity = 1:

       Center              X                  Y                   Z               Mass
    ------------   -----------------  -----------------  -----------------  -----------------
         N           -2.808652233513    -0.000252543049     0.014120160406    14.003074004430
         C           -1.318220233513    -0.000208543049    -0.013916839594    12.000000000000
         C            0.733220766487     1.230101456951    -0.012034839594    12.000000000000
         C            0.733286766487    -1.230405543049    -0.012026839594    12.000000000000
         C           -0.667411233513    -1.226605543049    -0.006038839594    12.000000000000
         C           -0.667480233513     1.226222456951    -0.006045839594    12.000000000000
         C            1.404062766487    -0.000132543049    -0.009837839594    12.000000000000
         C            1.499437766487     2.525151456951     0.014382160406    12.000000000000
         C            1.499586766487    -2.525406543049     0.014378160406    12.000000000000
         H           -1.219011233513    -2.166136543049    -0.012899839594     1.007825032230
         H           -1.219130233513     2.165724456951    -0.012911839594     1.007825032230
         H            2.493119766487    -0.000103543049    -0.023067839594     1.007825032230
         H           -3.172208133513     0.849198456951    -0.439808039594     1.007825032230
         H           -3.190472233513    -0.828766543049    -0.462921839594     1.007825032230
         H           -3.177600233513    -0.000404543049     0.975946160406     1.007825032230
         H            0.883100766487     3.360419456951    -0.326668839594     1.007825032230
         H            1.840978766487     2.749387456951     1.029877160406     1.007825032230
         H            2.381453766487     2.467406456951    -0.628063839594     1.007825032230
         H            2.381422766487    -2.467706543049    -0.628320839594     1.007825032230
         H            0.883206766487    -3.360764543049    -0.326374839594     1.007825032230
         H            1.841423766487    -2.749464543049     1.029811160406     1.007825032230

  Basis Set: AUG-CC-PVTZ
    Blend: AUG-CC-PVTZ
  Basis Set: (AUG-CC-PVTZ AUX)
    Blend: AUG-CC-PVTZ-JKFIT
	 Reference Energy          =    -364.2942407765800681 [Eh]
	 Singles Energy            =      -0.0000000000000000 [Eh]
	 Same-Spin Energy          =      -0.3971803950910818 [Eh]
	 Opposite-Spin Energy      =      -1.3053362912685902 [Eh]
	 Correlation Energy        =      -1.7025166863596719 [Eh]
	 Total Energy              =    -365.9967574629397404 [Eh]

	 ================> DF-SCS-MP2 Energies <==================
	-----------------------------------------------------------
	 SCS Same-Spin Scale       =       0.3333333333333333 [-]
	 SCS Opposite-Spin Scale   =       1.2000000000000000 [-]
	 SCS Same-Spin Energy      =      -0.1323934650303606 [Eh]
	 SCS Opposite-Spin Energy  =      -1.5664035495223081 [Eh]
	 SCS Correlation Energy    =      -1.6987970145526687 [Eh]
	 SCS Total Energy          =    -365.9930377911327355 [Eh]
	-----------------------------------------------------------

  Dipole Moment: [D]
     X:    -8.3426      Y:     0.0146      Z:     0.1967     Total:     8.3449

*** Psi4 exiting successfully. Buy a developer a beer!
