                               Psi4 1.4a3.dev225

  ==> Input File <==

--------------------------------------------------------------------------
#psi4
#
memory 32 gb

molecule  {
1 1
  N       -2.8138210    -0.0000810     0.0131690
  C       -1.3233890    -0.0000370    -0.0148680
  C        0.7280520     1.2302730    -0.0129860
  C        0.7281180    -1.2302340    -0.0129780
  C       -0.6725800    -1.2264340    -0.0069900
  C       -0.6726490     1.2263940    -0.0069970
  C        1.3988940     0.0000390    -0.0107890
  C        1.4942690     2.5253230     0.0134310
  C        1.4944180    -2.5252350     0.0134270
  H       -1.2241800    -2.1659650    -0.0138510
  H       -1.2242990     2.1658960    -0.0138630
  H        2.4879510     0.0000680    -0.0240190
  H       -3.1956820     0.8285560    -0.4636260
  H       -3.1956410    -0.8285950    -0.4638730
  H       -3.1111398    -0.0002035     0.7882619
  H        0.8779320     3.3605910    -0.3276200
  H        1.8358100     2.7495590     1.0289260
  H        2.3762850     2.4675780    -0.6290150
  H        2.3762540    -2.4675350    -0.6292720
  H        0.8780380    -3.3605930    -0.3273260
  H        1.8362550    -2.7492930     1.0288600
units angstrom
no_reorient  #important for SAPT in psi4, default
symmetry c1  #important for SAPT in psi4, default
}

set PROPERTIES_ORIGIN ["COM"]
properties('MP2/aug-cc-pvtz', properties = ['dipole'])
--------------------------------------------------------------------------

    Molecular point group: c1
  Charge       = 1
  Multiplicity = 1
  Basis Set: AUG-CC-PVTZ
    Blend: AUG-CC-PVTZ
  Basis Set: (AUG-CC-PVTZ AUX)
    Blend: AUG-CC-PVTZ-JKFIT

    Orbital Energies [Eh]
    ---------------------

    Doubly Occupied:

       1A    -15.873652     2A    -11.460847     3A    -11.396296
       4A    -11.396271     5A    -11.395104     6A    -11.395087
       7A    -11.373046     8A    -11.345809     9A    -11.345808
      10A     -1.544837    11A     -1.313635    12A     -1.206156
      13A     -1.188962    14A     -1.084638    15A     -1.071737
      16A     -1.019974    17A     -0.987317    18A     -0.970589
      19A     -0.911095    20A     -0.859404    21A     -0.823198
      22A     -0.796713    23A     -0.725565    24A     -0.716595
      25A     -0.712052    26A     -0.691146    27A     -0.680088
      28A     -0.657900    29A     -0.642573    30A     -0.637189
      31A     -0.629597    32A     -0.488683    33A     -0.476210

  @DF-RHF Final Energy:  -364.25451219924673

   => Energetics <=

    Nuclear Repulsion Energy =            433.5689052054415242
    One-Electron Energy =               -1340.0112928097723852
    Two-Electron Energy =                 542.1878754050841280
    Total Energy =                       -364.2545121992467330
  Basis Set: (AUG-CC-PVTZ AUX)
    Blend: AUG-CC-PVTZ-RI
    Molecular point group: c1

    Geometry (in Angstrom), charge = 1, multiplicity = 1:

       Center              X                  Y                   Z               Mass
    ------------   -----------------  -----------------  -----------------  -----------------
         N           -2.809092386622    -0.000080981555     0.015850260821    14.003074004430
         C           -1.318660386622    -0.000036981555    -0.012186739179    12.000000000000
         C            0.732780613378     1.230273018445    -0.010304739179    12.000000000000
         C            0.732846613378    -1.230233981555    -0.010296739179    12.000000000000
         C           -0.667851386622    -1.226433981555    -0.004308739179    12.000000000000
         C           -0.667920386622     1.226394018445    -0.004315739179    12.000000000000
         C            1.403622613378     0.000039018445    -0.008107739179    12.000000000000
         C            1.498997613378     2.525323018445     0.016112260821    12.000000000000
         C            1.499146613378    -2.525234981555     0.016108260821    12.000000000000
         H           -1.219451386622    -2.165964981555    -0.011169739179     1.007825032230
         H           -1.219570386622     2.165896018445    -0.011181739179     1.007825032230
         H            2.492679613378     0.000068018445    -0.021337739179     1.007825032230
         H           -3.190953386622     0.828556018445    -0.460944739179     1.007825032230
         H           -3.190912386622    -0.828594981555    -0.461191739179     1.007825032230
         H           -3.106411186622    -0.000203481555     0.790943160821     1.007825032230
         H            0.882660613378     3.360591018445    -0.324938739179     1.007825032230
         H            1.840538613378     2.749559018445     1.031607260821     1.007825032230
         H            2.381013613378     2.467578018445    -0.626333739179     1.007825032230
         H            2.380982613378    -2.467534981555    -0.626590739179     1.007825032230
         H            0.882766613378    -3.360592981555    -0.324644739179     1.007825032230
         H            1.840983613378    -2.749292981555     1.031541260821     1.007825032230

  Basis Set: AUG-CC-PVTZ
    Blend: AUG-CC-PVTZ
  Basis Set: (AUG-CC-PVTZ AUX)
    Blend: AUG-CC-PVTZ-JKFIT
	 Reference Energy          =    -364.2545121992467330 [Eh]
	 Singles Energy            =      -0.0000000000000000 [Eh]
	 Same-Spin Energy          =      -0.3962494225086863 [Eh]
	 Opposite-Spin Energy      =      -1.3027185650359057 [Eh]
	 Correlation Energy        =      -1.6989679875445920 [Eh]
	 Total Energy              =    -365.9534801867913529 [Eh]

	 ================> DF-SCS-MP2 Energies <==================
	-----------------------------------------------------------
	 SCS Same-Spin Scale       =       0.3333333333333333 [-]
	 SCS Opposite-Spin Scale   =       1.2000000000000000 [-]
	 SCS Same-Spin Energy      =      -0.1320831408362288 [Eh]
	 SCS Opposite-Spin Energy  =      -1.5632622780430867 [Eh]
	 SCS Correlation Energy    =      -1.6953454188793156 [Eh]
	 SCS Total Energy          =    -365.9498576181260319 [Eh]
	-----------------------------------------------------------

  Dipole Moment: [D]
     X:    -8.2108      Y:    -0.0002      Z:    -0.0963     Total:     8.2113

*** Psi4 exiting successfully. Buy a developer a beer!
