                               Psi4 1.4a3.dev225

  ==> Input File <==

--------------------------------------------------------------------------
#psi4
#
memory 32 gb

molecule  {
1 1
  N       -2.8138210    -0.0000810     0.0131690
  C       -1.3233890    -0.0000370    -0.0148680
  C        0.7280520     1.2302730    -0.0129860
  C        0.7281180    -1.2302340    -0.0129780
  C       -0.6725800    -1.2264340    -0.0069900
  C       -0.6726490     1.2263940    -0.0069970
  C        1.3988940     0.0000390    -0.0107890
  C        1.3924443     2.3532201     0.0099204
  C        1.4944180    -2.5252350     0.0134270
  H       -1.2241800    -2.1659650    -0.0138510
  H       -1.2242990     2.1658960    -0.0138630
  H        2.4879510     0.0000680    -0.0240190
  H       -3.1956820     0.8285560    -0.4636260
  H       -3.1956410    -0.8285950    -0.4638730
  H       -3.1827690    -0.0002330     0.9749950
  H        0.8779320     3.3605910    -0.3276200
  H        1.8358100     2.7495590     1.0289260
  H        2.3762850     2.4675780    -0.6290150
  H        2.3762540    -2.4675350    -0.6292720
  H        0.8780380    -3.3605930    -0.3273260
  H        1.8362550    -2.7492930     1.0288600
units angstrom
no_reorient  #important for SAPT in psi4, default
symmetry c1  #important for SAPT in psi4, default
}

set PROPERTIES_ORIGIN ["COM"]
properties('MP2/aug-cc-pvtz', properties = ['dipole'])
--------------------------------------------------------------------------

    Molecular point group: c1
  Charge       = 1
  Multiplicity = 1
  Basis Set: AUG-CC-PVTZ
    Blend: AUG-CC-PVTZ
  Basis Set: (AUG-CC-PVTZ AUX)
    Blend: AUG-CC-PVTZ-JKFIT

    Orbital Energies [Eh]
    ---------------------

    Doubly Occupied:

       1A    -15.888828     2A    -11.459197     3A    -11.394757
       4A    -11.393471     5A    -11.393185     6A    -11.384245
       7A    -11.371202     8A    -11.353960     9A    -11.345005
      10A     -1.502678    11A     -1.318160    12A     -1.228090
      13A     -1.187148    14A     -1.087029    15A     -1.072166
      16A     -0.990290    17A     -0.961367    18A     -0.949770
      19A     -0.906476    20A     -0.856952    21A     -0.823081
      22A     -0.800269    23A     -0.754336    24A     -0.722560
      25A     -0.711399    26A     -0.683616    27A     -0.679848
      28A     -0.654192    29A     -0.647332    30A     -0.621042
      31A     -0.599682    32A     -0.484100    33A     -0.466021

  @DF-RHF Final Energy:  -364.24148211541115

   => Energetics <=

    Nuclear Repulsion Energy =            436.0215667259658403
    One-Electron Energy =               -1345.1431924070147943
    Two-Electron Energy =                 544.8801435656378089
    Total Energy =                       -364.2414821154111451
  Basis Set: (AUG-CC-PVTZ AUX)
    Blend: AUG-CC-PVTZ-RI
    Molecular point group: c1

    Geometry (in Angstrom), charge = 1, multiplicity = 1:

       Center              X                  Y                   Z               Mass
    ------------   -----------------  -----------------  -----------------  -----------------
         N           -2.798493548221     0.016833971016     0.014653940492    14.003074004430
         C           -1.308061548221     0.016877971016    -0.013383059508    12.000000000000
         C            0.743379451779     1.247187971016    -0.011501059508    12.000000000000
         C            0.743445451779    -1.213319028984    -0.011493059508    12.000000000000
         C           -0.657252548221    -1.209519028984    -0.005505059508    12.000000000000
         C           -0.657321548221     1.243308971016    -0.005512059508    12.000000000000
         C            1.414221451779     0.016953971016    -0.009304059508    12.000000000000
         C            1.407771751779     2.370135071016     0.011405340492    12.000000000000
         C            1.509745451779    -2.508320028984     0.014911940492    12.000000000000
         H           -1.208852548221    -2.149050028984    -0.012366059508     1.007825032230
         H           -1.208971548221     2.182810971016    -0.012378059508     1.007825032230
         H            2.503278451779     0.016982971016    -0.022534059508     1.007825032230
         H           -3.180354548221     0.845470971016    -0.462141059508     1.007825032230
         H           -3.180313548221    -0.811680028984    -0.462388059508     1.007825032230
         H           -3.167441548221     0.016681971016     0.976479940492     1.007825032230
         H            0.893259451779     3.377505971016    -0.326135059508     1.007825032230
         H            1.851137451779     2.766473971016     1.030410940492     1.007825032230
         H            2.391612451779     2.484492971016    -0.627530059508     1.007825032230
         H            2.391581451779    -2.450620028984    -0.627787059508     1.007825032230
         H            0.893365451779    -3.343678028984    -0.325841059508     1.007825032230
         H            1.851582451779    -2.732378028984     1.030344940492     1.007825032230

  Basis Set: AUG-CC-PVTZ
    Blend: AUG-CC-PVTZ
  Basis Set: (AUG-CC-PVTZ AUX)
    Blend: AUG-CC-PVTZ-JKFIT
	 Reference Energy          =    -364.2414821154111451 [Eh]
	 Singles Energy            =      -0.0000000000000000 [Eh]
	 Same-Spin Energy          =      -0.4008539150201318 [Eh]
	 Opposite-Spin Energy      =      -1.3100260574849054 [Eh]
	 Correlation Energy        =      -1.7108799725050372 [Eh]
	 Total Energy              =    -365.9523620879161854 [Eh]

	 ================> DF-SCS-MP2 Energies <==================
	-----------------------------------------------------------
	 SCS Same-Spin Scale       =       0.3333333333333333 [-]
	 SCS Opposite-Spin Scale   =       1.2000000000000000 [-]
	 SCS Same-Spin Energy      =      -0.1336179716733773 [Eh]
	 SCS Opposite-Spin Energy  =      -1.5720312689818865 [Eh]
	 SCS Correlation Energy    =      -1.7056492406552637 [Eh]
	 SCS Total Energy          =    -365.9471313560663930 [Eh]
	-----------------------------------------------------------

  Dipole Moment: [D]
     X:    -8.2267      Y:     0.2005      Z:     0.1957     Total:     8.2314

*** Psi4 exiting successfully. Buy a developer a beer!
