                               Psi4 1.4a3.dev225

  ==> Input File <==

--------------------------------------------------------------------------
#psi4
#
memory 32 gb

molecule  {
1 1
  N       -2.8138210    -0.0000810     0.0131690
  C       -1.3233890    -0.0000370    -0.0148680
  C        0.7280520     1.2302730    -0.0129860
  C        0.7281180    -1.2302340    -0.0129780
  C       -0.6725800    -1.2264340    -0.0069900
  C       -0.6726490     1.2263940    -0.0069970
  C        1.4467636     0.0878369    -0.0106328
  C        1.4942690     2.5253230     0.0134310
  C        1.4944180    -2.5252350     0.0134270
  H       -1.2241800    -2.1659650    -0.0138510
  H       -1.2242990     2.1658960    -0.0138630
  H        2.4879510     0.0000680    -0.0240190
  H       -3.1956820     0.8285560    -0.4636260
  H       -3.1956410    -0.8285950    -0.4638730
  H       -3.1827690    -0.0002330     0.9749950
  H        0.8779320     3.3605910    -0.3276200
  H        1.8358100     2.7495590     1.0289260
  H        2.3762850     2.4675780    -0.6290150
  H        2.3762540    -2.4675350    -0.6292720
  H        0.8780380    -3.3605930    -0.3273260
  H        1.8362550    -2.7492930     1.0288600
units angstrom
no_reorient  #important for SAPT in psi4, default
symmetry c1  #important for SAPT in psi4, default
}

set PROPERTIES_ORIGIN ["COM"]
properties('MP2/aug-cc-pvtz', properties = ['dipole'])
--------------------------------------------------------------------------

    Molecular point group: c1
  Charge       = 1
  Multiplicity = 1
  Basis Set: AUG-CC-PVTZ
    Blend: AUG-CC-PVTZ
  Basis Set: (AUG-CC-PVTZ AUX)
    Blend: AUG-CC-PVTZ-JKFIT

    Orbital Energies [Eh]
    ---------------------

    Doubly Occupied:

       1A    -15.889086     2A    -11.460180     3A    -11.406181
       4A    -11.396453     5A    -11.391152     6A    -11.386071
       7A    -11.372354     8A    -11.347074     9A    -11.341017
      10A     -1.502982    11A     -1.306193    12A     -1.205522
      13A     -1.180675    14A     -1.083982    15A     -1.066970
      16A     -0.992251    17A     -0.964301    18A     -0.950043
      19A     -0.903319    20A     -0.855878    21A     -0.828712
      22A     -0.793301    23A     -0.724589    24A     -0.714733
      25A     -0.709469    26A     -0.690136    27A     -0.686941
      28A     -0.656701    29A     -0.649954    30A     -0.633402
      31A     -0.611669    32A     -0.489571    33A     -0.469578

  @DF-RHF Final Energy:  -364.28265946372960

   => Energetics <=

    Nuclear Repulsion Energy =            431.6255285991198889
    One-Electron Energy =               -1336.4954953047556501
    Two-Electron Energy =                 540.5873072419061600
    Total Energy =                       -364.2826594637296012
  Basis Set: (AUG-CC-PVTZ AUX)
    Blend: AUG-CC-PVTZ-RI
    Molecular point group: c1

    Geometry (in Angstrom), charge = 1, multiplicity = 1:

       Center              X                  Y                   Z               Mass
    ------------   -----------------  -----------------  -----------------  -----------------
         N           -2.813205883305    -0.008709738118     0.014293558097    14.003074004430
         C           -1.322773883305    -0.008665738118    -0.013743441903    12.000000000000
         C            0.728667116695     1.221644261882    -0.011861441903    12.000000000000
         C            0.728733116695    -1.238862738118    -0.011853441903    12.000000000000
         C           -0.671964883305    -1.235062738118    -0.005865441903    12.000000000000
         C           -0.672033883305     1.217765261882    -0.005872441903    12.000000000000
         C            1.447378716695     0.079208161882    -0.009508241903    12.000000000000
         C            1.494884116695     2.516694261882     0.014555558097    12.000000000000
         C            1.495033116695    -2.533863738118     0.014551558097    12.000000000000
         H           -1.223564883305    -2.174593738118    -0.012726441903     1.007825032230
         H           -1.223683883305     2.157267261882    -0.012738441903     1.007825032230
         H            2.488566116695    -0.008560738118    -0.022894441903     1.007825032230
         H           -3.195066883305     0.819927261882    -0.462501441903     1.007825032230
         H           -3.195025883305    -0.837223738118    -0.462748441903     1.007825032230
         H           -3.182153883305    -0.008861738118     0.976119558097     1.007825032230
         H            0.878547116695     3.351962261882    -0.326495441903     1.007825032230
         H            1.836425116695     2.740930261882     1.030050558097     1.007825032230
         H            2.376900116695     2.458949261882    -0.627890441903     1.007825032230
         H            2.376869116695    -2.476163738118    -0.628147441903     1.007825032230
         H            0.878653116695    -3.369221738118    -0.326201441903     1.007825032230
         H            1.836870116695    -2.757921738118     1.029984558097     1.007825032230

  Basis Set: AUG-CC-PVTZ
    Blend: AUG-CC-PVTZ
  Basis Set: (AUG-CC-PVTZ AUX)
    Blend: AUG-CC-PVTZ-JKFIT
	 Reference Energy          =    -364.2826594637296012 [Eh]
	 Singles Energy            =      -0.0000000000000000 [Eh]
	 Same-Spin Energy          =      -0.3969240614097397 [Eh]
	 Opposite-Spin Energy      =      -1.3058273410174843 [Eh]
	 Correlation Energy        =      -1.7027514024272241 [Eh]
	 Total Energy              =    -365.9854108661568262 [Eh]

	 ================> DF-SCS-MP2 Energies <==================
	-----------------------------------------------------------
	 SCS Same-Spin Scale       =       0.3333333333333333 [-]
	 SCS Opposite-Spin Scale   =       1.2000000000000000 [-]
	 SCS Same-Spin Energy      =      -0.1323080204699132 [Eh]
	 SCS Opposite-Spin Energy  =      -1.5669928092209811 [Eh]
	 SCS Correlation Energy    =      -1.6993008296908942 [Eh]
	 SCS Total Energy          =    -365.9819602934205136 [Eh]
	-----------------------------------------------------------

  Dipole Moment: [D]
     X:    -8.3785      Y:    -0.1622      Z:     0.1703     Total:     8.3818

*** Psi4 exiting successfully. Buy a developer a beer!
