                               Psi4 1.3.2 release

  ==> Input File <==

--------------------------------------------------------------------------
#psi4
#
memory 32 gb

molecule  {
0 1
  O       -2.2334690    -1.1675340     0.0001340
  N        0.0265130    -0.9084710    -0.0000270
  N        2.3544690    -0.8475160    -0.0005320
  N       -1.3973450     1.0028810     0.0002180
  C        1.1706060    -0.1768690    -0.0001310
  C        1.0385970     1.1986830    -0.0000890
  C       -1.2978830    -0.3751090     0.0001540
  C       -0.2757380     1.7018570     0.0000510
  H        0.0506260    -1.9247470    -0.0002200
  H        1.9822371     1.9121626    -0.0001687
  H       -0.4079780     2.7850560     0.0002120
  H        3.2235170    -0.3366370     0.0005700
  H        2.4001700    -1.8548790     0.0010060
units angstrom
no_reorient  #important for SAPT in psi4, default
symmetry c1  #important for SAPT in psi4, default
}

set PROPERTIES_ORIGIN ["COM"]
properties('MP2/aug-cc-pvtz', properties = ['dipole'])
--------------------------------------------------------------------------

    Molecular point group: c1
  Charge       = 0
  Multiplicity = 1
  Basis Set: AUG-CC-PVTZ
    Blend: AUG-CC-PVTZ
  Basis Set: (AUG-CC-PVTZ AUX)
    Blend: AUG-CC-PVTZ-JKFIT

    Orbital Energies [Eh]
    ---------------------

    Doubly Occupied:

       1A    -20.509654     2A    -15.632699     3A    -15.628919
       4A    -15.546451     5A    -11.385172     6A    -11.376148
       7A    -11.309925     8A    -11.243604     9A     -1.389147
      10A     -1.323631    11A     -1.243218    12A     -1.199424
      13A     -1.054801    14A     -0.909990    15A     -0.882028
      16A     -0.783984    17A     -0.747887    18A     -0.720949
      19A     -0.691681    20A     -0.639060    21A     -0.633632
      22A     -0.610736    23A     -0.561832    24A     -0.548088
      25A     -0.460879    26A     -0.447806    27A     -0.442297
      28A     -0.415843    29A     -0.326129

  @DF-RHF Final Energy:  -392.74381727230269

   => Energetics <=

    Nuclear Repulsion Energy =            354.7063092957465642
    One-Electron Energy =               -1237.5690226848462316
    Two-Electron Energy =                 490.1188961167969751
    Total Energy =                       -392.7438172723026923
  Basis Set: (AUG-CC-PVTZ AUX)
    Blend: AUG-CC-PVTZ-RI
    Molecular point group: c1

    Geometry (in Angstrom), charge = 0, multiplicity = 1:

       Center              X                  Y                   Z               Mass
    ------------   -----------------  -----------------  -----------------  -----------------
         O           -2.170269056732    -1.163462072600     0.000146621028    15.994914619570
         N            0.089712943268    -0.904399072600    -0.000014378972    14.003074004430
         N            2.417668943268    -0.843444072600    -0.000519378972    14.003074004430
         N           -1.334145056732     1.006952927400     0.000230621028    14.003074004430
         C            1.233805943268    -0.172797072600    -0.000118378972    12.000000000000
         C            1.101796943268     1.202754927400    -0.000076378972    12.000000000000
         C           -1.234683056732    -0.371037072600     0.000166621028    12.000000000000
         C           -0.212538056732     1.705928927400     0.000063621028    12.000000000000
         H            0.113825943268    -1.920675072600    -0.000207378972     1.007825032230
         H            2.045437043268     1.916234527400    -0.000156078972     1.007825032230
         H           -0.344778056732     2.789127927400     0.000224621028     1.007825032230
         H            3.286716943268    -0.332565072600     0.000582621028     1.007825032230
         H            2.463369943268    -1.850807072600     0.001018621028     1.007825032230

  Basis Set: AUG-CC-PVTZ
    Blend: AUG-CC-PVTZ
  Basis Set: (AUG-CC-PVTZ AUX)
    Blend: AUG-CC-PVTZ-JKFIT
	 Reference Energy          =    -392.7438172723026923 [Eh]
	 Singles Energy            =      -0.0000000000000000 [Eh]
	 Same-Spin Energy          =      -0.4070472883290261 [Eh]
	 Opposite-Spin Energy      =      -1.2148915552331445 [Eh]
	 Correlation Energy        =      -1.6219388435621707 [Eh]
	 Total Energy              =    -394.3657561158648832 [Eh]

	 ================> DF-SCS-MP2 Energies <==================
	-----------------------------------------------------------
	 SCS Same-Spin Scale       =       0.3333333333333333 [-]
	 SCS Opposite-Spin Scale   =       1.2000000000000000 [-]
	 SCS Same-Spin Energy      =      -0.1356824294430087 [Eh]
	 SCS Opposite-Spin Energy  =      -1.4578698662797733 [Eh]
	 SCS Correlation Energy    =      -1.5935522957227821 [Eh]
	 SCS Total Energy          =    -394.3373695680254514 [Eh]
	-----------------------------------------------------------

  Dipole Moment: [D]
     X:     8.1165      Y:    -0.8719      Z:     0.0030     Total:     8.1632

*** Psi4 exiting successfully. Buy a developer a beer!
