                               Psi4 1.3.2 release

  ==> Input File <==

--------------------------------------------------------------------------
#psi4
#
memory 32 gb

molecule  {
0 1
  O       -2.1455128    -1.2609884     0.0001283
  N        0.0265130    -0.9084710    -0.0000270
  N        2.3544690    -0.8475160    -0.0005320
  N       -1.3973450     1.0028810     0.0002180
  C        1.1706060    -0.1768690    -0.0001310
  C        1.0385970     1.1986830    -0.0000890
  C       -1.2978830    -0.3751090     0.0001540
  C       -0.2757380     1.7018570     0.0000510
  H        0.0506260    -1.9247470    -0.0002200
  H        1.9024710     1.8518520    -0.0001620
  H       -0.4079780     2.7850560     0.0002120
  H        3.2235170    -0.3366370     0.0005700
  H        2.4001700    -1.8548790     0.0010060
units angstrom
no_reorient  #important for SAPT in psi4, default
symmetry c1  #important for SAPT in psi4, default
}

set PROPERTIES_ORIGIN ["COM"]
properties('MP2/aug-cc-pvtz', properties = ['dipole'])
--------------------------------------------------------------------------

    Molecular point group: c1
  Charge       = 0
  Multiplicity = 1
  Basis Set: AUG-CC-PVTZ
    Blend: AUG-CC-PVTZ
  Basis Set: (AUG-CC-PVTZ AUX)
    Blend: AUG-CC-PVTZ-JKFIT

    Orbital Energies [Eh]
    ---------------------

    Doubly Occupied:

       1A    -20.509022     2A    -15.628008     3A    -15.625952
       4A    -15.549003     5A    -11.382245     6A    -11.376950
       7A    -11.311961     8A    -11.232566     9A     -1.391518
      10A     -1.320521    11A     -1.243456    12A     -1.197703
      13A     -1.057469    14A     -0.910283    15A     -0.881204
      16A     -0.782728    17A     -0.752111    18A     -0.720551
      19A     -0.691589    20A     -0.638011    21A     -0.637286
      22A     -0.618972    23A     -0.570517    24A     -0.547915
      25A     -0.462780    26A     -0.452090    27A     -0.438168
      28A     -0.413534    29A     -0.326888

  @DF-RHF Final Energy:  -392.74860164696014

   => Energetics <=

    Nuclear Repulsion Energy =            355.6181539220459058
    One-Electron Energy =               -1239.3915066334077437
    Two-Electron Energy =                 491.0247510644017552
    Total Energy =                       -392.7486016469601395
  Basis Set: (AUG-CC-PVTZ AUX)
    Blend: AUG-CC-PVTZ-RI
    Molecular point group: c1

    Geometry (in Angstrom), charge = 0, multiplicity = 1:

       Center              X                  Y                   Z               Mass
    ------------   -----------------  -----------------  -----------------  -----------------
         O           -2.094258305880    -1.242907719109     0.000141681259    15.994914619570
         N            0.077767494120    -0.890390319109    -0.000013618741    14.003074004430
         N            2.405723494120    -0.829435319109    -0.000518618741    14.003074004430
         N           -1.346090505880     1.020961680891     0.000231381259    14.003074004430
         C            1.221860494120    -0.158788319109    -0.000117618741    12.000000000000
         C            1.089851494120     1.216763680891    -0.000075618741    12.000000000000
         C           -1.246628505880    -0.357028319109     0.000167381259    12.000000000000
         C           -0.224483505880     1.719937680891     0.000064381259    12.000000000000
         H            0.101880494120    -1.906666319109    -0.000206618741     1.007825032230
         H            1.953725494120     1.869932680891    -0.000148618741     1.007825032230
         H           -0.356723505880     2.803136680891     0.000225381259     1.007825032230
         H            3.274771494120    -0.318556319109     0.000583381259     1.007825032230
         H            2.451424494120    -1.836798319109     0.001019381259     1.007825032230

  Basis Set: AUG-CC-PVTZ
    Blend: AUG-CC-PVTZ
  Basis Set: (AUG-CC-PVTZ AUX)
    Blend: AUG-CC-PVTZ-JKFIT
	 Reference Energy          =    -392.7486016469601395 [Eh]
	 Singles Energy            =      -0.0000000000000000 [Eh]
	 Same-Spin Energy          =      -0.4068906127732875 [Eh]
	 Opposite-Spin Energy      =      -1.2138563621830403 [Eh]
	 Correlation Energy        =      -1.6207469749563277 [Eh]
	 Total Energy              =    -394.3693486219164583 [Eh]

	 ================> DF-SCS-MP2 Energies <==================
	-----------------------------------------------------------
	 SCS Same-Spin Scale       =       0.3333333333333333 [-]
	 SCS Opposite-Spin Scale   =       1.2000000000000000 [-]
	 SCS Same-Spin Energy      =      -0.1356302042577625 [Eh]
	 SCS Opposite-Spin Energy  =      -1.4566276346196483 [Eh]
	 SCS Correlation Energy    =      -1.5922578388774107 [Eh]
	 SCS Total Energy          =    -394.3408594858375409 [Eh]
	-----------------------------------------------------------

  Dipole Moment: [D]
     X:     8.0182      Y:    -0.6746      Z:     0.0030     Total:     8.0465

*** Psi4 exiting successfully. Buy a developer a beer!
