                               Psi4 1.3.2 release

  ==> Input File <==

--------------------------------------------------------------------------
#psi4
#
memory 32 gb

molecule  {
0 1
  O       -2.2334690    -1.1675340     0.0001340
  N        0.0265130    -0.9084710    -0.0000270
  N        2.3544690    -0.8475160    -0.0005320
  N       -1.3973450     1.0028810     0.0002180
  C        1.1706060    -0.1768690    -0.0001310
  C        1.0385970     1.1986830    -0.0000890
  C       -1.2978830    -0.3751090     0.0001540
  C       -0.3211339     1.5617151     0.0000528
  H        0.0506260    -1.9247470    -0.0002200
  H        1.9024710     1.8518520    -0.0001620
  H       -0.4079780     2.7850560     0.0002120
  H        3.2235170    -0.3366370     0.0005700
  H        2.4001700    -1.8548790     0.0010060
units angstrom
no_reorient  #important for SAPT in psi4, default
symmetry c1  #important for SAPT in psi4, default
}

set PROPERTIES_ORIGIN ["COM"]
properties('MP2/aug-cc-pvtz', properties = ['dipole'])
--------------------------------------------------------------------------

    Molecular point group: c1
  Charge       = 0
  Multiplicity = 1
  Basis Set: AUG-CC-PVTZ
    Blend: AUG-CC-PVTZ
  Basis Set: (AUG-CC-PVTZ AUX)
    Blend: AUG-CC-PVTZ-JKFIT

    Orbital Energies [Eh]
    ---------------------

    Doubly Occupied:

       1A    -20.518783     2A    -15.632946     3A    -15.625160
       4A    -15.548078     5A    -11.383480     6A    -11.378544
       7A    -11.302721     8A    -11.229405     9A     -1.400064
      10A     -1.326157    11A     -1.275749    12A     -1.214260
      13A     -1.059663    14A     -0.895794    15A     -0.892395
      16A     -0.788278    17A     -0.757575    18A     -0.718630
      19A     -0.684474    20A     -0.645911    21A     -0.636159
      22A     -0.625832    23A     -0.554109    24A     -0.552005
      25A     -0.484047    26A     -0.459196    27A     -0.444357
      28A     -0.407714    29A     -0.330545

  @DF-RHF Final Energy:  -392.72540974917024

   => Energetics <=

    Nuclear Repulsion Energy =            358.0971835462472086
    One-Electron Energy =               -1244.1011265363686107
    Two-Electron Energy =                 493.2785332409512193
    Total Energy =                       -392.7254097491702396
  Basis Set: (AUG-CC-PVTZ AUX)
    Blend: AUG-CC-PVTZ-RI
    Molecular point group: c1

    Geometry (in Angstrom), charge = 0, multiplicity = 1:

       Center              X                  Y                   Z               Mass
    ------------   -----------------  -----------------  -----------------  -----------------
         O           -2.164639349335    -1.147770122415     0.000146365700    15.994914619570
         N            0.095342650665    -0.888707122415    -0.000014634300    14.003074004430
         N            2.423298650665    -0.827752122415    -0.000519634300    14.003074004430
         N           -1.328515349335     1.022644877585     0.000230365700    14.003074004430
         C            1.239435650665    -0.157105122415    -0.000118634300    12.000000000000
         C            1.107426650665     1.218446877585    -0.000076634300    12.000000000000
         C           -1.229053349335    -0.355345122415     0.000166365700    12.000000000000
         C           -0.252304249335     1.581478977585     0.000065165700    12.000000000000
         H            0.119455650665    -1.904983122415    -0.000207634300     1.007825032230
         H            1.971300650665     1.871615877585    -0.000149634300     1.007825032230
         H           -0.339148349335     2.804819877585     0.000224365700     1.007825032230
         H            3.292346650665    -0.316873122415     0.000582365700     1.007825032230
         H            2.468999650665    -1.835115122415     0.001018365700     1.007825032230

  Basis Set: AUG-CC-PVTZ
    Blend: AUG-CC-PVTZ
  Basis Set: (AUG-CC-PVTZ AUX)
    Blend: AUG-CC-PVTZ-JKFIT
	 Reference Energy          =    -392.7254097491702396 [Eh]
	 Singles Energy            =      -0.0000000000000000 [Eh]
	 Same-Spin Energy          =      -0.4060942244886618 [Eh]
	 Opposite-Spin Energy      =      -1.2130048700038385 [Eh]
	 Correlation Energy        =      -1.6190990944925003 [Eh]
	 Total Energy              =    -394.3445088436627657 [Eh]

	 ================> DF-SCS-MP2 Energies <==================
	-----------------------------------------------------------
	 SCS Same-Spin Scale       =       0.3333333333333333 [-]
	 SCS Opposite-Spin Scale   =       1.2000000000000000 [-]
	 SCS Same-Spin Energy      =      -0.1353647414962206 [Eh]
	 SCS Opposite-Spin Energy  =      -1.4556058440046062 [Eh]
	 SCS Correlation Energy    =      -1.5909705855008269 [Eh]
	 SCS Total Energy          =    -394.3163803346710665 [Eh]
	-----------------------------------------------------------

  Dipole Moment: [D]
     X:     7.7470      Y:    -1.2827      Z:     0.0030     Total:     7.8524

*** Psi4 exiting successfully. Buy a developer a beer!
