                               Psi4 1.3.2 release

  ==> Input File <==

--------------------------------------------------------------------------
#psi4
#
memory 32 gb

molecule  {
0 1
  O       -2.2334690    -1.1675340     0.0001340
  N        0.0265130    -0.9084710    -0.0000270
  N        2.3544690    -0.8475160    -0.0005320
  N       -1.3973450     1.0028810     0.0002180
  C        1.1832000    -0.1969476    -0.0001373
  C        1.0385970     1.1986830    -0.0000890
  C       -1.2978830    -0.3751090     0.0001540
  C       -0.2757380     1.7018570     0.0000510
  H        0.0506260    -1.9247470    -0.0002200
  H        1.9024710     1.8518520    -0.0001620
  H       -0.4079780     2.7850560     0.0002120
  H        3.2235170    -0.3366370     0.0005700
  H        2.4001700    -1.8548790     0.0010060
units angstrom
no_reorient  #important for SAPT in psi4, default
symmetry c1  #important for SAPT in psi4, default
}

set PROPERTIES_ORIGIN ["COM"]
properties('MP2/aug-cc-pvtz', properties = ['dipole'])
--------------------------------------------------------------------------

    Molecular point group: c1
  Charge       = 0
  Multiplicity = 1
  Basis Set: AUG-CC-PVTZ
    Blend: AUG-CC-PVTZ
  Basis Set: (AUG-CC-PVTZ AUX)
    Blend: AUG-CC-PVTZ-JKFIT

    Orbital Energies [Eh]
    ---------------------

    Doubly Occupied:

       1A    -20.508465     2A    -15.633726     3A    -15.632487
       4A    -15.542648     5A    -11.386151     6A    -11.375070
       7A    -11.306464     8A    -11.232269     9A     -1.388295
      10A     -1.328148    11A     -1.245984    12A     -1.199430
      13A     -1.051770    14A     -0.908787    15A     -0.884881
      16A     -0.788445    17A     -0.754666    18A     -0.726572
      19A     -0.688482    20A     -0.639602    21A     -0.636329
      22A     -0.617578    23A     -0.565521    24A     -0.551188
      25A     -0.458407    26A     -0.446128    27A     -0.443143
      28A     -0.413876    29A     -0.321843

  @DF-RHF Final Energy:  -392.75051615608356

   => Energetics <=

    Nuclear Repulsion Energy =            355.0750361117485454
    One-Electron Energy =               -1238.2983946253775684
    Two-Electron Energy =                 490.4728423575454599
    Total Energy =                       -392.7505161560835631
  Basis Set: (AUG-CC-PVTZ AUX)
    Blend: AUG-CC-PVTZ-RI
    Molecular point group: c1

    Geometry (in Angstrom), charge = 0, multiplicity = 1:

       Center              X                  Y                   Z               Mass
    ------------   -----------------  -----------------  -----------------  -----------------
         O           -2.170906085279    -1.160744881772     0.000147241035    15.994914619570
         N            0.089075914721    -0.901681881772    -0.000013758965    14.003074004430
         N            2.417031914721    -0.840726881772    -0.000518758965    14.003074004430
         N           -1.334782085279     1.009670118228     0.000231241035    14.003074004430
         C            1.245762914721    -0.190158481772    -0.000124058965    12.000000000000
         C            1.101159914721     1.205472118228    -0.000075758965    12.000000000000
         C           -1.235320085279    -0.368319881772     0.000167241035    12.000000000000
         C           -0.213175085279     1.708646118228     0.000064241035    12.000000000000
         H            0.113188914721    -1.917957881772    -0.000206758965     1.007825032230
         H            1.965033914721     1.858641118228    -0.000148758965     1.007825032230
         H           -0.345415085279     2.791845118228     0.000225241035     1.007825032230
         H            3.286079914721    -0.329847881772     0.000583241035     1.007825032230
         H            2.462732914721    -1.848089881772     0.001019241035     1.007825032230

  Basis Set: AUG-CC-PVTZ
    Blend: AUG-CC-PVTZ
  Basis Set: (AUG-CC-PVTZ AUX)
    Blend: AUG-CC-PVTZ-JKFIT
	 Reference Energy          =    -392.7505161560835631 [Eh]
	 Singles Energy            =      -0.0000000000000000 [Eh]
	 Same-Spin Energy          =      -0.4069153314398174 [Eh]
	 Opposite-Spin Energy      =      -1.2139644213231653 [Eh]
	 Correlation Energy        =      -1.6208797527629826 [Eh]
	 Total Energy              =    -394.3713959088465231 [Eh]

	 ================> DF-SCS-MP2 Energies <==================
	-----------------------------------------------------------
	 SCS Same-Spin Scale       =       0.3333333333333333 [-]
	 SCS Opposite-Spin Scale   =       1.2000000000000000 [-]
	 SCS Same-Spin Energy      =      -0.1356384438132724 [Eh]
	 SCS Opposite-Spin Energy  =      -1.4567573055877983 [Eh]
	 SCS Correlation Energy    =      -1.5923957494010708 [Eh]
	 SCS Total Energy          =    -394.3429119054846410 [Eh]
	-----------------------------------------------------------

  Dipole Moment: [D]
     X:     8.3310      Y:    -1.0212      Z:     0.0030     Total:     8.3933

*** Psi4 exiting successfully. Buy a developer a beer!
