                               Psi4 1.3.2 release

  ==> Input File <==

--------------------------------------------------------------------------
#psi4
#
memory 32 gb

molecule  {
0 1
  O       -2.2334690    -1.1675340     0.0001340
  N        0.0265130    -0.9084710    -0.0000270
  N        2.3544690    -0.8475160    -0.0005320
  N       -1.3973450     1.0028810     0.0002180
  C        1.1706060    -0.1768690    -0.0001310
  C        1.0385970     1.1986830    -0.0000890
  C       -1.2978830    -0.3751090     0.0001540
  C       -0.2757380     1.7018570     0.0000510
  H        0.0506260    -1.9247470    -0.0002200
  H        1.7429388     1.7312308    -0.0001485
  H       -0.4079780     2.7850560     0.0002120
  H        3.2235170    -0.3366370     0.0005700
  H        2.4001700    -1.8548790     0.0010060
units angstrom
no_reorient  #important for SAPT in psi4, default
symmetry c1  #important for SAPT in psi4, default
}

set PROPERTIES_ORIGIN ["COM"]
properties('MP2/aug-cc-pvtz', properties = ['dipole'])
--------------------------------------------------------------------------

    Molecular point group: c1
  Charge       = 0
  Multiplicity = 1
  Basis Set: AUG-CC-PVTZ
    Blend: AUG-CC-PVTZ
  Basis Set: (AUG-CC-PVTZ AUX)
    Blend: AUG-CC-PVTZ-JKFIT

    Orbital Energies [Eh]
    ---------------------

    Doubly Occupied:

       1A    -20.508892     2A    -15.631193     3A    -15.629329
       4A    -15.544590     5A    -11.382993     6A    -11.375072
       7A    -11.307445     8A    -11.208974     9A     -1.388101
      10A     -1.323200    11A     -1.242321    12A     -1.198631
      13A     -1.068602    14A     -0.909474    15A     -0.889569
      16A     -0.788793    17A     -0.769449    18A     -0.724390
      19A     -0.690869    20A     -0.657411    21A     -0.637829
      22A     -0.626590    23A     -0.575696    24A     -0.547600
      25A     -0.459379    26A     -0.447292    27A     -0.441681
      28A     -0.414663    29A     -0.325424

  @DF-RHF Final Energy:  -392.71562516715107

   => Energetics <=

    Nuclear Repulsion Energy =            356.3657004355108597
    One-Electron Energy =               -1240.7317457939741416
    Two-Electron Energy =                 491.6504201913121506
    Total Energy =                       -392.7156251671510745
  Basis Set: (AUG-CC-PVTZ AUX)
    Blend: AUG-CC-PVTZ-RI
    Molecular point group: c1

    Geometry (in Angstrom), charge = 0, multiplicity = 1:

       Center              X                  Y                   Z               Mass
    ------------   -----------------  -----------------  -----------------  -----------------
         O           -2.168097193145    -1.161819941468     0.000146437693    15.994914619570
         N            0.091884806855    -0.902756941468    -0.000014562307    14.003074004430
         N            2.419840806855    -0.841801941468    -0.000519562307    14.003074004430
         N           -1.331973193145     1.008595058532     0.000230437693    14.003074004430
         C            1.235977806855    -0.171154941468    -0.000118562307    12.000000000000
         C            1.103968806855     1.204397058532    -0.000076562307    12.000000000000
         C           -1.232511193145    -0.369394941468     0.000166437693    12.000000000000
         C           -0.210366193145     1.707571058532     0.000063437693    12.000000000000
         H            0.115997806855    -1.919032941468    -0.000207562307     1.007825032230
         H            1.808310606855     1.736944858532    -0.000136062307     1.007825032230
         H           -0.342606193145     2.790770058532     0.000224437693     1.007825032230
         H            3.288888806855    -0.330922941468     0.000582437693     1.007825032230
         H            2.465541806855    -1.849164941468     0.001018437693     1.007825032230

  Basis Set: AUG-CC-PVTZ
    Blend: AUG-CC-PVTZ
  Basis Set: (AUG-CC-PVTZ AUX)
    Blend: AUG-CC-PVTZ-JKFIT
	 Reference Energy          =    -392.7156251671510745 [Eh]
	 Singles Energy            =      -0.0000000000000000 [Eh]
	 Same-Spin Energy          =      -0.4066512591912896 [Eh]
	 Opposite-Spin Energy      =      -1.2136960020684961 [Eh]
	 Correlation Energy        =      -1.6203472612597858 [Eh]
	 Total Energy              =    -394.3359724284108552 [Eh]

	 ================> DF-SCS-MP2 Energies <==================
	-----------------------------------------------------------
	 SCS Same-Spin Scale       =       0.3333333333333333 [-]
	 SCS Opposite-Spin Scale   =       1.2000000000000000 [-]
	 SCS Same-Spin Energy      =      -0.1355504197304299 [Eh]
	 SCS Opposite-Spin Energy  =      -1.4564352024821954 [Eh]
	 SCS Correlation Energy    =      -1.5919856222126252 [Eh]
	 SCS Total Energy          =    -394.3076107893637072 [Eh]
	-----------------------------------------------------------

  Dipole Moment: [D]
     X:     8.1576      Y:    -0.8822      Z:     0.0030     Total:     8.2052

*** Psi4 exiting successfully. Buy a developer a beer!
