                               Psi4 1.3.2 release

  ==> Input File <==

--------------------------------------------------------------------------
#psi4
#
memory 32 gb

molecule  {
0 1
  O       -2.2334690    -1.1675340     0.0001340
  N        0.0265130    -0.9084710    -0.0000270
  N        2.3659931    -0.8267526    -0.0005360
  N       -1.3973450     1.0028810     0.0002180
  C        1.1706060    -0.1768690    -0.0001310
  C        1.0385970     1.1986830    -0.0000890
  C       -1.2978830    -0.3751090     0.0001540
  C       -0.2757380     1.7018570     0.0000510
  H        0.0506260    -1.9247470    -0.0002200
  H        1.9024710     1.8518520    -0.0001620
  H       -0.4079780     2.7850560     0.0002120
  H        3.2235170    -0.3366370     0.0005700
  H        2.4001700    -1.8548790     0.0010060
units angstrom
no_reorient  #important for SAPT in psi4, default
symmetry c1  #important for SAPT in psi4, default
}

set PROPERTIES_ORIGIN ["COM"]
properties('MP2/aug-cc-pvtz', properties = ['dipole'])
--------------------------------------------------------------------------

    Molecular point group: c1
  Charge       = 0
  Multiplicity = 1
  Basis Set: AUG-CC-PVTZ
    Blend: AUG-CC-PVTZ
  Basis Set: (AUG-CC-PVTZ AUX)
    Blend: AUG-CC-PVTZ-JKFIT

    Orbital Energies [Eh]
    ---------------------

    Doubly Occupied:

       1A    -20.509491     2A    -15.633018     3A    -15.629171
       4A    -15.545473     5A    -11.384205     6A    -11.376001
       7A    -11.308453     8A    -11.231819     9A     -1.388835
      10A     -1.323147    11A     -1.243221    12A     -1.199722
      13A     -1.056919    14A     -0.909205    15A     -0.884864
      16A     -0.780953    17A     -0.754971    18A     -0.725355
      19A     -0.690115    20A     -0.638647    21A     -0.635511
      22A     -0.620109    23A     -0.568934    24A     -0.548018
      25A     -0.460026    26A     -0.447632    27A     -0.442667
      28A     -0.415351    29A     -0.325187

  @DF-RHF Final Energy:  -392.75039769994538

   => Energetics <=

    Nuclear Repulsion Energy =            355.1556937617987728
    One-Electron Energy =               -1238.4581411051390205
    Two-Electron Energy =                 490.5520496433948097
    Total Energy =                       -392.7503976999453812
  Basis Set: (AUG-CC-PVTZ AUX)
    Blend: AUG-CC-PVTZ-RI
    Molecular point group: c1

    Geometry (in Angstrom), charge = 0, multiplicity = 1:

       Center              X                  Y                   Z               Mass
    ------------   -----------------  -----------------  -----------------  -----------------
         O           -2.170998345043    -1.165533057283     0.000147064638    15.994914619570
         N            0.088983654957    -0.906470057283    -0.000013935362    14.003074004430
         N            2.428463754957    -0.824751657283    -0.000522935362    14.003074004430
         N           -1.334874345043     1.004881942717     0.000231064638    14.003074004430
         C            1.233076654957    -0.174868057283    -0.000117935362    12.000000000000
         C            1.101067654957     1.200683942717    -0.000075935362    12.000000000000
         C           -1.235412345043    -0.373108057283     0.000167064638    12.000000000000
         C           -0.213267345043     1.703857942717     0.000064064638    12.000000000000
         H            0.113096654957    -1.922746057283    -0.000206935362     1.007825032230
         H            1.964941654957     1.853852942717    -0.000148935362     1.007825032230
         H           -0.345507345043     2.787056942717     0.000225064638     1.007825032230
         H            3.285987654957    -0.334636057283     0.000583064638     1.007825032230
         H            2.462640654957    -1.852878057283     0.001019064638     1.007825032230

  Basis Set: AUG-CC-PVTZ
    Blend: AUG-CC-PVTZ
  Basis Set: (AUG-CC-PVTZ AUX)
    Blend: AUG-CC-PVTZ-JKFIT
	 Reference Energy          =    -392.7503976999453812 [Eh]
	 Singles Energy            =      -0.0000000000000000 [Eh]
	 Same-Spin Energy          =      -0.4068690998491015 [Eh]
	 Opposite-Spin Energy      =      -1.2141221646390958 [Eh]
	 Correlation Energy        =      -1.6209912644881972 [Eh]
	 Total Energy              =    -394.3713889644336064 [Eh]

	 ================> DF-SCS-MP2 Energies <==================
	-----------------------------------------------------------
	 SCS Same-Spin Scale       =       0.3333333333333333 [-]
	 SCS Opposite-Spin Scale   =       1.2000000000000000 [-]
	 SCS Same-Spin Energy      =      -0.1356230332830338 [Eh]
	 SCS Opposite-Spin Energy  =      -1.4569465975669149 [Eh]
	 SCS Correlation Energy    =      -1.5925696308499488 [Eh]
	 SCS Total Energy          =    -394.3429673307953180 [Eh]
	-----------------------------------------------------------

  Dipole Moment: [D]
     X:     8.1336      Y:    -0.8950      Z:     0.0030     Total:     8.1827

*** Psi4 exiting successfully. Buy a developer a beer!
