                               Psi4 1.4a3.dev225

  ==> Input File <==

--------------------------------------------------------------------------
#psi4
#
memory 32 gb

molecule  {
0 1
  O        2.2358750    -1.1647400    -0.0019990
  N       -0.0266920    -0.9090020    -0.0014130
  N       -2.3606070    -0.8668920    -0.0783920
  N        1.3942980     1.0030250     0.0093070
  C       -1.1689180    -0.1740660     0.0003700
  C       -1.0400980     1.1965590     0.0002140
  C        1.2955060    -0.3793770     0.0033320
  C        0.2772380     1.7038820     0.0017870
  H       -0.0625232    -1.9730019    -0.0717545
  H       -1.9045160     1.8491770     0.0118680
  H        0.4106550     2.7868440     0.0040290
  H       -3.1798030    -0.3063160     0.1264620
  H       -2.3838550    -1.7605480     0.4013470
units angstrom
no_reorient  #important for SAPT in psi4, default
symmetry c1  #important for SAPT in psi4, default
}

set PROPERTIES_ORIGIN ["COM"]
properties('MP2/aug-cc-pvtz', properties = ['dipole'])
--------------------------------------------------------------------------

    Molecular point group: c1
  Charge       = 0
  Multiplicity = 1
  Basis Set: AUG-CC-PVTZ
    Blend: AUG-CC-PVTZ
  Basis Set: (AUG-CC-PVTZ AUX)
    Blend: AUG-CC-PVTZ-JKFIT

    Orbital Energies [Eh]
    ---------------------

    Doubly Occupied:

       1A    -20.512146     2A    -15.638071     3A    -15.626519
       4A    -15.551951     5A    -11.381076     6A    -11.378582
       7A    -11.312613     8A    -11.237343     9A     -1.390084
      10A     -1.321547    11A     -1.243683    12A     -1.198040
      13A     -1.059062    14A     -0.905966    15A     -0.883343
      16A     -0.771118    17A     -0.746977    18A     -0.711016
      19A     -0.687585    20A     -0.645644    21A     -0.629279
      22A     -0.622513    23A     -0.572937    24A     -0.547361
      25A     -0.463561    26A     -0.451255    27A     -0.447942
      28A     -0.418361    29A     -0.331369

  @DF-RHF Final Energy:  -392.74718552720583

   => Energetics <=

    Nuclear Repulsion Energy =            354.6770480787854467
    One-Electron Energy =               -1237.4745811571212926
    Two-Electron Energy =                 490.0503475511300167
    Total Energy =                       -392.7471855272058292
  Basis Set: (AUG-CC-PVTZ AUX)
    Blend: AUG-CC-PVTZ-RI
    Molecular point group: c1

    Geometry (in Angstrom), charge = 0, multiplicity = 1:

       Center              X                  Y                   Z               Mass
    ------------   -----------------  -----------------  -----------------  -----------------
         O            2.172417367704    -1.158547254824     0.002279350637    15.994914619570
         N           -0.090149632296    -0.902809254824     0.002865350637    14.003074004430
         N           -2.424064632296    -0.860699254824    -0.074113649363    14.003074004430
         N            1.330840367704     1.009217745176     0.013585350637    14.003074004430
         C           -1.232375632296    -0.167873254824     0.004648350637    12.000000000000
         C           -1.103555632296     1.202751745176     0.004492350637    12.000000000000
         C            1.232048367704    -0.373184254824     0.007610350637    12.000000000000
         C            0.213780367704     1.710074745176     0.006065350637    12.000000000000
         H           -0.125980832296    -1.966809154824    -0.067476149363     1.007825032230
         H           -1.967973632296     1.855369745176     0.016146350637     1.007825032230
         H            0.347197367704     2.793036745176     0.008307350637     1.007825032230
         H           -3.243260632296    -0.300123254824     0.130740350637     1.007825032230
         H           -2.447312632296    -1.754355254824     0.405625350637     1.007825032230

  Basis Set: AUG-CC-PVTZ
    Blend: AUG-CC-PVTZ
  Basis Set: (AUG-CC-PVTZ AUX)
    Blend: AUG-CC-PVTZ-JKFIT
	 Reference Energy          =    -392.7471855272058292 [Eh]
	 Singles Energy            =      -0.0000000000000000 [Eh]
	 Same-Spin Energy          =      -0.4072601126413435 [Eh]
	 Opposite-Spin Energy      =      -1.2159316212927247 [Eh]
	 Correlation Energy        =      -1.6231917339340682 [Eh]
	 Total Energy              =    -394.3703772611398790 [Eh]

	 ================> DF-SCS-MP2 Energies <==================
	-----------------------------------------------------------
	 SCS Same-Spin Scale       =       0.3333333333333333 [-]
	 SCS Opposite-Spin Scale   =       1.2000000000000000 [-]
	 SCS Same-Spin Energy      =      -0.1357533708804478 [Eh]
	 SCS Opposite-Spin Energy  =      -1.4591179455512695 [Eh]
	 SCS Correlation Energy    =      -1.5948713164317174 [Eh]
	 SCS Total Energy          =    -394.3420568436375220 [Eh]
	-----------------------------------------------------------

  Dipole Moment: [D]
     X:    -7.5953      Y:    -0.4592      Z:     0.8571     Total:     7.6573

*** Psi4 exiting successfully. Buy a developer a beer!
