                               Psi4 1.3.2 release

  ==> Input File <==

--------------------------------------------------------------------------
#psi4
#
memory 32 gb

molecule  {
0 1
  O       -2.2334690    -1.1675340     0.0001340
  N        0.0265130    -0.9084710    -0.0000270
  N        2.3544690    -0.8475160    -0.0005320
  N       -1.3973450     1.0028810     0.0002180
  C        1.1706060    -0.1768690    -0.0001310
  C        1.0385970     1.1986830    -0.0000890
  C       -1.3460347    -0.3777407     0.0001621
  C       -0.2757380     1.7018570     0.0000510
  H        0.0506260    -1.9247470    -0.0002200
  H        1.9024710     1.8518520    -0.0001620
  H       -0.4079780     2.7850560     0.0002120
  H        3.2235170    -0.3366370     0.0005700
  H        2.4001700    -1.8548790     0.0010060
units angstrom
no_reorient  #important for SAPT in psi4, default
symmetry c1  #important for SAPT in psi4, default
}

set PROPERTIES_ORIGIN ["COM"]
properties('MP2/aug-cc-pvtz', properties = ['dipole'])
--------------------------------------------------------------------------

    Molecular point group: c1
  Charge       = 0
  Multiplicity = 1
  Basis Set: AUG-CC-PVTZ
    Blend: AUG-CC-PVTZ
  Basis Set: (AUG-CC-PVTZ AUX)
    Blend: AUG-CC-PVTZ-JKFIT

    Orbital Energies [Eh]
    ---------------------

    Doubly Occupied:

       1A    -20.519853     2A    -15.625458     3A    -15.623167
       4A    -15.541896     5A    -11.380069     6A    -11.377282
       7A    -11.307825     8A    -11.228472     9A     -1.407338
      10A     -1.324602    11A     -1.240574    12A     -1.191112
      13A     -1.054107    14A     -0.906488    15A     -0.873858
      16A     -0.778891    17A     -0.749885    18A     -0.714567
      19A     -0.690151    20A     -0.639088    21A     -0.633598
      22A     -0.625744    23A     -0.573474    24A     -0.555074
      25A     -0.461443    26A     -0.458711    27A     -0.441373
      28A     -0.408760    29A     -0.324162

  @DF-RHF Final Energy:  -392.75048520312436

   => Energetics <=

    Nuclear Repulsion Energy =            354.9352809487133413
    One-Electron Energy =               -1238.0574898640531956
    Two-Electron Energy =                 490.3717237122154415
    Total Energy =                       -392.7504852031243558
  Basis Set: (AUG-CC-PVTZ AUX)
    Blend: AUG-CC-PVTZ-RI
    Molecular point group: c1

    Geometry (in Angstrom), charge = 0, multiplicity = 1:

       Center              X                  Y                   Z               Mass
    ------------   -----------------  -----------------  -----------------  -----------------
         O           -2.164341541080    -1.162630298290     0.000145684884    15.994914619570
         N            0.095640458920    -0.903567298290    -0.000015315116    14.003074004430
         N            2.423596458920    -0.842612298290    -0.000520315116    14.003074004430
         N           -1.328217541080     1.007784701710     0.000229684884    14.003074004430
         C            1.239733458920    -0.171965298290    -0.000119315116    12.000000000000
         C            1.107724458920     1.203586701710    -0.000077315116    12.000000000000
         C           -1.276907241080    -0.372836998290     0.000173784884    12.000000000000
         C           -0.206610541080     1.706760701710     0.000062684884    12.000000000000
         H            0.119753458920    -1.919843298290    -0.000208315116     1.007825032230
         H            1.971598458920     1.856755701710    -0.000150315116     1.007825032230
         H           -0.338850541080     2.789959701710     0.000223684884     1.007825032230
         H            3.292644458920    -0.331733298290     0.000581684884     1.007825032230
         H            2.469297458920    -1.849975298290     0.001017684884     1.007825032230

  Basis Set: AUG-CC-PVTZ
    Blend: AUG-CC-PVTZ
  Basis Set: (AUG-CC-PVTZ AUX)
    Blend: AUG-CC-PVTZ-JKFIT
	 Reference Energy          =    -392.7504852031243558 [Eh]
	 Singles Energy            =      -0.0000000000000000 [Eh]
	 Same-Spin Energy          =      -0.4062908691145639 [Eh]
	 Opposite-Spin Energy      =      -1.2129658516594830 [Eh]
	 Correlation Energy        =      -1.6192567207740469 [Eh]
	 Total Energy              =    -394.3697419238984025 [Eh]

	 ================> DF-SCS-MP2 Energies <==================
	-----------------------------------------------------------
	 SCS Same-Spin Scale       =       0.3333333333333333 [-]
	 SCS Opposite-Spin Scale   =       1.2000000000000000 [-]
	 SCS Same-Spin Energy      =      -0.1354302897048546 [Eh]
	 SCS Opposite-Spin Energy  =      -1.4555590219913797 [Eh]
	 SCS Correlation Energy    =      -1.5909893116962341 [Eh]
	 SCS Total Energy          =    -394.3414745148206180 [Eh]
	-----------------------------------------------------------

  Dipole Moment: [D]
     X:     7.7013      Y:    -1.0335      Z:     0.0031     Total:     7.7703

*** Psi4 exiting successfully. Buy a developer a beer!
