                               Psi4 1.4a3.dev225

  ==> Input File <==

--------------------------------------------------------------------------
#psi4
#
memory 32 gb

molecule  {
0 1
  O        2.2358750    -1.1647400    -0.0019990
  N       -0.0266920    -0.9090020    -0.0014130
  N       -2.3606070    -0.8668920    -0.0783920
  N        1.3942980     1.0030250     0.0093070
  C       -1.1689180    -0.1740660     0.0003700
  C       -1.0400980     1.1965590     0.0002140
  C        1.2940804    -0.3993259     0.0032458
  C        0.2772380     1.7038820     0.0017870
  H       -0.0608440    -1.9231390    -0.0684580
  H       -1.9045160     1.8491770     0.0118680
  H        0.4106550     2.7868440     0.0040290
  H       -3.1798030    -0.3063160     0.1264620
  H       -2.3838550    -1.7605480     0.4013470
units angstrom
no_reorient  #important for SAPT in psi4, default
symmetry c1  #important for SAPT in psi4, default
}

set PROPERTIES_ORIGIN ["COM"]
properties('MP2/aug-cc-pvtz', properties = ['dipole'])
--------------------------------------------------------------------------

    Molecular point group: c1
  Charge       = 0
  Multiplicity = 1
  Basis Set: AUG-CC-PVTZ
    Blend: AUG-CC-PVTZ
  Basis Set: (AUG-CC-PVTZ AUX)
    Blend: AUG-CC-PVTZ-JKFIT

    Orbital Energies [Eh]
    ---------------------

    Doubly Occupied:

       1A    -20.516034     2A    -15.634407     3A    -15.626261
       4A    -15.551659     5A    -11.380583     6A    -11.378989
       7A    -11.310195     8A    -11.236344     9A     -1.397667
      10A     -1.325843    11A     -1.242734    12A     -1.199536
      13A     -1.058361    14A     -0.906388    15A     -0.885572
      16A     -0.775744    17A     -0.747529    18A     -0.715809
      19A     -0.687335    20A     -0.646114    21A     -0.629853
      22A     -0.627423    23A     -0.574304    24A     -0.548728
      25A     -0.464395    26A     -0.454754    27A     -0.450130
      28A     -0.416322    29A     -0.330593

  @DF-RHF Final Energy:  -392.75094894415338

   => Energetics <=

    Nuclear Repulsion Energy =            354.9671529682913160
    One-Electron Energy =               -1237.9969974498906140
    Two-Electron Energy =                 490.2788955374459192
    Total Energy =                       -392.7509489441533788
  Basis Set: (AUG-CC-PVTZ AUX)
    Blend: AUG-CC-PVTZ-RI
    Molecular point group: c1

    Geometry (in Angstrom), charge = 0, multiplicity = 1:

       Center              X                  Y                   Z               Mass
    ------------   -----------------  -----------------  -----------------  -----------------
         O            2.172556186215    -1.156844011257     0.002258746998    15.994914619570
         N           -0.090010813785    -0.901106011257     0.002844746998    14.003074004430
         N           -2.423925813785    -0.858996011257    -0.074134253002    14.003074004430
         N            1.330979186215     1.010920988743     0.013564746998    14.003074004430
         C           -1.232236813785    -0.166170011257     0.004627746998    12.000000000000
         C           -1.103416813785     1.204454988743     0.004471746998    12.000000000000
         C            1.230761586215    -0.391429911257     0.007503546998    12.000000000000
         C            0.213919186215     1.711777988743     0.006044746998    12.000000000000
         H           -0.124162813785    -1.915243011257    -0.064200253002     1.007825032230
         H           -1.967834813785     1.857072988743     0.016125746998     1.007825032230
         H            0.347336186215     2.794739988743     0.008286746998     1.007825032230
         H           -3.243121813785    -0.298420011257     0.130719746998     1.007825032230
         H           -2.447173813785    -1.752652011257     0.405604746998     1.007825032230

  Basis Set: AUG-CC-PVTZ
    Blend: AUG-CC-PVTZ
  Basis Set: (AUG-CC-PVTZ AUX)
    Blend: AUG-CC-PVTZ-JKFIT
	 Reference Energy          =    -392.7509489441533788 [Eh]
	 Singles Energy            =      -0.0000000000000000 [Eh]
	 Same-Spin Energy          =      -0.4065881935015388 [Eh]
	 Opposite-Spin Energy      =      -1.2148767235869213 [Eh]
	 Correlation Energy        =      -1.6214649170884601 [Eh]
	 Total Energy              =    -394.3724138612418528 [Eh]

	 ================> DF-SCS-MP2 Energies <==================
	-----------------------------------------------------------
	 SCS Same-Spin Scale       =       0.3333333333333333 [-]
	 SCS Opposite-Spin Scale   =       1.2000000000000000 [-]
	 SCS Same-Spin Energy      =      -0.1355293978338463 [Eh]
	 SCS Opposite-Spin Energy  =      -1.4578520683043055 [Eh]
	 SCS Correlation Energy    =      -1.5933814661381518 [Eh]
	 SCS Total Energy          =    -394.3443304102915477 [Eh]
	-----------------------------------------------------------

  Dipole Moment: [D]
     X:    -7.5081      Y:    -0.5120      Z:     0.8620     Total:     7.5748

*** Psi4 exiting successfully. Buy a developer a beer!
