                               Psi4 1.3.2 release

  ==> Input File <==

--------------------------------------------------------------------------
#psi4
#
memory 32 gb

molecule  {
0 1
  O       -2.2334690    -1.1675340     0.0001340
  N       -0.0436928    -0.7848729    -0.0000172
  N        2.3544690    -0.8475160    -0.0005320
  N       -1.3973450     1.0028810     0.0002180
  C        1.1706060    -0.1768690    -0.0001310
  C        1.0385970     1.1986830    -0.0000890
  C       -1.2978830    -0.3751090     0.0001540
  C       -0.2757380     1.7018570     0.0000510
  H        0.0506260    -1.9247470    -0.0002200
  H        1.9024710     1.8518520    -0.0001620
  H       -0.4079780     2.7850560     0.0002120
  H        3.2235170    -0.3366370     0.0005700
  H        2.4001700    -1.8548790     0.0010060
units angstrom
no_reorient  #important for SAPT in psi4, default
symmetry c1  #important for SAPT in psi4, default
}

set PROPERTIES_ORIGIN ["COM"]
properties('MP2/aug-cc-pvtz', properties = ['dipole'])
--------------------------------------------------------------------------

    Molecular point group: c1
  Charge       = 0
  Multiplicity = 1
  Basis Set: AUG-CC-PVTZ
    Blend: AUG-CC-PVTZ
  Basis Set: (AUG-CC-PVTZ AUX)
    Blend: AUG-CC-PVTZ-JKFIT

    Orbital Energies [Eh]
    ---------------------

    Doubly Occupied:

       1A    -20.498875     2A    -15.644821     3A    -15.636916
       4A    -15.541864     5A    -11.387562     6A    -11.364174
       7A    -11.304123     8A    -11.233610     9A     -1.399157
      10A     -1.322630    11A     -1.254557    12A     -1.194734
      13A     -1.064996    14A     -0.915213    15A     -0.894877
      16A     -0.788740    17A     -0.754020    18A     -0.714751
      19A     -0.685395    20A     -0.653428    21A     -0.628953
      22A     -0.617591    23A     -0.555913    24A     -0.551935
      25A     -0.458246    26A     -0.441483    27A     -0.441479
      28A     -0.411039    29A     -0.325661

  @DF-RHF Final Energy:  -392.72182879027537

   => Energetics <=

    Nuclear Repulsion Energy =            357.4744194860631978
    One-Electron Energy =               -1243.0190076024196060
    Two-Electron Energy =                 492.8227593260810409
    Total Energy =                       -392.7218287902753673
  Basis Set: (AUG-CC-PVTZ AUX)
    Blend: AUG-CC-PVTZ-RI
    Molecular point group: c1

    Geometry (in Angstrom), charge = 0, multiplicity = 1:

       Center              X                  Y                   Z               Mass
    ------------   -----------------  -----------------  -----------------  -----------------
         O           -2.160691822886    -1.178500993303     0.000145324393    15.994914619570
         N            0.029084377114    -0.795839893303    -0.000005875607    14.003074004430
         N            2.427246177114    -0.858482993303    -0.000520675607    14.003074004430
         N           -1.324567822886     0.991914006697     0.000229324393    14.003074004430
         C            1.243383177114    -0.187835993303    -0.000119675607    12.000000000000
         C            1.111374177114     1.187716006697    -0.000077675607    12.000000000000
         C           -1.225105822886    -0.386075993303     0.000165324393    12.000000000000
         C           -0.202960822886     1.690890006697     0.000062324393    12.000000000000
         H            0.123403177114    -1.935713993303    -0.000208675607     1.007825032230
         H            1.975248177114     1.840885006697    -0.000150675607     1.007825032230
         H           -0.335200822886     2.774089006697     0.000223324393     1.007825032230
         H            3.296294177114    -0.347603993303     0.000581324393     1.007825032230
         H            2.472947177114    -1.865845993303     0.001017324393     1.007825032230

  Basis Set: AUG-CC-PVTZ
    Blend: AUG-CC-PVTZ
  Basis Set: (AUG-CC-PVTZ AUX)
    Blend: AUG-CC-PVTZ-JKFIT
	 Reference Energy          =    -392.7218287902753673 [Eh]
	 Singles Energy            =      -0.0000000000000000 [Eh]
	 Same-Spin Energy          =      -0.4092517350814554 [Eh]
	 Opposite-Spin Energy      =      -1.2176040823982506 [Eh]
	 Correlation Energy        =      -1.6268558174797061 [Eh]
	 Total Energy              =    -394.3486846077550467 [Eh]

	 ================> DF-SCS-MP2 Energies <==================
	-----------------------------------------------------------
	 SCS Same-Spin Scale       =       0.3333333333333333 [-]
	 SCS Opposite-Spin Scale   =       1.2000000000000000 [-]
	 SCS Same-Spin Energy      =      -0.1364172450271518 [Eh]
	 SCS Opposite-Spin Energy  =      -1.4611248988779006 [Eh]
	 SCS Correlation Energy    =      -1.5975421439050526 [Eh]
	 SCS Total Energy          =    -394.3193709341804265 [Eh]
	-----------------------------------------------------------

  Dipole Moment: [D]
     X:     8.5775      Y:    -0.9031      Z:     0.0030     Total:     8.6249

*** Psi4 exiting successfully. Buy a developer a beer!
