                               Psi4 1.4a3.dev225

  ==> Input File <==

--------------------------------------------------------------------------
#psi4
#
memory 32 gb

molecule  {
0 1
  O        2.2358750    -1.1647400    -0.0019990
  N       -0.0266920    -0.9090020    -0.0014130
  N       -2.3606070    -0.8668920    -0.0783920
  N        1.3942980     1.0030250     0.0093070
  C       -1.1689180    -0.1740660     0.0003700
  C       -1.0400980     1.1965590     0.0002140
  C        1.2955060    -0.3793770     0.0033320
  C        0.2772380     1.7038820     0.0017870
  H       -0.0608440    -1.9231390    -0.0684580
  H       -1.9045160     1.8491770     0.0118680
  H        0.4045414     2.7372193     0.0039263
  H       -3.1798030    -0.3063160     0.1264620
  H       -2.3838550    -1.7605480     0.4013470
units angstrom
no_reorient  #important for SAPT in psi4, default
symmetry c1  #important for SAPT in psi4, default
}

set PROPERTIES_ORIGIN ["COM"]
properties('MP2/aug-cc-pvtz', properties = ['dipole'])
--------------------------------------------------------------------------

    Molecular point group: c1
  Charge       = 0
  Multiplicity = 1
  Basis Set: AUG-CC-PVTZ
    Blend: AUG-CC-PVTZ
  Basis Set: (AUG-CC-PVTZ AUX)
    Blend: AUG-CC-PVTZ-JKFIT

    Orbital Energies [Eh]
    ---------------------

    Doubly Occupied:

       1A    -20.512415     2A    -15.634028     3A    -15.626719
       4A    -15.551645     5A    -11.381126     6A    -11.378447
       7A    -11.307199     8A    -11.237144     9A     -1.391356
      10A     -1.322884    11A     -1.244172    12A     -1.201733
      13A     -1.060192    14A     -0.914214    15A     -0.884190
      16A     -0.775625    17A     -0.750120    18A     -0.718906
      19A     -0.690147    20A     -0.648656    21A     -0.630844
      22A     -0.623530    23A     -0.577490    24A     -0.547609
      25A     -0.463705    26A     -0.451639    27A     -0.448526
      28A     -0.419239    29A     -0.331437

  @DF-RHF Final Energy:  -392.75029460491510

   => Energetics <=

    Nuclear Repulsion Energy =            355.2429722536586496
    One-Electron Energy =               -1238.5366593109204132
    Two-Electron Energy =                 490.5433924523466658
    Total Energy =                       -392.7502946049150978
  Basis Set: (AUG-CC-PVTZ AUX)
    Blend: AUG-CC-PVTZ-RI
    Molecular point group: c1

    Geometry (in Angstrom), charge = 0, multiplicity = 1:

       Center              X                  Y                   Z               Mass
    ------------   -----------------  -----------------  -----------------  -----------------
         O            2.172457614174    -1.158549416719     0.002250363812    15.994914619570
         N           -0.090109385826    -0.902811416719     0.002836363812    14.003074004430
         N           -2.424024385826    -0.860701416719    -0.074142636188    14.003074004430
         N            1.330880614174     1.009215583281     0.013556363812    14.003074004430
         C           -1.232335385826    -0.167875416719     0.004619363812    12.000000000000
         C           -1.103515385826     1.202749583281     0.004463363812    12.000000000000
         C            1.232088614174    -0.373186416719     0.007581363812    12.000000000000
         C            0.213820614174     1.710072583281     0.006036363812    12.000000000000
         H           -0.124261385826    -1.916948416719    -0.064208636188     1.007825032230
         H           -1.967933385826     1.855367583281     0.016117363812     1.007825032230
         H            0.341124014174     2.743409883281     0.008175663812     1.007825032230
         H           -3.243220385826    -0.300125416719     0.130711363812     1.007825032230
         H           -2.447272385826    -1.754357416719     0.405596363812     1.007825032230

  Basis Set: AUG-CC-PVTZ
    Blend: AUG-CC-PVTZ
  Basis Set: (AUG-CC-PVTZ AUX)
    Blend: AUG-CC-PVTZ-JKFIT
	 Reference Energy          =    -392.7502946049150978 [Eh]
	 Singles Energy            =      -0.0000000000000000 [Eh]
	 Same-Spin Energy          =      -0.4066961203501505 [Eh]
	 Opposite-Spin Energy      =      -1.2146639084707775 [Eh]
	 Correlation Energy        =      -1.6213600288209280 [Eh]
	 Total Energy              =    -394.3716546337360001 [Eh]

	 ================> DF-SCS-MP2 Energies <==================
	-----------------------------------------------------------
	 SCS Same-Spin Scale       =       0.3333333333333333 [-]
	 SCS Opposite-Spin Scale   =       1.2000000000000000 [-]
	 SCS Same-Spin Energy      =      -0.1355653734500502 [Eh]
	 SCS Opposite-Spin Energy  =      -1.4575966901649331 [Eh]
	 SCS Correlation Energy    =      -1.5931620636149832 [Eh]
	 SCS Total Energy          =    -394.3434566685301093 [Eh]
	-----------------------------------------------------------

  Dipole Moment: [D]
     X:    -7.6054      Y:    -0.3840      Z:     0.8617     Total:     7.6637

*** Psi4 exiting successfully. Buy a developer a beer!
