                               Psi4 1.3.2 release

  ==> Input File <==

--------------------------------------------------------------------------
#psi4
#
memory 32 gb

molecule  {
0 1
  O       -2.2334690    -1.1675340     0.0001340
  N        0.0265130    -0.9084710    -0.0000270
  N        2.3544690    -0.8475160    -0.0005320
  N       -1.3973450     1.0028810     0.0002180
  C        1.1443765    -0.1373864    -0.0001261
  C        1.0385970     1.1986830    -0.0000890
  C       -1.2978830    -0.3751090     0.0001540
  C       -0.2757380     1.7018570     0.0000510
  H        0.0506260    -1.9247470    -0.0002200
  H        1.9024710     1.8518520    -0.0001620
  H       -0.4079780     2.7850560     0.0002120
  H        3.2235170    -0.3366370     0.0005700
  H        2.4001700    -1.8548790     0.0010060
units angstrom
no_reorient  #important for SAPT in psi4, default
symmetry c1  #important for SAPT in psi4, default
}

set PROPERTIES_ORIGIN ["COM"]
properties('MP2/aug-cc-pvtz', properties = ['dipole'])
--------------------------------------------------------------------------

    Molecular point group: c1
  Charge       = 0
  Multiplicity = 1
  Basis Set: AUG-CC-PVTZ
    Blend: AUG-CC-PVTZ
  Basis Set: (AUG-CC-PVTZ AUX)
    Blend: AUG-CC-PVTZ-JKFIT

    Orbital Energies [Eh]
    ---------------------

    Doubly Occupied:

       1A    -20.510884     2A    -15.631211     3A    -15.619649
       4A    -15.551569     5A    -11.379962     6A    -11.376779
       7A    -11.313620     8A    -11.233033     9A     -1.389761
      10A     -1.316259    11A     -1.236887    12A     -1.196028
      13A     -1.069504    14A     -0.912288    15A     -0.880042
      16A     -0.778586    17A     -0.751068    18A     -0.712078
      19A     -0.694122    20A     -0.637506    21A     -0.636310
      22A     -0.625171    23A     -0.575983    24A     -0.541613
      25A     -0.463724    26A     -0.450504    27A     -0.439187
      28A     -0.417921    29A     -0.333373

  @DF-RHF Final Energy:  -392.74790829660094

   => Energetics <=

    Nuclear Repulsion Energy =            355.4651761988639578
    One-Electron Energy =               -1239.0769256992953160
    Two-Electron Energy =                 490.8638412038304750
    Total Energy =                       -392.7479082966009400
  Basis Set: (AUG-CC-PVTZ AUX)
    Blend: AUG-CC-PVTZ-RI
    Molecular point group: c1

    Geometry (in Angstrom), charge = 0, multiplicity = 1:

       Center              X                  Y                   Z               Mass
    ------------   -----------------  -----------------  -----------------  -----------------
         O           -2.166710585323    -1.167181421806     0.000146030696    15.994914619570
         N            0.093271414677    -0.908118421806    -0.000014969304    14.003074004430
         N            2.421227414677    -0.847163421806    -0.000519969304    14.003074004430
         N           -1.330586585323     1.003233578194     0.000230030696    14.003074004430
         C            1.211134914677    -0.137033821806    -0.000114069304    12.000000000000
         C            1.105355414677     1.199035578194    -0.000076969304    12.000000000000
         C           -1.231124585323    -0.374756421806     0.000166030696    12.000000000000
         C           -0.208979585323     1.702209578194     0.000063030696    12.000000000000
         H            0.117384414677    -1.924394421806    -0.000207969304     1.007825032230
         H            1.969229414677     1.852204578194    -0.000149969304     1.007825032230
         H           -0.341219585323     2.785408578194     0.000224030696     1.007825032230
         H            3.290275414677    -0.336284421806     0.000582030696     1.007825032230
         H            2.466928414677    -1.854526421806     0.001018030696     1.007825032230

  Basis Set: AUG-CC-PVTZ
    Blend: AUG-CC-PVTZ
  Basis Set: (AUG-CC-PVTZ AUX)
    Blend: AUG-CC-PVTZ-JKFIT
	 Reference Energy          =    -392.7479082966009400 [Eh]
	 Singles Energy            =      -0.0000000000000000 [Eh]
	 Same-Spin Energy          =      -0.4067114939775356 [Eh]
	 Opposite-Spin Energy      =      -1.2144496952533863 [Eh]
	 Correlation Energy        =      -1.6211611892309219 [Eh]
	 Total Energy              =    -394.3690694858318579 [Eh]

	 ================> DF-SCS-MP2 Energies <==================
	-----------------------------------------------------------
	 SCS Same-Spin Scale       =       0.3333333333333333 [-]
	 SCS Opposite-Spin Scale   =       1.2000000000000000 [-]
	 SCS Same-Spin Energy      =      -0.1355704979925119 [Eh]
	 SCS Opposite-Spin Energy  =      -1.4573396343040634 [Eh]
	 SCS Correlation Energy    =      -1.5929101322965753 [Eh]
	 SCS Total Energy          =    -394.3408184288975349 [Eh]
	-----------------------------------------------------------

  Dipole Moment: [D]
     X:     7.7600      Y:    -0.5684      Z:     0.0031     Total:     7.7808

*** Psi4 exiting successfully. Buy a developer a beer!
