                               Psi4 1.4a3.dev225

  ==> Input File <==

--------------------------------------------------------------------------
#psi4
#
memory 32 gb

molecule  {
0 1
  O        2.2358750    -1.1647400    -0.0019990
  N       -0.0266920    -0.9090020    -0.0014130
  N       -2.3606070    -0.8668920    -0.0783920
  N        1.3942980     1.0030250     0.0093070
  C       -1.1689180    -0.1740660     0.0003700
  C       -1.0400980     1.1965590     0.0002140
  C        1.2990701    -0.3295047     0.0035476
  C        0.2772380     1.7038820     0.0017870
  H       -0.0608440    -1.9231390    -0.0684580
  H       -1.9045160     1.8491770     0.0118680
  H        0.4106550     2.7868440     0.0040290
  H       -3.1798030    -0.3063160     0.1264620
  H       -2.3838550    -1.7605480     0.4013470
units angstrom
no_reorient  #important for SAPT in psi4, default
symmetry c1  #important for SAPT in psi4, default
}

set PROPERTIES_ORIGIN ["COM"]
properties('MP2/aug-cc-pvtz', properties = ['dipole'])
--------------------------------------------------------------------------

    Molecular point group: c1
  Charge       = 0
  Multiplicity = 1
  Basis Set: AUG-CC-PVTZ
    Blend: AUG-CC-PVTZ
  Basis Set: (AUG-CC-PVTZ AUX)
    Blend: AUG-CC-PVTZ-JKFIT

    Orbital Energies [Eh]
    ---------------------

    Doubly Occupied:

       1A    -20.503607     2A    -15.633628     3A    -15.628561
       4A    -15.552679     5A    -11.383491     6A    -11.378090
       7A    -11.319824     8A    -11.241086     9A     -1.379429
      10A     -1.314965    11A     -1.249140    12A     -1.204938
      13A     -1.064774    14A     -0.917873    15A     -0.879219
      16A     -0.775980    17A     -0.757204    18A     -0.715464
      19A     -0.689818    20A     -0.648832    21A     -0.631050
      22A     -0.615982    23A     -0.571170    24A     -0.546863
      25A     -0.462678    26A     -0.446836    27A     -0.442915
      28A     -0.421633    29A     -0.334263

  @DF-RHF Final Energy:  -392.74656113640538

   => Energetics <=

    Nuclear Repulsion Energy =            355.0221794532139938
    One-Electron Energy =               -1238.1134954403316897
    Two-Electron Energy =                 490.3447548507123201
    Total Energy =                       -392.7465611364053757
  Basis Set: (AUG-CC-PVTZ AUX)
    Blend: AUG-CC-PVTZ-RI
    Molecular point group: c1

    Geometry (in Angstrom), charge = 0, multiplicity = 1:

       Center              X                  Y                   Z               Mass
    ------------   -----------------  -----------------  -----------------  -----------------
         O            2.172016969345    -1.164389308347     0.002226132682    15.994914619570
         N           -0.090550030655    -0.908651308347     0.002812132682    14.003074004430
         N           -2.424465030655    -0.866541308347    -0.074166867318    14.003074004430
         N            1.330439969345     1.003375691653     0.013532132682    14.003074004430
         C           -1.232776030655    -0.173715308347     0.004595132682    12.000000000000
         C           -1.103956030655     1.196909691653     0.004439132682    12.000000000000
         C            1.235212069345    -0.329154008347     0.007772732682    12.000000000000
         C            0.213379969345     1.704232691653     0.006012132682    12.000000000000
         H           -0.124702030655    -1.922788308347    -0.064232867318     1.007825032230
         H           -1.968374030655     1.849527691653     0.016093132682     1.007825032230
         H            0.346796969345     2.787194691653     0.008254132682     1.007825032230
         H           -3.243661030655    -0.305965308347     0.130687132682     1.007825032230
         H           -2.447713030655    -1.760197308347     0.405572132682     1.007825032230

  Basis Set: AUG-CC-PVTZ
    Blend: AUG-CC-PVTZ
  Basis Set: (AUG-CC-PVTZ AUX)
    Blend: AUG-CC-PVTZ-JKFIT
	 Reference Energy          =    -392.7465611364053757 [Eh]
	 Singles Energy            =      -0.0000000000000000 [Eh]
	 Same-Spin Energy          =      -0.4074649359702656 [Eh]
	 Opposite-Spin Energy      =      -1.2154817004062131 [Eh]
	 Correlation Energy        =      -1.6229466363764786 [Eh]
	 Total Energy              =    -394.3695077727818443 [Eh]

	 ================> DF-SCS-MP2 Energies <==================
	-----------------------------------------------------------
	 SCS Same-Spin Scale       =       0.3333333333333333 [-]
	 SCS Opposite-Spin Scale   =       1.2000000000000000 [-]
	 SCS Same-Spin Energy      =      -0.1358216453234218 [Eh]
	 SCS Opposite-Spin Energy  =      -1.4585780404874555 [Eh]
	 SCS Correlation Energy    =      -1.5943996858108773 [Eh]
	 SCS Total Energy          =    -394.3409608222162319 [Eh]
	-----------------------------------------------------------

  Dipole Moment: [D]
     X:    -7.8394      Y:    -0.1328      Z:     0.8611     Total:     7.8877

*** Psi4 exiting successfully. Buy a developer a beer!
