                               Psi4 1.4a3.dev225

  ==> Input File <==

--------------------------------------------------------------------------
#psi4
#
memory 32 gb

molecule  {
0 1
  O        2.2358750    -1.1647400    -0.0019990
  N       -0.0266920    -0.9090020    -0.0014130
  N       -2.3606070    -0.8668920    -0.0783920
  N        1.3942980     1.0030250     0.0093070
  C       -1.1689180    -0.1740660     0.0003700
  C       -1.0400980     1.1965590     0.0002140
  C        1.2955060    -0.3793770     0.0033320
  C        0.2772380     1.7038820     0.0017870
  H       -0.0608440    -1.9231390    -0.0684580
  H       -1.9204768     1.8612271     0.0120832
  H        0.4106550     2.7868440     0.0040290
  H       -3.1798030    -0.3063160     0.1264620
  H       -2.3838550    -1.7605480     0.4013470
units angstrom
no_reorient  #important for SAPT in psi4, default
symmetry c1  #important for SAPT in psi4, default
}

set PROPERTIES_ORIGIN ["COM"]
properties('MP2/aug-cc-pvtz', properties = ['dipole'])
--------------------------------------------------------------------------

    Molecular point group: c1
  Charge       = 0
  Multiplicity = 1
  Basis Set: AUG-CC-PVTZ
    Blend: AUG-CC-PVTZ
  Basis Set: (AUG-CC-PVTZ AUX)
    Blend: AUG-CC-PVTZ-JKFIT

    Orbital Energies [Eh]
    ---------------------

    Doubly Occupied:

       1A    -20.512725     2A    -15.634310     3A    -15.626866
       4A    -15.552184     5A    -11.381549     6A    -11.378968
       7A    -11.313101     8A    -11.239851     9A     -1.391683
      10A     -1.323134    11A     -1.244263    12A     -1.201622
      13A     -1.059406    14A     -0.909419    15A     -0.883596
      16A     -0.775526    17A     -0.749062    18A     -0.715735
      19A     -0.688049    20A     -0.646118    21A     -0.629620
      22A     -0.622051    23A     -0.572780    24A     -0.547784
      25A     -0.464034    26A     -0.451878    27A     -0.448776
      28A     -0.418759    29A     -0.331785

  @DF-RHF Final Energy:  -392.75035788831360

   => Energetics <=

    Nuclear Repulsion Energy =            354.8737699795802882
    One-Electron Energy =               -1237.8189881026219155
    Two-Electron Energy =                 490.1948602347280257
    Total Energy =                       -392.7503578883136015
  Basis Set: (AUG-CC-PVTZ AUX)
    Blend: AUG-CC-PVTZ-RI
    Molecular point group: c1

    Geometry (in Angstrom), charge = 0, multiplicity = 1:

       Center              X                  Y                   Z               Mass
    ------------   -----------------  -----------------  -----------------  -----------------
         O            2.172546987041    -1.159109175198     0.002247478562    15.994914619570
         N           -0.090020012959    -0.903371175198     0.002833478562    14.003074004430
         N           -2.423935012959    -0.861261175198    -0.074145521438    14.003074004430
         N            1.330969987041     1.008655824802     0.013553478562    14.003074004430
         C           -1.232246012959    -0.168435175198     0.004616478562    12.000000000000
         C           -1.103426012959     1.202189824802     0.004460478562    12.000000000000
         C            1.232177987041    -0.373746175198     0.007578478562    12.000000000000
         C            0.213909987041     1.709512824802     0.006033478562    12.000000000000
         H           -0.124172012959    -1.917508175198    -0.064211521438     1.007825032230
         H           -1.983804812959     1.866857924802     0.016329678562     1.007825032230
         H            0.347326987041     2.792474824802     0.008275478562     1.007825032230
         H           -3.243131012959    -0.300685175198     0.130708478562     1.007825032230
         H           -2.447183012959    -1.754917175198     0.405593478562     1.007825032230

  Basis Set: AUG-CC-PVTZ
    Blend: AUG-CC-PVTZ
  Basis Set: (AUG-CC-PVTZ AUX)
    Blend: AUG-CC-PVTZ-JKFIT
	 Reference Energy          =    -392.7503578883136015 [Eh]
	 Singles Energy            =      -0.0000000000000000 [Eh]
	 Same-Spin Energy          =      -0.4068451665934953 [Eh]
	 Opposite-Spin Energy      =      -1.2151028330326634 [Eh]
	 Correlation Energy        =      -1.6219479996261588 [Eh]
	 Total Energy              =    -394.3723058879397740 [Eh]

	 ================> DF-SCS-MP2 Energies <==================
	-----------------------------------------------------------
	 SCS Same-Spin Scale       =       0.3333333333333333 [-]
	 SCS Opposite-Spin Scale   =       1.2000000000000000 [-]
	 SCS Same-Spin Energy      =      -0.1356150555311651 [Eh]
	 SCS Opposite-Spin Energy  =      -1.4581233996391960 [Eh]
	 SCS Correlation Energy    =      -1.5937384551703611 [Eh]
	 SCS Total Energy          =    -394.3440963434839546 [Eh]
	-----------------------------------------------------------

  Dipole Moment: [D]
     X:    -7.5957      Y:    -0.4052      Z:     0.8616     Total:     7.6552

*** Psi4 exiting successfully. Buy a developer a beer!
