                               Psi4 1.3.2 release

  ==> Input File <==

--------------------------------------------------------------------------
#psi4
#
memory 32 gb

molecule  {
0 1
  O       -2.2334690    -1.1675340     0.0001340
  N        0.0265130    -0.9084710    -0.0000270
  N        2.3544690    -0.8475160    -0.0005320
  N       -1.3973450     1.0028810     0.0002180
  C        1.1706060    -0.1768690    -0.0001310
  C        1.0385970     1.1986830    -0.0000890
  C       -1.2978830    -0.3751090     0.0001540
  C       -0.2757380     1.7018570     0.0000510
  H        0.0553700    -2.1246907    -0.0002580
  H        1.9024710     1.8518520    -0.0001620
  H       -0.4079780     2.7850560     0.0002120
  H        3.2235170    -0.3366370     0.0005700
  H        2.4001700    -1.8548790     0.0010060
units angstrom
no_reorient  #important for SAPT in psi4, default
symmetry c1  #important for SAPT in psi4, default
}

set PROPERTIES_ORIGIN ["COM"]
properties('MP2/aug-cc-pvtz', properties = ['dipole'])
--------------------------------------------------------------------------

    Molecular point group: c1
  Charge       = 0
  Multiplicity = 1
  Basis Set: AUG-CC-PVTZ
    Blend: AUG-CC-PVTZ
  Basis Set: (AUG-CC-PVTZ AUX)
    Blend: AUG-CC-PVTZ-JKFIT

    Orbital Energies [Eh]
    ---------------------

    Doubly Occupied:

       1A    -20.507395     2A    -15.645221     3A    -15.627375
       4A    -15.545600     5A    -11.383080     6A    -11.374681
       7A    -11.307889     8A    -11.231832     9A     -1.383629
      10A     -1.318596    11A     -1.240744    12A     -1.187574
      13A     -1.054029    14A     -0.899903    15A     -0.880651
      16A     -0.773720    17A     -0.744760    18A     -0.696837
      19A     -0.686199    20A     -0.635989    21A     -0.631878
      22A     -0.613584    23A     -0.564532    24A     -0.546310
      25A     -0.458859    26A     -0.445595    27A     -0.438822
      28A     -0.414183    29A     -0.324546

  @DF-RHF Final Energy:  -392.72135505092325

   => Energetics <=

    Nuclear Repulsion Energy =            354.0947743154278555
    One-Electron Energy =               -1236.5042385107512928
    Two-Electron Energy =                 489.6881091444001299
    Total Energy =                       -392.7213550509232505
  Basis Set: (AUG-CC-PVTZ AUX)
    Blend: AUG-CC-PVTZ-RI
    Molecular point group: c1

    Geometry (in Angstrom), charge = 0, multiplicity = 1:

       Center              X                  Y                   Z               Mass
    ------------   -----------------  -----------------  -----------------  -----------------
         O           -2.169588158593    -1.161100013038     0.000146905106    15.994914619570
         N            0.090393841407    -0.902037013038    -0.000014094894    14.003074004430
         N            2.418349841407    -0.841082013038    -0.000519094894    14.003074004430
         N           -1.333464158593     1.009314986962     0.000230905106    14.003074004430
         C            1.234486841407    -0.170435013038    -0.000118094894    12.000000000000
         C            1.102477841407     1.205116986962    -0.000076094894    12.000000000000
         C           -1.234002158593    -0.368675013038     0.000166905106    12.000000000000
         C           -0.211857158593     1.708290986962     0.000063905106    12.000000000000
         H            0.119250841407    -2.118256713038    -0.000245094894     1.007825032230
         H            1.966351841407     1.858285986962    -0.000149094894     1.007825032230
         H           -0.344097158593     2.791489986962     0.000224905106     1.007825032230
         H            3.287397841407    -0.330203013038     0.000582905106     1.007825032230
         H            2.464050841407    -1.848445013038     0.001018905106     1.007825032230

  Basis Set: AUG-CC-PVTZ
    Blend: AUG-CC-PVTZ
  Basis Set: (AUG-CC-PVTZ AUX)
    Blend: AUG-CC-PVTZ-JKFIT
	 Reference Energy          =    -392.7213550509232505 [Eh]
	 Singles Energy            =      -0.0000000000000000 [Eh]
	 Same-Spin Energy          =      -0.4087400763737668 [Eh]
	 Opposite-Spin Energy      =      -1.2184839189247278 [Eh]
	 Correlation Energy        =      -1.6272239952984946 [Eh]
	 Total Energy              =    -394.3485790462217437 [Eh]

	 ================> DF-SCS-MP2 Energies <==================
	-----------------------------------------------------------
	 SCS Same-Spin Scale       =       0.3333333333333333 [-]
	 SCS Opposite-Spin Scale   =       1.2000000000000000 [-]
	 SCS Same-Spin Energy      =      -0.1362466921245889 [Eh]
	 SCS Opposite-Spin Energy  =      -1.4621807027096734 [Eh]
	 SCS Correlation Energy    =      -1.5984273948342622 [Eh]
	 SCS Total Energy          =    -394.3197824457575393 [Eh]
	-----------------------------------------------------------

  Dipole Moment: [D]
     X:     8.1082      Y:    -1.0603      Z:     0.0030     Total:     8.1772

*** Psi4 exiting successfully. Buy a developer a beer!
