                               Psi4 1.3.2 release

  ==> Input File <==

--------------------------------------------------------------------------
#psi4
#
memory 32 gb

molecule  {
0 1
  O       -2.2334690    -1.1675340     0.0001340
  N        0.0265130    -0.9084710    -0.0000270
  N        2.3544690    -0.8475160    -0.0005320
  N       -1.3973450     1.0028810     0.0002180
  C        1.1706060    -0.1768690    -0.0001310
  C        1.0385970     1.1986830    -0.0000890
  C       -1.2978830    -0.3751090     0.0001540
  C       -0.2374367     1.7923147     0.0000490
  H        0.0506260    -1.9247470    -0.0002200
  H        1.9024710     1.8518520    -0.0001620
  H       -0.4079780     2.7850560     0.0002120
  H        3.2235170    -0.3366370     0.0005700
  H        2.4001700    -1.8548790     0.0010060
units angstrom
no_reorient  #important for SAPT in psi4, default
symmetry c1  #important for SAPT in psi4, default
}

set PROPERTIES_ORIGIN ["COM"]
properties('MP2/aug-cc-pvtz', properties = ['dipole'])
--------------------------------------------------------------------------

    Molecular point group: c1
  Charge       = 0
  Multiplicity = 1
  Basis Set: AUG-CC-PVTZ
    Blend: AUG-CC-PVTZ
  Basis Set: (AUG-CC-PVTZ AUX)
    Blend: AUG-CC-PVTZ-JKFIT

    Orbital Energies [Eh]
    ---------------------

    Doubly Occupied:

       1A    -20.503072     2A    -15.632813     3A    -15.632768
       4A    -15.544079     5A    -11.389679     6A    -11.370856
       7A    -11.314745     8A    -11.238400     9A     -1.383373
      10A     -1.323317    11A     -1.234456    12A     -1.180104
      13A     -1.057875    14A     -0.921965    15A     -0.880283
      16A     -0.784545    17A     -0.751706    18A     -0.728562
      19A     -0.691718    20A     -0.646535    21A     -0.636359
      22A     -0.616456    23A     -0.575073    24A     -0.545286
      25A     -0.447830    26A     -0.440460    27A     -0.437323
      28A     -0.410799    29A     -0.322438

  @DF-RHF Final Energy:  -392.73396216954944

   => Energetics <=

    Nuclear Repulsion Energy =            353.4313096905944462
    One-Electron Energy =               -1235.0447959753510077
    Two-Electron Energy =                 488.8795241152071753
    Total Energy =                       -392.7339621695494429
  Basis Set: (AUG-CC-PVTZ AUX)
    Blend: AUG-CC-PVTZ-RI
    Molecular point group: c1

    Geometry (in Angstrom), charge = 0, multiplicity = 1:

       Center              X                  Y                   Z               Mass
    ------------   -----------------  -----------------  -----------------  -----------------
         O           -2.173684170099    -1.172690096444     0.000146776351    15.994914619570
         N            0.086297829901    -0.913627096444    -0.000014223649    14.003074004430
         N            2.414253829901    -0.852672096444    -0.000519223649    14.003074004430
         N           -1.337560170099     0.997724903556     0.000230776351    14.003074004430
         C            1.230390829901    -0.182025096444    -0.000118223649    12.000000000000
         C            1.098381829901     1.193526903556    -0.000076223649    12.000000000000
         C           -1.238098170099    -0.380265096444     0.000166776351    12.000000000000
         C           -0.177651870099     1.787158603556     0.000061776351    12.000000000000
         H            0.110410829901    -1.929903096444    -0.000207223649     1.007825032230
         H            1.962255829901     1.846695903556    -0.000149223649     1.007825032230
         H           -0.348193170099     2.779899903556     0.000224776351     1.007825032230
         H            3.283301829901    -0.341793096444     0.000582776351     1.007825032230
         H            2.459954829901    -1.860035096444     0.001018776351     1.007825032230

  Basis Set: AUG-CC-PVTZ
    Blend: AUG-CC-PVTZ
  Basis Set: (AUG-CC-PVTZ AUX)
    Blend: AUG-CC-PVTZ-JKFIT
	 Reference Energy          =    -392.7339621695494429 [Eh]
	 Singles Energy            =      -0.0000000000000000 [Eh]
	 Same-Spin Energy          =      -0.4081085512001136 [Eh]
	 Opposite-Spin Energy      =      -1.2167803117161800 [Eh]
	 Correlation Energy        =      -1.6248888629162934 [Eh]
	 Total Energy              =    -394.3588510324657364 [Eh]

	 ================> DF-SCS-MP2 Energies <==================
	-----------------------------------------------------------
	 SCS Same-Spin Scale       =       0.3333333333333333 [-]
	 SCS Opposite-Spin Scale   =       1.2000000000000000 [-]
	 SCS Same-Spin Energy      =      -0.1360361837333712 [Eh]
	 SCS Opposite-Spin Energy  =      -1.4601363740594160 [Eh]
	 SCS Correlation Energy    =      -1.5961725577927872 [Eh]
	 SCS Total Energy          =    -394.3301347273422266 [Eh]
	-----------------------------------------------------------

  Dipole Moment: [D]
     X:     8.4152      Y:    -0.7263      Z:     0.0030     Total:     8.4465

*** Psi4 exiting successfully. Buy a developer a beer!
