                               Psi4 1.4a3.dev225

  ==> Input File <==

--------------------------------------------------------------------------
#psi4
#
memory 32 gb

molecule  {
0 1
  O        2.2358750    -1.1647400    -0.0019990
  N       -0.0266920    -0.9090020    -0.0014130
  N       -2.3606070    -0.8668920    -0.0783920
  N        1.3942980     1.0030250     0.0093070
  C       -1.1689180    -0.1740660     0.0003700
  C       -1.0400980     1.1965590     0.0002140
  C        1.3419205    -0.3607850     0.0034986
  C        0.2772380     1.7038820     0.0017870
  H       -0.0608440    -1.9231390    -0.0684580
  H       -1.9045160     1.8491770     0.0118680
  H        0.4106550     2.7868440     0.0040290
  H       -3.1798030    -0.3063160     0.1264620
  H       -2.3838550    -1.7605480     0.4013470
units angstrom
no_reorient  #important for SAPT in psi4, default
symmetry c1  #important for SAPT in psi4, default
}

set PROPERTIES_ORIGIN ["COM"]
properties('MP2/aug-cc-pvtz', properties = ['dipole'])
--------------------------------------------------------------------------

    Molecular point group: c1
  Charge       = 0
  Multiplicity = 1
  Basis Set: AUG-CC-PVTZ
    Blend: AUG-CC-PVTZ
  Basis Set: (AUG-CC-PVTZ AUX)
    Blend: AUG-CC-PVTZ-JKFIT

    Orbital Energies [Eh]
    ---------------------

    Doubly Occupied:

       1A    -20.518779     2A    -15.625817     3A    -15.624361
       4A    -15.548801     5A    -11.380355     6A    -11.378550
       7A    -11.314843     8A    -11.235038     9A     -1.400583
      10A     -1.322565    11A     -1.245204    12A     -1.195486
      13A     -1.058925    14A     -0.910557    15A     -0.872554
      16A     -0.770470    17A     -0.749678    18A     -0.710546
      19A     -0.686902    20A     -0.645138    21A     -0.629002
      22A     -0.625244    23A     -0.578376    24A     -0.552339
      25A     -0.465108    26A     -0.457552    27A     -0.447596
      28A     -0.415152    29A     -0.331662

  @DF-RHF Final Energy:  -392.75021186242907

   => Energetics <=

    Nuclear Repulsion Energy =            354.7372422192092927
    One-Electron Energy =               -1237.5805416906775918
    Two-Electron Energy =                 490.0930876090392303
    Total Energy =                       -392.7502118624290688
  Basis Set: (AUG-CC-PVTZ AUX)
    Blend: AUG-CC-PVTZ-RI
    Molecular point group: c1

    Geometry (in Angstrom), charge = 0, multiplicity = 1:

       Center              X                  Y                   Z               Mass
    ------------   -----------------  -----------------  -----------------  -----------------
         O            2.167386298454    -1.161008971765     0.002231427916    15.994914619570
         N           -0.095180701546    -0.905270971765     0.002817427916    14.003074004430
         N           -2.429095701546    -0.863160971765    -0.074161572084    14.003074004430
         N            1.325809298454     1.006756028235     0.013537427916    14.003074004430
         C           -1.237406701546    -0.170334971765     0.004600427916    12.000000000000
         C           -1.108586701546     1.200290028235     0.004444427916    12.000000000000
         C            1.273431798454    -0.357053971765     0.007729027916    12.000000000000
         C            0.208749298454     1.707613028235     0.006017427916    12.000000000000
         H           -0.129332701546    -1.919407971765    -0.064227572084     1.007825032230
         H           -1.973004701546     1.852908028235     0.016098427916     1.007825032230
         H            0.342166298454     2.790575028235     0.008259427916     1.007825032230
         H           -3.248291701546    -0.302584971765     0.130692427916     1.007825032230
         H           -2.452343701546    -1.756816971765     0.405577427916     1.007825032230

  Basis Set: AUG-CC-PVTZ
    Blend: AUG-CC-PVTZ
  Basis Set: (AUG-CC-PVTZ AUX)
    Blend: AUG-CC-PVTZ-JKFIT
	 Reference Energy          =    -392.7502118624290688 [Eh]
	 Singles Energy            =      -0.0000000000000000 [Eh]
	 Same-Spin Energy          =      -0.4065851739037182 [Eh]
	 Opposite-Spin Energy      =      -1.2141327915455316 [Eh]
	 Correlation Energy        =      -1.6207179654492498 [Eh]
	 Total Energy              =    -394.3709298278783422 [Eh]

	 ================> DF-SCS-MP2 Energies <==================
	-----------------------------------------------------------
	 SCS Same-Spin Scale       =       0.3333333333333333 [-]
	 SCS Opposite-Spin Scale   =       1.2000000000000000 [-]
	 SCS Same-Spin Energy      =      -0.1355283913012394 [Eh]
	 SCS Opposite-Spin Energy  =      -1.4569593498546378 [Eh]
	 SCS Correlation Energy    =      -1.5924877411558771 [Eh]
	 SCS Total Energy          =    -394.3426996035849470 [Eh]
	-----------------------------------------------------------

  Dipole Moment: [D]
     X:    -7.2952      Y:    -0.4430      Z:     0.8603     Total:     7.3591

*** Psi4 exiting successfully. Buy a developer a beer!
