                               Psi4 1.4a3.dev225

  ==> Input File <==

--------------------------------------------------------------------------
#psi4
#
memory 32 gb

molecule  {
0 1
  O        2.2358750    -1.1647400    -0.0019990
  N       -0.0266920    -0.9090020    -0.0014130
  N       -2.3606070    -0.8668920    -0.0783920
  N        1.3942980     1.0030250     0.0093070
  C       -1.1689180    -0.1740660     0.0003700
  C       -1.0400980     1.1965590     0.0002140
  C        1.2955060    -0.3793770     0.0033320
  C        0.2772380     1.7038820     0.0017870
  H       -0.0608440    -1.9231390    -0.0684580
  H       -1.9444181     1.8793023     0.0124060
  H        0.4106550     2.7868440     0.0040290
  H       -3.1798030    -0.3063160     0.1264620
  H       -2.3838550    -1.7605480     0.4013470
units angstrom
no_reorient  #important for SAPT in psi4, default
symmetry c1  #important for SAPT in psi4, default
}

set PROPERTIES_ORIGIN ["COM"]
properties('MP2/aug-cc-pvtz', properties = ['dipole'])
--------------------------------------------------------------------------

    Molecular point group: c1
  Charge       = 0
  Multiplicity = 1
  Basis Set: AUG-CC-PVTZ
    Blend: AUG-CC-PVTZ
  Basis Set: (AUG-CC-PVTZ AUX)
    Blend: AUG-CC-PVTZ-JKFIT

    Orbital Energies [Eh]
    ---------------------

    Doubly Occupied:

       1A    -20.512830     2A    -15.634494     3A    -15.626827
       4A    -15.552410     5A    -11.381819     6A    -11.379106
       7A    -11.313406     8A    -11.243191     9A     -1.391817
      10A     -1.323213    11A     -1.244376    12A     -1.201733
      13A     -1.058495    14A     -0.909583    15A     -0.883058
      16A     -0.775213    17A     -0.747426    18A     -0.715658
      19A     -0.688111    20A     -0.645691    21A     -0.629166
      22A     -0.619153    23A     -0.570741    24A     -0.547839
      25A     -0.464222    26A     -0.451951    27A     -0.448860
      28A     -0.418902    29A     -0.331921

  @DF-RHF Final Energy:  -392.74851679862456

   => Energetics <=

    Nuclear Repulsion Energy =            354.7256611789591147
    One-Electron Energy =               -1237.5259363213581310
    Two-Electron Energy =                 490.0517583437743951
    Total Energy =                       -392.7485167986245642
  Basis Set: (AUG-CC-PVTZ AUX)
    Blend: AUG-CC-PVTZ-RI
    Molecular point group: c1

    Geometry (in Angstrom), charge = 0, multiplicity = 1:

       Center              X                  Y                   Z               Mass
    ------------   -----------------  -----------------  -----------------  -----------------
         O            2.172764277501    -1.159273225125     0.002244548839    15.994914619570
         N           -0.089802722499    -0.903535225125     0.002830548839    14.003074004430
         N           -2.423717722499    -0.861425225125    -0.074148451161    14.003074004430
         N            1.331187277501     1.008491774875     0.013550548839    14.003074004430
         C           -1.232028722499    -0.168599225125     0.004613548839    12.000000000000
         C           -1.103208722499     1.202025774875     0.004457548839    12.000000000000
         C            1.232395277501    -0.373910225125     0.007575548839    12.000000000000
         C            0.214127277501     1.709348774875     0.006030548839    12.000000000000
         H           -0.123954722499    -1.917672225125    -0.064214451161     1.007825032230
         H           -2.007528822499     1.884769074875     0.016649548839     1.007825032230
         H            0.347544277501     2.792310774875     0.008272548839     1.007825032230
         H           -3.242913722499    -0.300849225125     0.130705548839     1.007825032230
         H           -2.446965722499    -1.755081225125     0.405590548839     1.007825032230

  Basis Set: AUG-CC-PVTZ
    Blend: AUG-CC-PVTZ
  Basis Set: (AUG-CC-PVTZ AUX)
    Blend: AUG-CC-PVTZ-JKFIT
	 Reference Energy          =    -392.7485167986245642 [Eh]
	 Singles Energy            =      -0.0000000000000000 [Eh]
	 Same-Spin Energy          =      -0.4069043326956959 [Eh]
	 Opposite-Spin Energy      =      -1.2153274533610765 [Eh]
	 Correlation Energy        =      -1.6222317860567723 [Eh]
	 Total Energy              =    -394.3707485846813370 [Eh]

	 ================> DF-SCS-MP2 Energies <==================
	-----------------------------------------------------------
	 SCS Same-Spin Scale       =       0.3333333333333333 [-]
	 SCS Opposite-Spin Scale   =       1.2000000000000000 [-]
	 SCS Same-Spin Energy      =      -0.1356347775652320 [Eh]
	 SCS Opposite-Spin Energy  =      -1.4583929440332917 [Eh]
	 SCS Correlation Energy    =      -1.5940277215985237 [Eh]
	 SCS Total Energy          =    -394.3425445202231003 [Eh]
	-----------------------------------------------------------

  Dipole Moment: [D]
     X:    -7.5896      Y:    -0.4052      Z:     0.8613     Total:     7.6491

*** Psi4 exiting successfully. Buy a developer a beer!
