                               Psi4 1.4a3.dev225

  ==> Input File <==

--------------------------------------------------------------------------
#psi4
#
memory 32 gb

molecule  {
0 1
  O        2.2358750    -1.1647400    -0.0019990
  N       -0.0266920    -0.9090020    -0.0014130
  N       -2.3606070    -0.8668920    -0.0783920
  N        1.3942980     1.0030250     0.0093070
  C       -1.1689180    -0.1740660     0.0003700
  C       -1.0400980     1.1965590     0.0002140
  C        1.2955060    -0.3793770     0.0033320
  C        0.2959018     1.7110697     0.0018093
  H       -0.0608440    -1.9231390    -0.0684580
  H       -1.9045160     1.8491770     0.0118680
  H        0.4106550     2.7868440     0.0040290
  H       -3.1798030    -0.3063160     0.1264620
  H       -2.3838550    -1.7605480     0.4013470
units angstrom
no_reorient  #important for SAPT in psi4, default
symmetry c1  #important for SAPT in psi4, default
}

set PROPERTIES_ORIGIN ["COM"]
properties('MP2/aug-cc-pvtz', properties = ['dipole'])
--------------------------------------------------------------------------

    Molecular point group: c1
  Charge       = 0
  Multiplicity = 1
  Basis Set: AUG-CC-PVTZ
    Blend: AUG-CC-PVTZ
  Basis Set: (AUG-CC-PVTZ AUX)
    Blend: AUG-CC-PVTZ-JKFIT

    Orbital Energies [Eh]
    ---------------------

    Doubly Occupied:

       1A    -20.514544     2A    -15.633185     3A    -15.625048
       4A    -15.553195     5A    -11.380758     6A    -11.378946
       7A    -11.313517     8A    -11.237425     9A     -1.392547
      10A     -1.322265    11A     -1.245707    12A     -1.203254
      13A     -1.055890    14A     -0.909644    15A     -0.884078
      16A     -0.774083    17A     -0.749934    18A     -0.716157
      19A     -0.688803    20A     -0.645467    21A     -0.628966
      22A     -0.623668    23A     -0.577461    24A     -0.547849
      25A     -0.464624    26A     -0.452493    27A     -0.448662
      28A     -0.418714    29A     -0.331091

  @DF-RHF Final Energy:  -392.75116808798782

   => Energetics <=

    Nuclear Repulsion Energy =            354.8423017925825889
    One-Electron Energy =               -1237.7509881991470593
    Two-Electron Energy =                 490.1575183185766491
    Total Energy =                       -392.7511680879878213
  Basis Set: (AUG-CC-PVTZ AUX)
    Blend: AUG-CC-PVTZ-RI
    Molecular point group: c1

    Geometry (in Angstrom), charge = 0, multiplicity = 1:

       Center              X                  Y                   Z               Mass
    ------------   -----------------  -----------------  -----------------  -----------------
         O            2.170385205318    -1.159776554797     0.002247021838    15.994914619570
         N           -0.092181794682    -0.904038554797     0.002833021838    14.003074004430
         N           -2.426096794682    -0.861928554797    -0.074145978162    14.003074004430
         N            1.328808205318     1.007988445203     0.013553021838    14.003074004430
         C           -1.234407794682    -0.169102554797     0.004616021838    12.000000000000
         C           -1.105587794682     1.201522445203     0.004460021838    12.000000000000
         C            1.230016205318    -0.374413554797     0.007578021838    12.000000000000
         C            0.230412005318     1.716033145203     0.006055321838    12.000000000000
         H           -0.126333794682    -1.918175554797    -0.064211978162     1.007825032230
         H           -1.970005794682     1.854140445203     0.016114021838     1.007825032230
         H            0.345165205318     2.791807445203     0.008275021838     1.007825032230
         H           -3.245292794682    -0.301352554797     0.130708021838     1.007825032230
         H           -2.449344794682    -1.755584554797     0.405593021838     1.007825032230

  Basis Set: AUG-CC-PVTZ
    Blend: AUG-CC-PVTZ
  Basis Set: (AUG-CC-PVTZ AUX)
    Blend: AUG-CC-PVTZ-JKFIT
	 Reference Energy          =    -392.7511680879878213 [Eh]
	 Singles Energy            =      -0.0000000000000000 [Eh]
	 Same-Spin Energy          =      -0.4064875201171855 [Eh]
	 Opposite-Spin Energy      =      -1.2146797890639291 [Eh]
	 Correlation Energy        =      -1.6211673091811147 [Eh]
	 Total Energy              =    -394.3723353971689107 [Eh]

	 ================> DF-SCS-MP2 Energies <==================
	-----------------------------------------------------------
	 SCS Same-Spin Scale       =       0.3333333333333333 [-]
	 SCS Opposite-Spin Scale   =       1.2000000000000000 [-]
	 SCS Same-Spin Energy      =      -0.1354958400390618 [Eh]
	 SCS Opposite-Spin Energy  =      -1.4576157468767150 [Eh]
	 SCS Correlation Energy    =      -1.5931115869157768 [Eh]
	 SCS Total Energy          =    -394.3442796749035892 [Eh]
	-----------------------------------------------------------

  Dipole Moment: [D]
     X:    -7.4700      Y:    -0.3703      Z:     0.8621     Total:     7.5287

*** Psi4 exiting successfully. Buy a developer a beer!
