                               Psi4 1.3.2 release

  ==> Input File <==

--------------------------------------------------------------------------
#psi4
#
memory 32 gb

molecule  {
0 1
  O       -2.2334690    -1.1675340     0.0001340
  N        0.0527425    -0.9479536    -0.0000409
  N        2.3544690    -0.8475160    -0.0005320
  N       -1.3973450     1.0028810     0.0002180
  C        1.1706060    -0.1768690    -0.0001310
  C        1.0385970     1.1986830    -0.0000890
  C       -1.2978830    -0.3751090     0.0001540
  C       -0.2757380     1.7018570     0.0000510
  H        0.0506260    -1.9247470    -0.0002200
  H        1.9024710     1.8518520    -0.0001620
  H       -0.4079780     2.7850560     0.0002120
  H        3.2235170    -0.3366370     0.0005700
  H        2.4001700    -1.8548790     0.0010060
units angstrom
no_reorient  #important for SAPT in psi4, default
symmetry c1  #important for SAPT in psi4, default
}

set PROPERTIES_ORIGIN ["COM"]
properties('MP2/aug-cc-pvtz', properties = ['dipole'])
--------------------------------------------------------------------------

    Molecular point group: c1
  Charge       = 0
  Multiplicity = 1
  Basis Set: AUG-CC-PVTZ
    Blend: AUG-CC-PVTZ
  Basis Set: (AUG-CC-PVTZ AUX)
    Blend: AUG-CC-PVTZ-JKFIT

    Orbital Energies [Eh]
    ---------------------

    Doubly Occupied:

       1A    -20.512886     2A    -15.627206     3A    -15.626230
       4A    -15.547419     5A    -11.383903     6A    -11.379433
       7A    -11.310596     8A    -11.232732     9A     -1.386601
      10A     -1.323733    11A     -1.240012    12A     -1.199962
      13A     -1.056944    14A     -0.912704    15A     -0.876054
      16A     -0.786838    17A     -0.754395    18A     -0.720121
      19A     -0.690833    20A     -0.638566    21A     -0.634400
      22A     -0.620702    23A     -0.572568    24A     -0.547199
      25A     -0.460972    26A     -0.449316    27A     -0.441539
      28A     -0.416101    29A     -0.326060

  @DF-RHF Final Energy:  -392.74878504226041

   => Energetics <=

    Nuclear Repulsion Energy =            354.4858445387062602
    One-Electron Energy =               -1237.1172078191873425
    Two-Electron Energy =                 489.8825782382206739
    Total Energy =                       -392.7487850422604083
  Basis Set: (AUG-CC-PVTZ AUX)
    Blend: AUG-CC-PVTZ-RI
    Molecular point group: c1

    Geometry (in Angstrom), charge = 0, multiplicity = 1:

       Center              X                  Y                   Z               Mass
    ------------   -----------------  -----------------  -----------------  -----------------
         O           -2.172852764673    -1.157935755269     0.000148313074    15.994914619570
         N            0.113358735327    -0.938355355269    -0.000026586926    14.003074004430
         N            2.415085235327    -0.837917755269    -0.000517686926    14.003074004430
         N           -1.336728764673     1.012479244731     0.000232313074    14.003074004430
         C            1.231222235327    -0.167270755269    -0.000116686926    12.000000000000
         C            1.099213235327     1.208281244731    -0.000074686926    12.000000000000
         C           -1.237266764673    -0.365510755269     0.000168313074    12.000000000000
         C           -0.215121764673     1.711455244731     0.000065313074    12.000000000000
         H            0.111242235327    -1.915148755269    -0.000205686926     1.007825032230
         H            1.963087235327     1.861450244731    -0.000147686926     1.007825032230
         H           -0.347361764673     2.794654244731     0.000226313074     1.007825032230
         H            3.284133235327    -0.327038755269     0.000584313074     1.007825032230
         H            2.460786235327    -1.845280755269     0.001020313074     1.007825032230

  Basis Set: AUG-CC-PVTZ
    Blend: AUG-CC-PVTZ
  Basis Set: (AUG-CC-PVTZ AUX)
    Blend: AUG-CC-PVTZ-JKFIT
	 Reference Energy          =    -392.7487850422604083 [Eh]
	 Singles Energy            =      -0.0000000000000000 [Eh]
	 Same-Spin Energy          =      -0.4064771623676569 [Eh]
	 Opposite-Spin Energy      =      -1.2139185149650717 [Eh]
	 Correlation Energy        =      -1.6203956773327286 [Eh]
	 Total Energy              =    -394.3691807195931460 [Eh]

	 ================> DF-SCS-MP2 Energies <==================
	-----------------------------------------------------------
	 SCS Same-Spin Scale       =       0.3333333333333333 [-]
	 SCS Opposite-Spin Scale   =       1.2000000000000000 [-]
	 SCS Same-Spin Energy      =      -0.1354923874558856 [Eh]
	 SCS Opposite-Spin Energy  =      -1.4567022179580860 [Eh]
	 SCS Correlation Energy    =      -1.5921946054139715 [Eh]
	 SCS Total Energy          =    -394.3409796476743736 [Eh]
	-----------------------------------------------------------

  Dipole Moment: [D]
     X:     7.9776      Y:    -0.8235      Z:     0.0030     Total:     8.0200

*** Psi4 exiting successfully. Buy a developer a beer!
