                               Psi4 1.3.2 release

  ==> Input File <==

--------------------------------------------------------------------------
#psi4
#
memory 32 gb

molecule  {
0 1
  O       -2.2334690    -1.1675340     0.0001340
  N        0.0265130    -0.9084710    -0.0000270
  N        2.3544690    -0.8475160    -0.0005320
  N       -1.3973450     1.0028810     0.0002180
  C        1.0863582    -0.2307421    -0.0001233
  C        1.0385970     1.1986830    -0.0000890
  C       -1.2978830    -0.3751090     0.0001540
  C       -0.2757380     1.7018570     0.0000510
  H        0.0506260    -1.9247470    -0.0002200
  H        1.9024710     1.8518520    -0.0001620
  H       -0.4079780     2.7850560     0.0002120
  H        3.2235170    -0.3366370     0.0005700
  H        2.4001700    -1.8548790     0.0010060
units angstrom
no_reorient  #important for SAPT in psi4, default
symmetry c1  #important for SAPT in psi4, default
}

set PROPERTIES_ORIGIN ["COM"]
properties('MP2/aug-cc-pvtz', properties = ['dipole'])
--------------------------------------------------------------------------

    Molecular point group: c1
  Charge       = 0
  Multiplicity = 1
  Basis Set: AUG-CC-PVTZ
    Blend: AUG-CC-PVTZ
  Basis Set: (AUG-CC-PVTZ AUX)
    Blend: AUG-CC-PVTZ-JKFIT

    Orbital Energies [Eh]
    ---------------------

    Doubly Occupied:

       1A    -20.514743     2A    -15.646663     3A    -15.623767
       4A    -15.542917     5A    -11.386765     6A    -11.381103
       7A    -11.303772     8A    -11.233611     9A     -1.406323
      10A     -1.338062    11A     -1.236305    12A     -1.208437
      13A     -1.047038    14A     -0.912576    15A     -0.897883
      16A     -0.791550    17A     -0.754733    18A     -0.720931
      19A     -0.688202    20A     -0.655516    21A     -0.633405
      22A     -0.618187    23A     -0.569008    24A     -0.543181
      25A     -0.462427    26A     -0.450910    27A     -0.449997
      28A     -0.415260    29A     -0.319324

  @DF-RHF Final Energy:  -392.73781874175540

   => Energetics <=

    Nuclear Repulsion Energy =            356.0574517302246704
    One-Electron Energy =               -1240.0853507769904809
    Two-Electron Energy =                 491.2900803050104059
    Total Energy =                       -392.7378187417554045
  Basis Set: (AUG-CC-PVTZ AUX)
    Blend: AUG-CC-PVTZ-RI
    Molecular point group: c1

    Geometry (in Angstrom), charge = 0, multiplicity = 1:

       Center              X                  Y                   Z               Mass
    ------------   -----------------  -----------------  -----------------  -----------------
         O           -2.160440780305    -1.157092845679     0.000145728111    15.994914619570
         N            0.099541219695    -0.898029845679    -0.000015271889    14.003074004430
         N            2.427497219695    -0.837074845679    -0.000520271889    14.003074004430
         N           -1.324316780305     1.013322154321     0.000229728111    14.003074004430
         C            1.159386419695    -0.220300945679    -0.000111571889    12.000000000000
         C            1.111625219695     1.209124154321    -0.000077271889    12.000000000000
         C           -1.224854780305    -0.364667845679     0.000165728111    12.000000000000
         C           -0.202709780305     1.712298154321     0.000062728111    12.000000000000
         H            0.123654219695    -1.914305845679    -0.000208271889     1.007825032230
         H            1.975499219695     1.862293154321    -0.000150271889     1.007825032230
         H           -0.334949780305     2.795497154321     0.000223728111     1.007825032230
         H            3.296545219695    -0.326195845679     0.000581728111     1.007825032230
         H            2.473198219695    -1.844437845679     0.001017728111     1.007825032230

  Basis Set: AUG-CC-PVTZ
    Blend: AUG-CC-PVTZ
  Basis Set: (AUG-CC-PVTZ AUX)
    Blend: AUG-CC-PVTZ-JKFIT
	 Reference Energy          =    -392.7378187417554045 [Eh]
	 Singles Energy            =      -0.0000000000000000 [Eh]
	 Same-Spin Energy          =      -0.4070545191723766 [Eh]
	 Opposite-Spin Energy      =      -1.2139390939204451 [Eh]
	 Correlation Energy        =      -1.6209936130928218 [Eh]
	 Total Energy              =    -394.3588123548482258 [Eh]

	 ================> DF-SCS-MP2 Energies <==================
	-----------------------------------------------------------
	 SCS Same-Spin Scale       =       0.3333333333333333 [-]
	 SCS Opposite-Spin Scale   =       1.2000000000000000 [-]
	 SCS Same-Spin Energy      =      -0.1356848397241255 [Eh]
	 SCS Opposite-Spin Energy  =      -1.4567269127045341 [Eh]
	 SCS Correlation Energy    =      -1.5924117524286596 [Eh]
	 SCS Total Energy          =    -394.3302304941840362 [Eh]
	-----------------------------------------------------------

  Dipole Moment: [D]
     X:     7.8173      Y:    -1.1066      Z:     0.0031     Total:     7.8953

*** Psi4 exiting successfully. Buy a developer a beer!
