                               Psi4 1.3.2 release

  ==> Input File <==

--------------------------------------------------------------------------
#psi4
#
memory 32 gb

molecule  {
0 1
  O       -2.2334690    -1.1675340     0.0001340
  N        0.0265130    -0.9084710    -0.0000270
  N        2.3544690    -0.8475160    -0.0005320
  N       -1.3973450     1.0028810     0.0002180
  C        1.1706060    -0.1768690    -0.0001310
  C        1.0553569     1.2448591    -0.0000833
  C       -1.2978830    -0.3751090     0.0001540
  C       -0.2757380     1.7018570     0.0000510
  H        0.0506260    -1.9247470    -0.0002200
  H        1.9024710     1.8518520    -0.0001620
  H       -0.4079780     2.7850560     0.0002120
  H        3.2235170    -0.3366370     0.0005700
  H        2.4001700    -1.8548790     0.0010060
units angstrom
no_reorient  #important for SAPT in psi4, default
symmetry c1  #important for SAPT in psi4, default
}

set PROPERTIES_ORIGIN ["COM"]
properties('MP2/aug-cc-pvtz', properties = ['dipole'])
--------------------------------------------------------------------------

    Molecular point group: c1
  Charge       = 0
  Multiplicity = 1
  Basis Set: AUG-CC-PVTZ
    Blend: AUG-CC-PVTZ
  Basis Set: (AUG-CC-PVTZ AUX)
    Blend: AUG-CC-PVTZ-JKFIT

    Orbital Energies [Eh]
    ---------------------

    Doubly Occupied:

       1A    -20.509327     2A    -15.635479     3A    -15.632692
       4A    -15.543197     5A    -11.391877     6A    -11.375472
       7A    -11.306545     8A    -11.233685     9A     -1.388779
      10A     -1.323977    11A     -1.242964    12A     -1.199177
      13A     -1.052662    14A     -0.907459    15A     -0.884915
      16A     -0.785530    17A     -0.756500    18A     -0.724234
      19A     -0.689118    20A     -0.642529    21A     -0.637752
      22A     -0.620347    23A     -0.566193    24A     -0.548122
      25A     -0.459410    26A     -0.447460    27A     -0.443090
      28A     -0.413885    29A     -0.322845

  @DF-RHF Final Energy:  -392.74789043744448

   => Energetics <=

    Nuclear Repulsion Energy =            354.3222522714532943
    One-Electron Energy =               -1236.7698431397566310
    Two-Electron Energy =                 489.6997004308588544
    Total Energy =                       -392.7478904374444824
  Basis Set: (AUG-CC-PVTZ AUX)
    Blend: AUG-CC-PVTZ-RI
    Molecular point group: c1

    Geometry (in Angstrom), charge = 0, multiplicity = 1:

       Center              X                  Y                   Z               Mass
    ------------   -----------------  -----------------  -----------------  -----------------
         O           -2.171356277386    -1.167904761509     0.000145944243    15.994914619570
         N            0.088625722614    -0.908841761509    -0.000015055757    14.003074004430
         N            2.416581722614    -0.847886761509    -0.000520055757    14.003074004430
         N           -1.335232277386     1.002510238491     0.000229944243    14.003074004430
         C            1.232718722614    -0.177239761509    -0.000119055757    12.000000000000
         C            1.117469622614     1.244488338491    -0.000071355757    12.000000000000
         C           -1.235770277386    -0.375479761509     0.000165944243    12.000000000000
         C           -0.213625277386     1.701486238491     0.000062944243    12.000000000000
         H            0.112738722614    -1.925117761509    -0.000208055757     1.007825032230
         H            1.964583722614     1.851481238491    -0.000150055757     1.007825032230
         H           -0.345865277386     2.784685238491     0.000223944243     1.007825032230
         H            3.285629722614    -0.337007761509     0.000581944243     1.007825032230
         H            2.462282722614    -1.855249761509     0.001017944243     1.007825032230

  Basis Set: AUG-CC-PVTZ
    Blend: AUG-CC-PVTZ
  Basis Set: (AUG-CC-PVTZ AUX)
    Blend: AUG-CC-PVTZ-JKFIT
	 Reference Energy          =    -392.7478904374444824 [Eh]
	 Singles Energy            =      -0.0000000000000000 [Eh]
	 Same-Spin Energy          =      -0.4067174805719280 [Eh]
	 Opposite-Spin Energy      =      -1.2140206447247563 [Eh]
	 Correlation Energy        =      -1.6207381252966844 [Eh]
	 Total Energy              =    -394.3686285627411507 [Eh]

	 ================> DF-SCS-MP2 Energies <==================
	-----------------------------------------------------------
	 SCS Same-Spin Scale       =       0.3333333333333333 [-]
	 SCS Opposite-Spin Scale   =       1.2000000000000000 [-]
	 SCS Same-Spin Energy      =      -0.1355724935239760 [Eh]
	 SCS Opposite-Spin Energy  =      -1.4568247736697075 [Eh]
	 SCS Correlation Energy    =      -1.5923972671936835 [Eh]
	 SCS Total Energy          =    -394.3402877046381718 [Eh]
	-----------------------------------------------------------

  Dipole Moment: [D]
     X:     8.2618      Y:    -1.0195      Z:     0.0030     Total:     8.3245

*** Psi4 exiting successfully. Buy a developer a beer!
