                               Psi4 1.3.2 release

  ==> Input File <==

--------------------------------------------------------------------------
#psi4
#
memory 32 gb

molecule  {
0 1
  O       -2.2334690    -1.1675340     0.0001340
  N        0.0265130    -0.9084710    -0.0000270
  N        2.3544690    -0.8475160    -0.0005320
  N       -1.3973450     1.0028810     0.0002180
  C        1.1947324    -0.1359614    -0.0000632
  C        1.0385970     1.1986830    -0.0000890
  C       -1.2978830    -0.3751090     0.0001540
  C       -0.2757380     1.7018570     0.0000510
  H        0.0506260    -1.9247470    -0.0002200
  H        1.9024710     1.8518520    -0.0001620
  H       -0.4079780     2.7850560     0.0002120
  H        3.2235170    -0.3366370     0.0005700
  H        2.4001700    -1.8548790     0.0010060
units angstrom
no_reorient  #important for SAPT in psi4, default
symmetry c1  #important for SAPT in psi4, default
}

set PROPERTIES_ORIGIN ["COM"]
properties('MP2/aug-cc-pvtz', properties = ['dipole'])
--------------------------------------------------------------------------

    Molecular point group: c1
  Charge       = 0
  Multiplicity = 1
  Basis Set: AUG-CC-PVTZ
    Blend: AUG-CC-PVTZ
  Basis Set: (AUG-CC-PVTZ AUX)
    Blend: AUG-CC-PVTZ-JKFIT

    Orbital Energies [Eh]
    ---------------------

    Doubly Occupied:

       1A    -20.508112     2A    -15.626707     3A    -15.625483
       4A    -15.549684     5A    -11.380819     6A    -11.374043
       7A    -11.313014     8A    -11.232408     9A     -1.384354
      10A     -1.316486    11A     -1.241802    12A     -1.192124
      13A     -1.067684    14A     -0.912060    15A     -0.875451
      16A     -0.781094    17A     -0.748658    18A     -0.721416
      19A     -0.690421    20A     -0.638426    21A     -0.632810
      22A     -0.621594    23A     -0.570208    24A     -0.547511
      25A     -0.461564    26A     -0.448033    27A     -0.436266
      28A     -0.416110    29A     -0.331998

  @DF-RHF Final Energy:  -392.74762134172937

   => Energetics <=

    Nuclear Repulsion Energy =            354.9834398122608832
    One-Electron Energy =               -1238.1694366399137834
    Two-Electron Energy =                 490.4383754859234728
    Total Energy =                       -392.7476213417293707
  Basis Set: (AUG-CC-PVTZ AUX)
    Blend: AUG-CC-PVTZ-RI
    Molecular point group: c1

    Geometry (in Angstrom), charge = 0, multiplicity = 1:

       Center              X                  Y                   Z               Mass
    ------------   -----------------  -----------------  -----------------  -----------------
         O           -2.172152345500    -1.167335415841     0.000139233345    15.994914619570
         N            0.087829654500    -0.908272415841    -0.000021766655    14.003074004430
         N            2.415785654500    -0.847317415841    -0.000526766655    14.003074004430
         N           -1.336028345500     1.003079584159     0.000223233345    14.003074004430
         C            1.256049054500    -0.135762815841    -0.000057966655    12.000000000000
         C            1.099913654500     1.198881584159    -0.000083766655    12.000000000000
         C           -1.236566345500    -0.374910415841     0.000159233345    12.000000000000
         C           -0.214421345500     1.702055584159     0.000056233345    12.000000000000
         H            0.111942654500    -1.924548415841    -0.000214766655     1.007825032230
         H            1.963787654500     1.852050584159    -0.000156766655     1.007825032230
         H           -0.346661345500     2.785254584159     0.000217233345     1.007825032230
         H            3.284833654500    -0.336438415841     0.000575233345     1.007825032230
         H            2.461486654500    -1.854680415841     0.001011233345     1.007825032230

  Basis Set: AUG-CC-PVTZ
    Blend: AUG-CC-PVTZ
  Basis Set: (AUG-CC-PVTZ AUX)
    Blend: AUG-CC-PVTZ-JKFIT
	 Reference Energy          =    -392.7476213417293707 [Eh]
	 Singles Energy            =      -0.0000000000000000 [Eh]
	 Same-Spin Energy          =      -0.4067566445625822 [Eh]
	 Opposite-Spin Energy      =      -1.2146520704803310 [Eh]
	 Correlation Energy        =      -1.6214087150429131 [Eh]
	 Total Energy              =    -394.3690300567722602 [Eh]

	 ================> DF-SCS-MP2 Energies <==================
	-----------------------------------------------------------
	 SCS Same-Spin Scale       =       0.3333333333333333 [-]
	 SCS Opposite-Spin Scale   =       1.2000000000000000 [-]
	 SCS Same-Spin Energy      =      -0.1355855481875274 [Eh]
	 SCS Opposite-Spin Energy  =      -1.4575824845763972 [Eh]
	 SCS Correlation Energy    =      -1.5931680327639246 [Eh]
	 SCS Total Energy          =    -394.3407893744932835 [Eh]
	-----------------------------------------------------------

  Dipole Moment: [D]
     X:     8.0936      Y:    -0.6407      Z:     0.0031     Total:     8.1189

*** Psi4 exiting successfully. Buy a developer a beer!
