                               Psi4 1.3.2 release

  ==> Input File <==

--------------------------------------------------------------------------
#psi4
#
memory 32 gb

molecule  {
0 1
  O       -2.2334690    -1.1675340     0.0001340
  N        0.0265130    -0.9084710    -0.0000270
  N        2.3544690    -0.8475160    -0.0005320
  N       -1.3973450     1.0028810     0.0002180
  C        1.1706060    -0.1768690    -0.0001310
  C        1.0385970     1.1986830    -0.0000890
  C       -1.3050822    -0.2753685     0.0001586
  C       -0.2757380     1.7018570     0.0000510
  H        0.0506260    -1.9247470    -0.0002200
  H        1.9024710     1.8518520    -0.0001620
  H       -0.4079780     2.7850560     0.0002120
  H        3.2235170    -0.3366370     0.0005700
  H        2.4001700    -1.8548790     0.0010060
units angstrom
no_reorient  #important for SAPT in psi4, default
symmetry c1  #important for SAPT in psi4, default
}

set PROPERTIES_ORIGIN ["COM"]
properties('MP2/aug-cc-pvtz', properties = ['dipole'])
--------------------------------------------------------------------------

    Molecular point group: c1
  Charge       = 0
  Multiplicity = 1
  Basis Set: AUG-CC-PVTZ
    Blend: AUG-CC-PVTZ
  Basis Set: (AUG-CC-PVTZ AUX)
    Blend: AUG-CC-PVTZ-JKFIT

    Orbital Energies [Eh]
    ---------------------

    Doubly Occupied:

       1A    -20.489612     2A    -15.632565     3A    -15.629962
       4A    -15.547029     5A    -11.387979     6A    -11.372533
       7A    -11.322686     8A    -11.241208     9A     -1.369792
      10A     -1.307260    11A     -1.249889    12A     -1.204707
      13A     -1.067430    14A     -0.926149    15A     -0.875741
      16A     -0.784130    17A     -0.765686    18A     -0.719681
      19A     -0.696442    20A     -0.646162    21A     -0.636622
      22A     -0.608423    23A     -0.560488    24A     -0.548143
      25A     -0.457896    26A     -0.437505    27A     -0.432801
      28A     -0.413751    29A     -0.331473

  @DF-RHF Final Energy:  -392.73520915159224

   => Energetics <=

    Nuclear Repulsion Energy =            355.3321861070929799
    One-Electron Energy =               -1238.8073012504698909
    Two-Electron Energy =                 490.7399059917846671
    Total Energy =                       -392.7352091515922439
  Basis Set: (AUG-CC-PVTZ AUX)
    Blend: AUG-CC-PVTZ-RI
    Molecular point group: c1

    Geometry (in Angstrom), charge = 0, multiplicity = 1:

       Center              X                  Y                   Z               Mass
    ------------   -----------------  -----------------  -----------------  -----------------
         O           -2.168767113529    -1.173693251415     0.000146063115    15.994914619570
         N            0.091214886471    -0.914630251415    -0.000014936885    14.003074004430
         N            2.419170886471    -0.853675251415    -0.000519936885    14.003074004430
         N           -1.332643113529     0.996721748585     0.000230063115    14.003074004430
         C            1.235307886471    -0.183028251415    -0.000118936885    12.000000000000
         C            1.103298886471     1.192523748585    -0.000076936885    12.000000000000
         C           -1.240380313529    -0.281527751415     0.000170663115    12.000000000000
         C           -0.211036113529     1.695697748585     0.000063063115    12.000000000000
         H            0.115327886471    -1.930906251415    -0.000207936885     1.007825032230
         H            1.967172886471     1.845692748585    -0.000149936885     1.007825032230
         H           -0.343276113529     2.778896748585     0.000224063115     1.007825032230
         H            3.288218886471    -0.342796251415     0.000582063115     1.007825032230
         H            2.464871886471    -1.861038251415     0.001018063115     1.007825032230

  Basis Set: AUG-CC-PVTZ
    Blend: AUG-CC-PVTZ
  Basis Set: (AUG-CC-PVTZ AUX)
    Blend: AUG-CC-PVTZ-JKFIT
	 Reference Energy          =    -392.7352091515922439 [Eh]
	 Singles Energy            =      -0.0000000000000000 [Eh]
	 Same-Spin Energy          =      -0.4081611482402794 [Eh]
	 Opposite-Spin Energy      =      -1.2155029050995356 [Eh]
	 Correlation Energy        =      -1.6236640533398150 [Eh]
	 Total Energy              =    -394.3588732049320811 [Eh]

	 ================> DF-SCS-MP2 Energies <==================
	-----------------------------------------------------------
	 SCS Same-Spin Scale       =       0.3333333333333333 [-]
	 SCS Opposite-Spin Scale   =       1.2000000000000000 [-]
	 SCS Same-Spin Energy      =      -0.1360537160800931 [Eh]
	 SCS Opposite-Spin Energy  =      -1.4586034861194428 [Eh]
	 SCS Correlation Energy    =      -1.5946572021995360 [Eh]
	 SCS Total Energy          =    -394.3298663537917719 [Eh]
	-----------------------------------------------------------

  Dipole Moment: [D]
     X:     8.6606      Y:    -0.2780      Z:     0.0030     Total:     8.6651

*** Psi4 exiting successfully. Buy a developer a beer!
