                               Psi4 1.4a3.dev225

  ==> Input File <==

--------------------------------------------------------------------------
#psi4
#
memory 32 gb

molecule  {
0 1
  O        2.2358750    -1.1647400    -0.0019990
  N       -0.0266920    -0.9090020    -0.0014130
  N       -2.3606070    -0.8668920    -0.0783920
  N        1.3942980     1.0030250     0.0093070
  C       -1.1861801    -0.1841019    -0.0007709
  C       -1.0400980     1.1965590     0.0002140
  C        1.2955060    -0.3793770     0.0033320
  C        0.2772380     1.7038820     0.0017870
  H       -0.0608440    -1.9231390    -0.0684580
  H       -1.9045160     1.8491770     0.0118680
  H        0.4106550     2.7868440     0.0040290
  H       -3.1798030    -0.3063160     0.1264620
  H       -2.3838550    -1.7605480     0.4013470
units angstrom
no_reorient  #important for SAPT in psi4, default
symmetry c1  #important for SAPT in psi4, default
}

set PROPERTIES_ORIGIN ["COM"]
properties('MP2/aug-cc-pvtz', properties = ['dipole'])
--------------------------------------------------------------------------

    Molecular point group: c1
  Charge       = 0
  Multiplicity = 1
  Basis Set: AUG-CC-PVTZ
    Blend: AUG-CC-PVTZ
  Basis Set: (AUG-CC-PVTZ AUX)
    Blend: AUG-CC-PVTZ-JKFIT

    Orbital Energies [Eh]
    ---------------------

    Doubly Occupied:

       1A    -20.511727     2A    -15.633293     3A    -15.630194
       4A    -15.550294     5A    -11.383004     6A    -11.378112
       7A    -11.311741     8A    -11.237501     9A     -1.390229
      10A     -1.325650    11A     -1.246776    12A     -1.201095
      13A     -1.056743    14A     -0.908357    15A     -0.883746
      16A     -0.777633    17A     -0.750058    18A     -0.720543
      19A     -0.686933    20A     -0.646477    21A     -0.630166
      22A     -0.621764    23A     -0.571198    24A     -0.550567
      25A     -0.462658    26A     -0.450767    27A     -0.448021
      28A     -0.417790    29A     -0.329481

  @DF-RHF Final Energy:  -392.75017944018612

   => Energetics <=

    Nuclear Repulsion Energy =            354.8092176219555540
    One-Electron Energy =               -1237.6937592481251613
    Two-Electron Energy =                 490.1343621859834911
    Total Energy =                       -392.7501794401861162
  Basis Set: (AUG-CC-PVTZ AUX)
    Blend: AUG-CC-PVTZ-RI
    Molecular point group: c1

    Geometry (in Angstrom), charge = 0, multiplicity = 1:

       Center              X                  Y                   Z               Mass
    ------------   -----------------  -----------------  -----------------  -----------------
         O            2.174267573263    -1.157915269415     0.002372724198    15.994914619570
         N           -0.088299426737    -0.902177269415     0.002958724198    14.003074004430
         N           -2.422214426737    -0.860067269415    -0.074020275802    14.003074004430
         N            1.332690573263     1.009849730585     0.013678724198    14.003074004430
         C           -1.247787526737    -0.177277169415     0.003600824198    12.000000000000
         C           -1.101705426737     1.203383730585     0.004585724198    12.000000000000
         C            1.233898573263    -0.372552269415     0.007703724198    12.000000000000
         C            0.215630573263     1.710706730585     0.006158724198    12.000000000000
         H           -0.122451426737    -1.916314269415    -0.064086275802     1.007825032230
         H           -1.966123426737     1.856001730585     0.016239724198     1.007825032230
         H            0.349047573263     2.793668730585     0.008400724198     1.007825032230
         H           -3.241410426737    -0.299491269415     0.130833724198     1.007825032230
         H           -2.445462426737    -1.753723269415     0.405718724198     1.007825032230

  Basis Set: AUG-CC-PVTZ
    Blend: AUG-CC-PVTZ
  Basis Set: (AUG-CC-PVTZ AUX)
    Blend: AUG-CC-PVTZ-JKFIT
	 Reference Energy          =    -392.7501794401861162 [Eh]
	 Singles Energy            =      -0.0000000000000000 [Eh]
	 Same-Spin Energy          =      -0.4069362210292590 [Eh]
	 Opposite-Spin Energy      =      -1.2150323975008290 [Eh]
	 Correlation Energy        =      -1.6219686185300881 [Eh]
	 Total Energy              =    -394.3721480587162205 [Eh]

	 ================> DF-SCS-MP2 Energies <==================
	-----------------------------------------------------------
	 SCS Same-Spin Scale       =       0.3333333333333333 [-]
	 SCS Opposite-Spin Scale   =       1.2000000000000000 [-]
	 SCS Same-Spin Energy      =      -0.1356454070097530 [Eh]
	 SCS Opposite-Spin Energy  =      -1.4580388770009949 [Eh]
	 SCS Correlation Energy    =      -1.5936842840107479 [Eh]
	 SCS Total Energy          =    -394.3438637241968650 [Eh]
	-----------------------------------------------------------

  Dipole Moment: [D]
     X:    -7.7532      Y:    -0.4885      Z:     0.8562     Total:     7.8156

*** Psi4 exiting successfully. Buy a developer a beer!
