                               Psi4 1.3.2 release

  ==> Input File <==

--------------------------------------------------------------------------
#psi4
#
memory 32 gb

molecule  {
0 1
  O       -2.2334690    -1.1675340     0.0001340
  N        0.0265130    -0.9084710    -0.0000270
  N        2.3544690    -0.8475160    -0.0005320
  N       -1.3973450     1.0028810     0.0002180
  C        1.1706060    -0.1768690    -0.0001310
  C        1.0385970     1.1986830    -0.0000890
  C       -1.2978830    -0.3751090     0.0001540
  C       -0.4625183     1.7733631     0.0000709
  H        0.0506260    -1.9247470    -0.0002200
  H        1.9024710     1.8518520    -0.0001620
  H       -0.4079780     2.7850560     0.0002120
  H        3.2235170    -0.3366370     0.0005700
  H        2.4001700    -1.8548790     0.0010060
units angstrom
no_reorient  #important for SAPT in psi4, default
symmetry c1  #important for SAPT in psi4, default
}

set PROPERTIES_ORIGIN ["COM"]
properties('MP2/aug-cc-pvtz', properties = ['dipole'])
--------------------------------------------------------------------------

    Molecular point group: c1
  Charge       = 0
  Multiplicity = 1
  Basis Set: AUG-CC-PVTZ
    Blend: AUG-CC-PVTZ
  Basis Set: (AUG-CC-PVTZ AUX)
    Blend: AUG-CC-PVTZ-JKFIT

    Orbital Energies [Eh]
    ---------------------

    Doubly Occupied:

       1A    -20.527457     2A    -15.624682     3A    -15.611229
       4A    -15.556314     5A    -11.394406     6A    -11.362367
       7A    -11.313040     8A    -11.225635     9A     -1.399541
      10A     -1.316216    11A     -1.269269    12A     -1.206685
      13A     -1.021391    14A     -0.923584    15A     -0.876481
      16A     -0.770759    17A     -0.753450    18A     -0.730845
      19A     -0.702966    20A     -0.635386    21A     -0.634557
      22A     -0.602808    23A     -0.587692    24A     -0.550273
      25A     -0.478043    26A     -0.458065    27A     -0.438032
      28A     -0.401878    29A     -0.314180

  @DF-RHF Final Energy:  -392.71416679034206

   => Energetics <=

    Nuclear Repulsion Energy =            354.0442311899648189
    One-Electron Energy =               -1236.1423358510744492
    Two-Electron Energy =                 489.3839378707675110
    Total Energy =                       -392.7141667903420625
  Basis Set: (AUG-CC-PVTZ AUX)
    Blend: AUG-CC-PVTZ-RI
    Molecular point group: c1

    Geometry (in Angstrom), charge = 0, multiplicity = 1:

       Center              X                  Y                   Z               Mass
    ------------   -----------------  -----------------  -----------------  -----------------
         O           -2.149360504202    -1.170642073031     0.000144409706    15.994914619570
         N            0.110621495798    -0.911579073031    -0.000016590294    14.003074004430
         N            2.438577495798    -0.850624073031    -0.000521590294    14.003074004430
         N           -1.313236504202     0.999772926969     0.000228409706    14.003074004430
         C            1.254714495798    -0.179977073031    -0.000120590294    12.000000000000
         C            1.122705495798     1.195574926969    -0.000078590294    12.000000000000
         C           -1.213774504202    -0.378217073031     0.000164409706    12.000000000000
         C           -0.378409804202     1.770255026969     0.000081309706    12.000000000000
         H            0.134734495798    -1.927855073031    -0.000209590294     1.007825032230
         H            1.986579495798     1.848743926969    -0.000151590294     1.007825032230
         H           -0.323869504202     2.781947926969     0.000222409706     1.007825032230
         H            3.307625495798    -0.339745073031     0.000580409706     1.007825032230
         H            2.484278495798    -1.857987073031     0.001016409706     1.007825032230

  Basis Set: AUG-CC-PVTZ
    Blend: AUG-CC-PVTZ
  Basis Set: (AUG-CC-PVTZ AUX)
    Blend: AUG-CC-PVTZ-JKFIT
	 Reference Energy          =    -392.7141667903420625 [Eh]
	 Singles Energy            =      -0.0000000000000000 [Eh]
	 Same-Spin Energy          =      -0.4047771068570951 [Eh]
	 Opposite-Spin Energy      =      -1.2133843901617976 [Eh]
	 Correlation Energy        =      -1.6181614970188927 [Eh]
	 Total Energy              =    -394.3323282873609514 [Eh]

	 ================> DF-SCS-MP2 Energies <==================
	-----------------------------------------------------------
	 SCS Same-Spin Scale       =       0.3333333333333333 [-]
	 SCS Opposite-Spin Scale   =       1.2000000000000000 [-]
	 SCS Same-Spin Energy      =      -0.1349257022856984 [Eh]
	 SCS Opposite-Spin Energy  =      -1.4560612681941569 [Eh]
	 SCS Correlation Energy    =      -1.5909869704798554 [Eh]
	 SCS Total Energy          =    -394.3051537608218950 [Eh]
	-----------------------------------------------------------

  Dipole Moment: [D]
     X:     6.7258      Y:    -0.5287      Z:     0.0032     Total:     6.7465

*** Psi4 exiting successfully. Buy a developer a beer!
