                               Psi4 1.3.2 release

  ==> Input File <==

--------------------------------------------------------------------------
#psi4
#
memory 32 gb

molecule  {
0 1
  O       -2.2334690    -1.1675340     0.0001340
  N        0.0265130    -0.9084710    -0.0000270
  N        2.3303426    -0.8884237    -0.0005237
  N       -1.3973450     1.0028810     0.0002180
  C        1.1706060    -0.1768690    -0.0001310
  C        1.0385970     1.1986830    -0.0000890
  C       -1.2978830    -0.3751090     0.0001540
  C       -0.2757380     1.7018570     0.0000510
  H        0.0506260    -1.9247470    -0.0002200
  H        1.9024710     1.8518520    -0.0001620
  H       -0.4079780     2.7850560     0.0002120
  H        3.2235170    -0.3366370     0.0005700
  H        2.4001700    -1.8548790     0.0010060
units angstrom
no_reorient  #important for SAPT in psi4, default
symmetry c1  #important for SAPT in psi4, default
}

set PROPERTIES_ORIGIN ["COM"]
properties('MP2/aug-cc-pvtz', properties = ['dipole'])
--------------------------------------------------------------------------

    Molecular point group: c1
  Charge       = 0
  Multiplicity = 1
  Basis Set: AUG-CC-PVTZ
    Blend: AUG-CC-PVTZ
  Basis Set: (AUG-CC-PVTZ AUX)
    Blend: AUG-CC-PVTZ-JKFIT

    Orbital Energies [Eh]
    ---------------------

    Doubly Occupied:

       1A    -20.508895     2A    -15.630224     3A    -15.628618
       4A    -15.546159     5A    -11.384582     6A    -11.375024
       7A    -11.309783     8A    -11.234180     9A     -1.388433
      10A     -1.324029    11A     -1.242431    12A     -1.197695
      13A     -1.059228    14A     -0.911234    15A     -0.881528
      16A     -0.792355    17A     -0.749238    18A     -0.716717
      19A     -0.688937    20A     -0.638782    21A     -0.638384
      22A     -0.620402    23A     -0.569946    24A     -0.547593
      25A     -0.460625    26A     -0.447477    27A     -0.440730
      28A     -0.415356    29A     -0.326586

  @DF-RHF Final Energy:  -392.74759018652088

   => Energetics <=

    Nuclear Repulsion Energy =            355.2904545019110287
    One-Electron Energy =               -1238.7257471349139450
    Two-Electron Energy =                 490.6877024464820920
    Total Energy =                       -392.7475901865208812
  Basis Set: (AUG-CC-PVTZ AUX)
    Blend: AUG-CC-PVTZ-RI
    Molecular point group: c1

    Geometry (in Angstrom), charge = 0, multiplicity = 1:

       Center              X                  Y                   Z               Mass
    ------------   -----------------  -----------------  -----------------  -----------------
         O           -2.166502650467    -1.157756043502     0.000145513550    15.994914619570
         N            0.093479349533    -0.898693043502    -0.000015486450    14.003074004430
         N            2.397308949533    -0.878645743502    -0.000512186450    14.003074004430
         N           -1.330378650467     1.012658956498     0.000229513550    14.003074004430
         C            1.237572349533    -0.167091043502    -0.000119486450    12.000000000000
         C            1.105563349533     1.208460956498    -0.000077486450    12.000000000000
         C           -1.230916650467    -0.365331043502     0.000165513550    12.000000000000
         C           -0.208771650467     1.711634956498     0.000062513550    12.000000000000
         H            0.117592349533    -1.914969043502    -0.000208486450     1.007825032230
         H            1.969437349533     1.861629956498    -0.000150486450     1.007825032230
         H           -0.341011650467     2.794833956498     0.000223513550     1.007825032230
         H            3.290483349533    -0.326859043502     0.000581513550     1.007825032230
         H            2.467136349533    -1.845101043502     0.001017513550     1.007825032230

  Basis Set: AUG-CC-PVTZ
    Blend: AUG-CC-PVTZ
  Basis Set: (AUG-CC-PVTZ AUX)
    Blend: AUG-CC-PVTZ-JKFIT
	 Reference Energy          =    -392.7475901865208812 [Eh]
	 Singles Energy            =      -0.0000000000000000 [Eh]
	 Same-Spin Energy          =      -0.4068862277452230 [Eh]
	 Opposite-Spin Energy      =      -1.2142840545148972 [Eh]
	 Correlation Energy        =      -1.6211702822601202 [Eh]
	 Total Energy              =    -394.3687604687809767 [Eh]

	 ================> DF-SCS-MP2 Energies <==================
	-----------------------------------------------------------
	 SCS Same-Spin Scale       =       0.3333333333333333 [-]
	 SCS Opposite-Spin Scale   =       1.2000000000000000 [-]
	 SCS Same-Spin Energy      =      -0.1356287425817410 [Eh]
	 SCS Opposite-Spin Energy  =      -1.4571408654178766 [Eh]
	 SCS Correlation Energy    =      -1.5927696079996176 [Eh]
	 SCS Total Energy          =    -394.3403597945205092 [Eh]
	-----------------------------------------------------------

  Dipole Moment: [D]
     X:     8.1412      Y:    -0.8109      Z:     0.0030     Total:     8.1815

*** Psi4 exiting successfully. Buy a developer a beer!
