                               Psi4 1.3.2 release

  ==> Input File <==

--------------------------------------------------------------------------
#psi4
#
memory 32 gb

molecule  {
0 1
  O       -2.2334690    -1.1675340     0.0001340
  N        0.0265130    -0.9084710    -0.0000270
  N        2.3544690    -0.8475160    -0.0005320
  N       -1.3973450     1.0028810     0.0002180
  C        1.1706060    -0.1768690    -0.0001310
  C        1.0385970     1.1986830    -0.0000890
  C       -1.2978830    -0.3751090     0.0001540
  C       -0.2757380     1.7018570     0.0000510
  H        0.0506260    -1.9247470    -0.0002200
  H        1.9024710     1.8518520    -0.0001620
  H       -0.3837414     2.5865300     0.0001825
  H        3.2235170    -0.3366370     0.0005700
  H        2.4001700    -1.8548790     0.0010060
units angstrom
no_reorient  #important for SAPT in psi4, default
symmetry c1  #important for SAPT in psi4, default
}

set PROPERTIES_ORIGIN ["COM"]
properties('MP2/aug-cc-pvtz', properties = ['dipole'])
--------------------------------------------------------------------------

    Molecular point group: c1
  Charge       = 0
  Multiplicity = 1
  Basis Set: AUG-CC-PVTZ
    Blend: AUG-CC-PVTZ
  Basis Set: (AUG-CC-PVTZ AUX)
    Blend: AUG-CC-PVTZ-JKFIT

    Orbital Energies [Eh]
    ---------------------

    Doubly Occupied:

       1A    -20.508556     2A    -15.631640     3A    -15.628525
       4A    -15.544615     5A    -11.383457     6A    -11.374295
       7A    -11.285751     8A    -11.231346     9A     -1.387973
      10A     -1.322778    11A     -1.243301    12A     -1.200725
      13A     -1.058996    14A     -0.934166    15A     -0.885399
      16A     -0.784829    17A     -0.752646    18A     -0.735611
      19A     -0.701730    20A     -0.647269    21A     -0.637831
      22A     -0.619711    23A     -0.581154    24A     -0.547144
      25A     -0.459752    26A     -0.446991    27A     -0.441437
      28A     -0.417374    29A     -0.324768

  @DF-RHF Final Energy:  -392.71751855096841

   => Energetics <=

    Nuclear Repulsion Energy =            356.3769757664886129
    One-Electron Energy =               -1240.7494489276546119
    Two-Electron Energy =                 491.6549546101975920
    Total Energy =                       -392.7175185509684070
  Basis Set: (AUG-CC-PVTZ AUX)
    Blend: AUG-CC-PVTZ-RI
    Molecular point group: c1

    Geometry (in Angstrom), charge = 0, multiplicity = 1:

       Center              X                  Y                   Z               Mass
    ------------   -----------------  -----------------  -----------------  -----------------
         O           -2.169765072796    -1.161112880037     0.000146827960    15.994914619570
         N            0.090216927204    -0.902049880037    -0.000014172040    14.003074004430
         N            2.418172927204    -0.841094880037    -0.000519172040    14.003074004430
         N           -1.333641072796     1.009302119963     0.000230827960    14.003074004430
         C            1.234309927204    -0.170447880037    -0.000118172040    12.000000000000
         C            1.102300927204     1.205104119963    -0.000076172040    12.000000000000
         C           -1.234179072796    -0.368687880037     0.000166827960    12.000000000000
         C           -0.212034072796     1.708278119963     0.000063827960    12.000000000000
         H            0.114329927204    -1.918325880037    -0.000207172040     1.007825032230
         H            1.966174927204     1.858273119963    -0.000149172040     1.007825032230
         H           -0.320037472796     2.592951119963     0.000195327960     1.007825032230
         H            3.287220927204    -0.330215880037     0.000582827960     1.007825032230
         H            2.463873927204    -1.848457880037     0.001018827960     1.007825032230

  Basis Set: AUG-CC-PVTZ
    Blend: AUG-CC-PVTZ
  Basis Set: (AUG-CC-PVTZ AUX)
    Blend: AUG-CC-PVTZ-JKFIT
	 Reference Energy          =    -392.7175185509684070 [Eh]
	 Singles Energy            =      -0.0000000000000000 [Eh]
	 Same-Spin Energy          =      -0.4066051497915031 [Eh]
	 Opposite-Spin Energy      =      -1.2135883606148388 [Eh]
	 Correlation Energy        =      -1.6201935104063419 [Eh]
	 Total Energy              =    -394.3377120613747593 [Eh]

	 ================> DF-SCS-MP2 Energies <==================
	-----------------------------------------------------------
	 SCS Same-Spin Scale       =       0.3333333333333333 [-]
	 SCS Opposite-Spin Scale   =       1.2000000000000000 [-]
	 SCS Same-Spin Energy      =      -0.1355350499305010 [Eh]
	 SCS Opposite-Spin Energy  =      -1.4563060327378066 [Eh]
	 SCS Correlation Energy    =      -1.5918410826683076 [Eh]
	 SCS Total Energy          =    -394.3093596336366886 [Eh]
	-----------------------------------------------------------

  Dipole Moment: [D]
     X:     8.1648      Y:    -0.8176      Z:     0.0030     Total:     8.2056

*** Psi4 exiting successfully. Buy a developer a beer!
