                               Psi4 1.3.2 release

  ==> Input File <==

--------------------------------------------------------------------------
#psi4
#
memory 32 gb

molecule  {
0 1
  O       -2.2334690    -1.1675340     0.0001340
  N        0.0265130    -0.9084710    -0.0000270
  N        2.3544690    -0.8475160    -0.0005320
  N       -1.3973450     1.0028810     0.0002180
  C        0.9965884    -0.0782897    -0.0000721
  C        1.0385970     1.1986830    -0.0000890
  C       -1.2978830    -0.3751090     0.0001540
  C       -0.2757380     1.7018570     0.0000510
  H        0.0506260    -1.9247470    -0.0002200
  H        1.9024710     1.8518520    -0.0001620
  H       -0.4079780     2.7850560     0.0002120
  H        3.2235170    -0.3366370     0.0005700
  H        2.4001700    -1.8548790     0.0010060
units angstrom
no_reorient  #important for SAPT in psi4, default
symmetry c1  #important for SAPT in psi4, default
}

set PROPERTIES_ORIGIN ["COM"]
properties('MP2/aug-cc-pvtz', properties = ['dipole'])
--------------------------------------------------------------------------

    Molecular point group: c1
  Charge       = 0
  Multiplicity = 1
  Basis Set: AUG-CC-PVTZ
    Blend: AUG-CC-PVTZ
  Basis Set: (AUG-CC-PVTZ AUX)
    Blend: AUG-CC-PVTZ-JKFIT

    Orbital Energies [Eh]
    ---------------------

    Doubly Occupied:

       1A    -20.518972     2A    -15.641904     3A    -15.591752
       4A    -15.562354     5A    -11.383828     6A    -11.374874
       7A    -11.321830     8A    -11.235877     9A     -1.406801
      10A     -1.329211    11A     -1.233422    12A     -1.173594
      13A     -1.089854    14A     -0.920013    15A     -0.890115
      16A     -0.792109    17A     -0.751464    18A     -0.702029
      19A     -0.676195    20A     -0.654812    21A     -0.646137
      22A     -0.600822    23A     -0.588799    24A     -0.531328
      25A     -0.474585    26A     -0.459337    27A     -0.430424
      28A     -0.422823    29A     -0.347029

  @DF-RHF Final Energy:  -392.70179746381228

   => Energetics <=

    Nuclear Repulsion Energy =            357.1785053727700188
    One-Electron Energy =               -1242.2560140360533296
    Two-Electron Energy =                 492.3757111994710272
    Total Energy =                       -392.7017974638122837
  Basis Set: (AUG-CC-PVTZ AUX)
    Blend: AUG-CC-PVTZ-RI
    Molecular point group: c1

    Geometry (in Angstrom), charge = 0, multiplicity = 1:

       Center              X                  Y                   Z               Mass
    ------------   -----------------  -----------------  -----------------  -----------------
         O           -2.150739718011    -1.173567765187     0.000140195132    15.994914619570
         N            0.109242281989    -0.914504765187    -0.000020804868    14.003074004430
         N            2.437198281989    -0.853549765187    -0.000525804868    14.003074004430
         N           -1.314615718011     0.996847234813     0.000224195132    14.003074004430
         C            1.079317681989    -0.084323465187    -0.000065904868    12.000000000000
         C            1.121326281989     1.192649234813    -0.000082804868    12.000000000000
         C           -1.215153718011    -0.381142765187     0.000160195132    12.000000000000
         C           -0.193008718011     1.695823234813     0.000057195132    12.000000000000
         H            0.133355281989    -1.930780765187    -0.000213804868     1.007825032230
         H            1.985200281989     1.845818234813    -0.000155804868     1.007825032230
         H           -0.325248718011     2.779022234813     0.000218195132     1.007825032230
         H            3.306246281989    -0.342670765187     0.000576195132     1.007825032230
         H            2.482899281989    -1.860912765187     0.001012195132     1.007825032230

  Basis Set: AUG-CC-PVTZ
    Blend: AUG-CC-PVTZ
  Basis Set: (AUG-CC-PVTZ AUX)
    Blend: AUG-CC-PVTZ-JKFIT
	 Reference Energy          =    -392.7017974638122837 [Eh]
	 Singles Energy            =      -0.0000000000000000 [Eh]
	 Same-Spin Energy          =      -0.4074136286206721 [Eh]
	 Opposite-Spin Energy      =      -1.2164445380226276 [Eh]
	 Correlation Energy        =      -1.6238581666432998 [Eh]
	 Total Energy              =    -394.3256556304555716 [Eh]

	 ================> DF-SCS-MP2 Energies <==================
	-----------------------------------------------------------
	 SCS Same-Spin Scale       =       0.3333333333333333 [-]
	 SCS Opposite-Spin Scale   =       1.2000000000000000 [-]
	 SCS Same-Spin Energy      =      -0.1358045428735574 [Eh]
	 SCS Opposite-Spin Energy  =      -1.4597334456271531 [Eh]
	 SCS Correlation Energy    =      -1.5955379885007104 [Eh]
	 SCS Total Energy          =    -394.2973354523130070 [Eh]
	-----------------------------------------------------------

  Dipole Moment: [D]
     X:     6.5356      Y:    -0.0167      Z:     0.0034     Total:     6.5357

*** Psi4 exiting successfully. Buy a developer a beer!
