                               Psi4 1.3.2 release

  ==> Input File <==

--------------------------------------------------------------------------
#psi4
#
memory 32 gb

molecule  {
0 1
  O       -2.2334690    -1.1675340     0.0001340
  N        0.0265130    -0.9084710    -0.0000270
  N        2.3544690    -0.8475160    -0.0005320
  N       -1.3973450     1.0028810     0.0002180
  C        1.1706060    -0.1768690    -0.0001310
  C        1.0296152     1.1758213    -0.0000918
  C       -1.2978830    -0.3751090     0.0001540
  C       -0.2757380     1.7018570     0.0000510
  H        0.0506260    -1.9247470    -0.0002200
  H        1.9024710     1.8518520    -0.0001620
  H       -0.4079780     2.7850560     0.0002120
  H        3.2235170    -0.3366370     0.0005700
  H        2.4001700    -1.8548790     0.0010060
units angstrom
no_reorient  #important for SAPT in psi4, default
symmetry c1  #important for SAPT in psi4, default
}

set PROPERTIES_ORIGIN ["COM"]
properties('MP2/aug-cc-pvtz', properties = ['dipole'])
--------------------------------------------------------------------------

    Molecular point group: c1
  Charge       = 0
  Multiplicity = 1
  Basis Set: AUG-CC-PVTZ
    Blend: AUG-CC-PVTZ
  Basis Set: (AUG-CC-PVTZ AUX)
    Blend: AUG-CC-PVTZ-JKFIT

    Orbital Energies [Eh]
    ---------------------

    Doubly Occupied:

       1A    -20.509303     2A    -15.630298     3A    -15.627132
       4A    -15.547008     5A    -11.380077     6A    -11.375790
       7A    -11.310169     8A    -11.232092     9A     -1.388682
      10A     -1.323127    11A     -1.242851    12A     -1.198819
      13A     -1.060249    14A     -0.910988    15A     -0.882523
      16A     -0.783879    17A     -0.751298    18A     -0.721022
      19A     -0.692213    20A     -0.639014    21A     -0.637130
      22A     -0.617528    23A     -0.569489    24A     -0.547749
      25A     -0.460680    26A     -0.447637    27A     -0.441431
      28A     -0.416033    29A     -0.327167

  @DF-RHF Final Energy:  -392.75049561682158

   => Energetics <=

    Nuclear Repulsion Energy =            355.6410699881383835
    One-Electron Energy =               -1239.4403748332024406
    Two-Electron Energy =                 491.0488092282424759
    Total Energy =                       -392.7504956168215813
  Basis Set: (AUG-CC-PVTZ AUX)
    Blend: AUG-CC-PVTZ-RI
    Molecular point group: c1

    Geometry (in Angstrom), charge = 0, multiplicity = 1:

       Center              X                  Y                   Z               Mass
    ------------   -----------------  -----------------  -----------------  -----------------
         O           -2.168574475096    -1.160444123316     0.000146862804    15.994914619570
         N            0.091407524904    -0.901381123316    -0.000014137196    14.003074004430
         N            2.419363524904    -0.840426123316    -0.000519137196    14.003074004430
         N           -1.332450475096     1.009970876684     0.000230862804    14.003074004430
         C            1.235500524904    -0.169779123316    -0.000118137196    12.000000000000
         C            1.094509724904     1.182911176684    -0.000078937196    12.000000000000
         C           -1.232988475096    -0.368019123316     0.000166862804    12.000000000000
         C           -0.210843475096     1.708946876684     0.000063862804    12.000000000000
         H            0.115520524904    -1.917657123316    -0.000207137196     1.007825032230
         H            1.967365524904     1.858941876684    -0.000149137196     1.007825032230
         H           -0.343083475096     2.792145876684     0.000224862804     1.007825032230
         H            3.288411524904    -0.329547123316     0.000582862804     1.007825032230
         H            2.465064524904    -1.847789123316     0.001018862804     1.007825032230

  Basis Set: AUG-CC-PVTZ
    Blend: AUG-CC-PVTZ
  Basis Set: (AUG-CC-PVTZ AUX)
    Blend: AUG-CC-PVTZ-JKFIT
	 Reference Energy          =    -392.7504956168215813 [Eh]
	 Singles Energy            =      -0.0000000000000000 [Eh]
	 Same-Spin Energy          =      -0.4069255565164064 [Eh]
	 Opposite-Spin Energy      =      -1.2142085564371179 [Eh]
	 Correlation Energy        =      -1.6211341129535244 [Eh]
	 Total Energy              =    -394.3716297297751225 [Eh]

	 ================> DF-SCS-MP2 Energies <==================
	-----------------------------------------------------------
	 SCS Same-Spin Scale       =       0.3333333333333333 [-]
	 SCS Opposite-Spin Scale   =       1.2000000000000000 [-]
	 SCS Same-Spin Energy      =      -0.1356418521721355 [Eh]
	 SCS Opposite-Spin Energy  =      -1.4570502677245414 [Eh]
	 SCS Correlation Energy    =      -1.5926921198966768 [Eh]
	 SCS Total Energy          =    -394.3431877367182778 [Eh]
	-----------------------------------------------------------

  Dipole Moment: [D]
     X:     8.0747      Y:    -0.7951      Z:     0.0030     Total:     8.1137

*** Psi4 exiting successfully. Buy a developer a beer!
