                               Psi4 1.3.2 release

  ==> Input File <==

--------------------------------------------------------------------------
#psi4
#
memory 32 gb

molecule  {
0 1
  O       -2.2334690    -1.1675340     0.0001340
  N        0.0265130    -0.9084710    -0.0000270
  N        2.3544690    -0.8475160    -0.0005320
  N       -1.3973450     1.0028810     0.0002180
  C        1.1069896    -0.3042901    -0.0003370
  C        1.0385970     1.1986830    -0.0000890
  C       -1.2978830    -0.3751090     0.0001540
  C       -0.2757380     1.7018570     0.0000510
  H        0.0506260    -1.9247470    -0.0002200
  H        1.9024710     1.8518520    -0.0001620
  H       -0.4079780     2.7850560     0.0002120
  H        3.2235170    -0.3366370     0.0005700
  H        2.4001700    -1.8548790     0.0010060
units angstrom
no_reorient  #important for SAPT in psi4, default
symmetry c1  #important for SAPT in psi4, default
}

set PROPERTIES_ORIGIN ["COM"]
properties('MP2/aug-cc-pvtz', properties = ['dipole'])
--------------------------------------------------------------------------

    Molecular point group: c1
  Charge       = 0
  Multiplicity = 1
  Basis Set: AUG-CC-PVTZ
    Blend: AUG-CC-PVTZ
  Basis Set: (AUG-CC-PVTZ AUX)
    Blend: AUG-CC-PVTZ-JKFIT

    Orbital Energies [Eh]
    ---------------------

    Doubly Occupied:

       1A    -20.514134     2A    -15.650582     3A    -15.635674
       4A    -15.534726     5A    -11.390934     6A    -11.380751
       7A    -11.295975     8A    -11.232727     9A     -1.411067
      10A     -1.346203    11A     -1.252230    12A     -1.209438
      13A     -1.030418    14A     -0.918256    15A     -0.894965
      16A     -0.802960    17A     -0.760777    18A     -0.737690
      19A     -0.677788    20A     -0.662058    21A     -0.629622
      22A     -0.612850    23A     -0.554099    24A     -0.550532
      25A     -0.462701    26A     -0.451938    27A     -0.448835
      28A     -0.410462    29A     -0.308664

  @DF-RHF Final Energy:  -392.72478775225153

   => Energetics <=

    Nuclear Repulsion Energy =            355.8681022148675765
    One-Electron Energy =               -1239.6476663041646589
    Two-Electron Energy =                 491.0547763370455527
    Total Energy =                       -392.7247877522515296
  Basis Set: (AUG-CC-PVTZ AUX)
    Blend: AUG-CC-PVTZ-RI
    Molecular point group: c1

    Geometry (in Angstrom), charge = 0, multiplicity = 1:

       Center              X                  Y                   Z               Mass
    ------------   -----------------  -----------------  -----------------  -----------------
         O           -2.162670332967    -1.149144808259     0.000168821813    15.994914619570
         N            0.097311667033    -0.890081808259     0.000007821813    14.003074004430
         N            2.425267667033    -0.829126808259    -0.000497178187    14.003074004430
         N           -1.326546332967     1.021270191741     0.000252821813    14.003074004430
         C            1.177788267033    -0.285900908259    -0.000302178187    12.000000000000
         C            1.109395667033     1.217072191741    -0.000054178187    12.000000000000
         C           -1.227084332967    -0.356719808259     0.000188821813    12.000000000000
         C           -0.204939332967     1.720246191741     0.000085821813    12.000000000000
         H            0.121424667033    -1.906357808259    -0.000185178187     1.007825032230
         H            1.973269667033     1.870241191741    -0.000127178187     1.007825032230
         H           -0.337179332967     2.803445191741     0.000246821813     1.007825032230
         H            3.294315667033    -0.318247808259     0.000604821813     1.007825032230
         H            2.470968667033    -1.836489808259     0.001040821813     1.007825032230

  Basis Set: AUG-CC-PVTZ
    Blend: AUG-CC-PVTZ
  Basis Set: (AUG-CC-PVTZ AUX)
    Blend: AUG-CC-PVTZ-JKFIT
	 Reference Energy          =    -392.7247877522515296 [Eh]
	 Singles Energy            =      -0.0000000000000000 [Eh]
	 Same-Spin Energy          =      -0.4071647452781685 [Eh]
	 Opposite-Spin Energy      =      -1.2140857411254697 [Eh]
	 Correlation Energy        =      -1.6212504864036381 [Eh]
	 Total Energy              =    -394.3460382386551828 [Eh]

	 ================> DF-SCS-MP2 Energies <==================
	-----------------------------------------------------------
	 SCS Same-Spin Scale       =       0.3333333333333333 [-]
	 SCS Opposite-Spin Scale   =       1.2000000000000000 [-]
	 SCS Same-Spin Energy      =      -0.1357215817593895 [Eh]
	 SCS Opposite-Spin Energy  =      -1.4569028893505636 [Eh]
	 SCS Correlation Energy    =      -1.5926244711099531 [Eh]
	 SCS Total Energy          =    -394.3174122233614867 [Eh]
	-----------------------------------------------------------

  Dipole Moment: [D]
     X:     8.2938      Y:    -1.5885      Z:     0.0028     Total:     8.4445

*** Psi4 exiting successfully. Buy a developer a beer!
