                               Psi4 1.3.2 release

  ==> Input File <==

--------------------------------------------------------------------------
#psi4
#
memory 32 gb

molecule  {
0 1
  O       -2.2334690    -1.1675340     0.0001340
  N        0.0265130    -0.9084710    -0.0000270
  N        2.3544690    -0.8475160    -0.0005320
  N       -1.3973450     1.0028810     0.0002180
  C        1.1706060    -0.1768690    -0.0001310
  C        1.0385970     1.1986830    -0.0000890
  C       -1.2978830    -0.3751090     0.0001540
  C       -0.2757380     1.7018570     0.0000510
  H        0.0506260    -1.9247470    -0.0002200
  H        1.9024710     1.8518520    -0.0001620
  H       -0.3958597     2.6857930     0.0001972
  H        3.2235170    -0.3366370     0.0005700
  H        2.4001700    -1.8548790     0.0010060
units angstrom
no_reorient  #important for SAPT in psi4, default
symmetry c1  #important for SAPT in psi4, default
}

set PROPERTIES_ORIGIN ["COM"]
properties('MP2/aug-cc-pvtz', properties = ['dipole'])
--------------------------------------------------------------------------

    Molecular point group: c1
  Charge       = 0
  Multiplicity = 1
  Basis Set: AUG-CC-PVTZ
    Blend: AUG-CC-PVTZ
  Basis Set: (AUG-CC-PVTZ AUX)
    Blend: AUG-CC-PVTZ-JKFIT

    Orbital Energies [Eh]
    ---------------------

    Doubly Occupied:

       1A    -20.508813     2A    -15.631756     3A    -15.628690
       4A    -15.544932     5A    -11.383721     6A    -11.374836
       7A    -11.297286     8A    -11.231780     9A     -1.388216
      10A     -1.322974    11A     -1.242815    12A     -1.199511
      13A     -1.057919    14A     -0.919456    15A     -0.884570
      16A     -0.784433    17A     -0.752591    18A     -0.727033
      19A     -0.697031    20A     -0.642573    21A     -0.638076
      22A     -0.619885    23A     -0.576299    24A     -0.547399
      25A     -0.459818    26A     -0.447171    27A     -0.441639
      28A     -0.416403    29A     -0.325114

  @DF-RHF Final Energy:  -392.74568156171733

   => Energetics <=

    Nuclear Repulsion Energy =            355.7451141457082713
    One-Electron Energy =               -1239.5961076357320962
    Two-Electron Energy =                 491.1053119283064916
    Total Energy =                       -392.7456815617173334
  Basis Set: (AUG-CC-PVTZ AUX)
    Blend: AUG-CC-PVTZ-RI
    Molecular point group: c1

    Geometry (in Angstrom), charge = 0, multiplicity = 1:

       Center              X                  Y                   Z               Mass
    ------------   -----------------  -----------------  -----------------  -----------------
         O           -2.169655087500    -1.162013787796     0.000146694543    15.994914619570
         N            0.090326912500    -0.902950787796    -0.000014305457    14.003074004430
         N            2.418282912500    -0.841995787796    -0.000519305457    14.003074004430
         N           -1.333531087500     1.008401212204     0.000230694543    14.003074004430
         C            1.234419912500    -0.171348787796    -0.000118305457    12.000000000000
         C            1.102410912500     1.204203212204    -0.000076305457    12.000000000000
         C           -1.234069087500    -0.369588787796     0.000166694543    12.000000000000
         C           -0.211924087500     1.707377212204     0.000063694543    12.000000000000
         H            0.114439912500    -1.919226787796    -0.000207305457     1.007825032230
         H            1.966284912500     1.857372212204    -0.000149305457     1.007825032230
         H           -0.332045787500     2.691313212204     0.000209894543     1.007825032230
         H            3.287330912500    -0.331116787796     0.000582694543     1.007825032230
         H            2.463983912500    -1.849358787796     0.001018694543     1.007825032230

  Basis Set: AUG-CC-PVTZ
    Blend: AUG-CC-PVTZ
  Basis Set: (AUG-CC-PVTZ AUX)
    Blend: AUG-CC-PVTZ-JKFIT
	 Reference Energy          =    -392.7456815617173334 [Eh]
	 Singles Energy            =      -0.0000000000000000 [Eh]
	 Same-Spin Energy          =      -0.4066560168245122 [Eh]
	 Opposite-Spin Energy      =      -1.2135881890878886 [Eh]
	 Correlation Energy        =      -1.6202442059124007 [Eh]
	 Total Energy              =    -394.3659257676297329 [Eh]

	 ================> DF-SCS-MP2 Energies <==================
	-----------------------------------------------------------
	 SCS Same-Spin Scale       =       0.3333333333333333 [-]
	 SCS Opposite-Spin Scale   =       1.2000000000000000 [-]
	 SCS Same-Spin Energy      =      -0.1355520056081707 [Eh]
	 SCS Opposite-Spin Energy  =      -1.4563058269054663 [Eh]
	 SCS Correlation Energy    =      -1.5918578325136370 [Eh]
	 SCS Total Energy          =    -394.3375393942309870 [Eh]
	-----------------------------------------------------------

  Dipole Moment: [D]
     X:     8.1519      Y:    -0.8309      Z:     0.0030     Total:     8.1941

*** Psi4 exiting successfully. Buy a developer a beer!
