                               Psi4 1.3.2 release

  ==> Input File <==

--------------------------------------------------------------------------
#psi4
#
memory 32 gb

molecule  {
0 1
  O       -2.2334690    -1.1675340     0.0001340
  N        0.0265130    -0.9084710    -0.0000270
  N        2.3544690    -0.8475160    -0.0005320
  N       -1.3973450     1.0028810     0.0002180
  C        1.1706060    -0.1768690    -0.0001310
  C        1.0385970     1.1986830    -0.0000890
  C       -1.2978830    -0.3751090     0.0001540
  C       -0.2757380     1.7018570     0.0000510
  H        0.0506260    -1.9247470    -0.0002200
  H        1.9024710     1.8518520    -0.0001620
  H       -0.4079780     2.7850560     0.0002120
  H        3.2051583    -0.3066189     0.0004883
  H        2.4001700    -1.8548790     0.0010060
units angstrom
no_reorient  #important for SAPT in psi4, default
symmetry c1  #important for SAPT in psi4, default
}

set PROPERTIES_ORIGIN ["COM"]
properties('MP2/aug-cc-pvtz', properties = ['dipole'])
--------------------------------------------------------------------------

    Molecular point group: c1
  Charge       = 0
  Multiplicity = 1
  Basis Set: AUG-CC-PVTZ
    Blend: AUG-CC-PVTZ
  Basis Set: (AUG-CC-PVTZ AUX)
    Blend: AUG-CC-PVTZ-JKFIT

    Orbital Energies [Eh]
    ---------------------

    Doubly Occupied:

       1A    -20.509264     2A    -15.631905     3A    -15.629094
       4A    -15.545694     5A    -11.383663     6A    -11.375609
       7A    -11.308984     8A    -11.232696     9A     -1.388659
      10A     -1.323567    11A     -1.242991    12A     -1.199048
      13A     -1.057455    14A     -0.909090    15A     -0.883198
      16A     -0.785290    17A     -0.753148    18A     -0.720806
      19A     -0.692339    20A     -0.638499    21A     -0.636866
      22A     -0.620232    23A     -0.569480    24A     -0.547889
      25A     -0.460268    26A     -0.447565    27A     -0.441981
      28A     -0.415334    29A     -0.325722

  @DF-RHF Final Energy:  -392.75120737901375

   => Energetics <=

    Nuclear Repulsion Energy =            355.2423767186592727
    One-Electron Energy =               -1238.6345002250002381
    Two-Electron Energy =                 490.6409161273272730
    Total Energy =                       -392.7512073790137492
  Basis Set: (AUG-CC-PVTZ AUX)
    Blend: AUG-CC-PVTZ-RI
    Molecular point group: c1

    Geometry (in Angstrom), charge = 0, multiplicity = 1:

       Center              X                  Y                   Z               Mass
    ------------   -----------------  -----------------  -----------------  -----------------
         O           -2.169378479239    -1.163187138855     0.000147301725    15.994914619570
         N            0.090603520761    -0.904124138855    -0.000013698275    14.003074004430
         N            2.418559520761    -0.843169138855    -0.000518698275    14.003074004430
         N           -1.333254479239     1.007227861145     0.000231301725    14.003074004430
         C            1.234696520761    -0.172522138855    -0.000117698275    12.000000000000
         C            1.102687520761     1.203029861145    -0.000075698275    12.000000000000
         C           -1.233792479239    -0.370762138855     0.000167301725    12.000000000000
         C           -0.211647479239     1.706203861145     0.000064301725    12.000000000000
         H            0.114716520761    -1.920400138855    -0.000206698275     1.007825032230
         H            1.966561520761     1.856198861145    -0.000148698275     1.007825032230
         H           -0.343887479239     2.789402861145     0.000225301725     1.007825032230
         H            3.269248820761    -0.302272038855     0.000501601725     1.007825032230
         H            2.464260520761    -1.850532138855     0.001019301725     1.007825032230

  Basis Set: AUG-CC-PVTZ
    Blend: AUG-CC-PVTZ
  Basis Set: (AUG-CC-PVTZ AUX)
    Blend: AUG-CC-PVTZ-JKFIT
	 Reference Energy          =    -392.7512073790137492 [Eh]
	 Singles Energy            =      -0.0000000000000000 [Eh]
	 Same-Spin Energy          =      -0.4068624320669511 [Eh]
	 Opposite-Spin Energy      =      -1.2140879363737045 [Eh]
	 Correlation Energy        =      -1.6209503684406554 [Eh]
	 Total Energy              =    -394.3721577474544233 [Eh]

	 ================> DF-SCS-MP2 Energies <==================
	-----------------------------------------------------------
	 SCS Same-Spin Scale       =       0.3333333333333333 [-]
	 SCS Opposite-Spin Scale   =       1.2000000000000000 [-]
	 SCS Same-Spin Energy      =      -0.1356208106889837 [Eh]
	 SCS Opposite-Spin Energy  =      -1.4569055236484454 [Eh]
	 SCS Correlation Energy    =      -1.5925263343374292 [Eh]
	 SCS Total Energy          =    -394.3437337133511846 [Eh]
	-----------------------------------------------------------

  Dipole Moment: [D]
     X:     8.1220      Y:    -0.8549      Z:     0.0029     Total:     8.1669

*** Psi4 exiting successfully. Buy a developer a beer!
