                               Psi4 1.3.2 release

  ==> Input File <==

--------------------------------------------------------------------------
#psi4
#
memory 32 gb

molecule  {
0 1
  O       -2.2334690    -1.1675340     0.0001340
  N        0.0265130    -0.9084710    -0.0000270
  N        2.3544690    -0.8475160    -0.0005320
  N       -1.3973450     1.0028810     0.0002180
  C        1.1706060    -0.1768690    -0.0001310
  C        1.0385970     1.1986830    -0.0000890
  C       -1.3219474    -0.3766350     0.0001580
  C       -0.2757380     1.7018570     0.0000510
  H        0.0506260    -1.9247470    -0.0002200
  H        1.9024710     1.8518520    -0.0001620
  H       -0.4079780     2.7850560     0.0002120
  H        3.2235170    -0.3366370     0.0005700
  H        2.4001700    -1.8548790     0.0010060
units angstrom
no_reorient  #important for SAPT in psi4, default
symmetry c1  #important for SAPT in psi4, default
}

set PROPERTIES_ORIGIN ["COM"]
properties('MP2/aug-cc-pvtz', properties = ['dipole'])
--------------------------------------------------------------------------

    Molecular point group: c1
  Charge       = 0
  Multiplicity = 1
  Basis Set: AUG-CC-PVTZ
    Blend: AUG-CC-PVTZ
  Basis Set: (AUG-CC-PVTZ AUX)
    Blend: AUG-CC-PVTZ-JKFIT

    Orbital Energies [Eh]
    ---------------------

    Doubly Occupied:

       1A    -20.514543     2A    -15.627745     3A    -15.627256
       4A    -15.543705     5A    -11.382177     6A    -11.376478
       7A    -11.308321     8A    -11.230500     9A     -1.396626
      10A     -1.324914    11A     -1.241909    12A     -1.195051
      13A     -1.055852    14A     -0.907930    15A     -0.878663
      16A     -0.781631    17A     -0.751313    18A     -0.718169
      19A     -0.690676    20A     -0.636519    21A     -0.635844
      22A     -0.624103    23A     -0.571871    24A     -0.551135
      25A     -0.460381    26A     -0.453067    27A     -0.442458
      28A     -0.412237    29A     -0.324929

  @DF-RHF Final Energy:  -392.75165458424777

   => Energetics <=

    Nuclear Repulsion Energy =            355.0582440201396821
    One-Electron Energy =               -1238.2877858375782125
    Two-Electron Energy =                 490.4778872331907564
    Total Energy =                       -392.7516545842477740
  Basis Set: (AUG-CC-PVTZ AUX)
    Blend: AUG-CC-PVTZ-RI
    Molecular point group: c1

    Geometry (in Angstrom), charge = 0, multiplicity = 1:

       Center              X                  Y                   Z               Mass
    ------------   -----------------  -----------------  -----------------  -----------------
         O           -2.166944558997    -1.162749786855     0.000146127955    15.994914619570
         N            0.093037441003    -0.903686786855    -0.000014872045    14.003074004430
         N            2.420993441003    -0.842731786855    -0.000519872045    14.003074004430
         N           -1.330820558997     1.007665213145     0.000230127955    14.003074004430
         C            1.237130441003    -0.172084786855    -0.000118872045    12.000000000000
         C            1.105121441003     1.203467213145    -0.000076872045    12.000000000000
         C           -1.255422958997    -0.371850786855     0.000170127955    12.000000000000
         C           -0.209213558997     1.706641213145     0.000063127955    12.000000000000
         H            0.117150441003    -1.919962786855    -0.000207872045     1.007825032230
         H            1.968995441003     1.856636213145    -0.000149872045     1.007825032230
         H           -0.341453558997     2.789840213145     0.000224127955     1.007825032230
         H            3.290041441003    -0.331852786855     0.000582127955     1.007825032230
         H            2.466694441003    -1.850094786855     0.001018127955     1.007825032230

  Basis Set: AUG-CC-PVTZ
    Blend: AUG-CC-PVTZ
  Basis Set: (AUG-CC-PVTZ AUX)
    Blend: AUG-CC-PVTZ-JKFIT
	 Reference Energy          =    -392.7516545842477740 [Eh]
	 Singles Energy            =      -0.0000000000000000 [Eh]
	 Same-Spin Energy          =      -0.4065500121352260 [Eh]
	 Opposite-Spin Energy      =      -1.2134956345196664 [Eh]
	 Correlation Energy        =      -1.6200456466548925 [Eh]
	 Total Energy              =    -394.3717002309026611 [Eh]

	 ================> DF-SCS-MP2 Energies <==================
	-----------------------------------------------------------
	 SCS Same-Spin Scale       =       0.3333333333333333 [-]
	 SCS Opposite-Spin Scale   =       1.2000000000000000 [-]
	 SCS Same-Spin Energy      =      -0.1355166707117420 [Eh]
	 SCS Opposite-Spin Energy  =      -1.4561947614235995 [Eh]
	 SCS Correlation Energy    =      -1.5917114321353414 [Eh]
	 SCS Total Energy          =    -394.3433660163831291 [Eh]
	-----------------------------------------------------------

  Dipole Moment: [D]
     X:     7.9234      Y:    -0.9523      Z:     0.0030     Total:     7.9804

*** Psi4 exiting successfully. Buy a developer a beer!
