                               Psi4 1.3.2 release

  ==> Input File <==

--------------------------------------------------------------------------
#psi4
#
memory 32 gb

molecule  {
0 1
  O       -2.2334690    -1.1675340     0.0001340
  N        0.0265130    -0.9084710    -0.0000270
  N        2.3544690    -0.8475160    -0.0005320
  N       -1.3973450     1.0028810     0.0002180
  C        1.3391016    -0.0691228    -0.0001463
  C        1.0385970     1.1986830    -0.0000890
  C       -1.2978830    -0.3751090     0.0001540
  C       -0.2757380     1.7018570     0.0000510
  H        0.0506260    -1.9247470    -0.0002200
  H        1.9024710     1.8518520    -0.0001620
  H       -0.4079780     2.7850560     0.0002120
  H        3.2235170    -0.3366370     0.0005700
  H        2.4001700    -1.8548790     0.0010060
units angstrom
no_reorient  #important for SAPT in psi4, default
symmetry c1  #important for SAPT in psi4, default
}

set PROPERTIES_ORIGIN ["COM"]
properties('MP2/aug-cc-pvtz', properties = ['dipole'])
--------------------------------------------------------------------------

    Molecular point group: c1
  Charge       = 0
  Multiplicity = 1
  Basis Set: AUG-CC-PVTZ
    Blend: AUG-CC-PVTZ
  Basis Set: (AUG-CC-PVTZ AUX)
    Blend: AUG-CC-PVTZ-JKFIT

    Orbital Energies [Eh]
    ---------------------

    Doubly Occupied:

       1A    -20.501278     2A    -15.638918     3A    -15.602874
       4A    -15.551081     5A    -11.380429     6A    -11.365762
       7A    -11.316880     8A    -11.232370     9A     -1.372309
      10A     -1.333017    11A     -1.241945    12A     -1.165942
      13A     -1.078623    14A     -0.918355    15A     -0.865151
      16A     -0.795812    17A     -0.750835    18A     -0.723279
      19A     -0.676797    20A     -0.639898    21A     -0.626771
      22A     -0.609534    23A     -0.560000    24A     -0.545767
      25A     -0.460297    26A     -0.444431    27A     -0.417472
      28A     -0.410620    29A     -0.338074

  @DF-RHF Final Energy:  -392.70411444733924

   => Energetics <=

    Nuclear Repulsion Energy =            353.8112600767967706
    One-Electron Energy =               -1235.9017084521551624
    Two-Electron Energy =                 489.3863339280191553
    Total Energy =                       -392.7041144473392364
  Basis Set: (AUG-CC-PVTZ AUX)
    Blend: AUG-CC-PVTZ-RI
    Molecular point group: c1

    Geometry (in Angstrom), charge = 0, multiplicity = 1:

       Center              X                  Y                   Z               Mass
    ------------   -----------------  -----------------  -----------------  -----------------
         O           -2.187753745999    -1.174558395309     0.000148213629    15.994914619570
         N            0.072228254001    -0.915495395309    -0.000012786371    14.003074004430
         N            2.400184254001    -0.854540395309    -0.000517786371    14.003074004430
         N           -1.351629745999     0.995856604691     0.000232213629    14.003074004430
         C            1.384816854001    -0.076147195309    -0.000132086371    12.000000000000
         C            1.084312254001     1.191658604691    -0.000074786371    12.000000000000
         C           -1.252167745999    -0.382133395309     0.000168213629    12.000000000000
         C           -0.230022745999     1.694832604691     0.000065213629    12.000000000000
         H            0.096341254001    -1.931771395309    -0.000205786371     1.007825032230
         H            1.948186254001     1.844827604691    -0.000147786371     1.007825032230
         H           -0.362262745999     2.778031604691     0.000226213629     1.007825032230
         H            3.269232254001    -0.343661395309     0.000584213629     1.007825032230
         H            2.445885254001    -1.861903395309     0.001020213629     1.007825032230

  Basis Set: AUG-CC-PVTZ
    Blend: AUG-CC-PVTZ
  Basis Set: (AUG-CC-PVTZ AUX)
    Blend: AUG-CC-PVTZ-JKFIT
	 Reference Energy          =    -392.7041144473392364 [Eh]
	 Singles Energy            =      -0.0000000000000000 [Eh]
	 Same-Spin Energy          =      -0.4077125551541967 [Eh]
	 Opposite-Spin Energy      =      -1.2179990996674892 [Eh]
	 Correlation Energy        =      -1.6257116548216859 [Eh]
	 Total Energy              =    -394.3298261021609505 [Eh]

	 ================> DF-SCS-MP2 Energies <==================
	-----------------------------------------------------------
	 SCS Same-Spin Scale       =       0.3333333333333333 [-]
	 SCS Opposite-Spin Scale   =       1.2000000000000000 [-]
	 SCS Same-Spin Energy      =      -0.1359041850513989 [Eh]
	 SCS Opposite-Spin Energy  =      -1.4615989196009871 [Eh]
	 SCS Correlation Energy    =      -1.5975031046523860 [Eh]
	 SCS Total Energy          =    -394.3016175519916260 [Eh]
	-----------------------------------------------------------

  Dipole Moment: [D]
     X:     8.7261      Y:    -0.5084      Z:     0.0029     Total:     8.7409

*** Psi4 exiting successfully. Buy a developer a beer!
