                               Psi4 1.3.2 release

  ==> Input File <==

--------------------------------------------------------------------------
#psi4
#
memory 32 gb

molecule  {
0 1
  O       -2.2334690    -1.1675340     0.0001340
  N        0.0265130    -0.9084710    -0.0000270
  N        2.3544690    -0.8475160    -0.0005320
  N       -1.3973450     1.0028810     0.0002180
  C        1.1479219    -0.2185937    -0.0001993
  C        1.0385970     1.1986830    -0.0000890
  C       -1.2978830    -0.3751090     0.0001540
  C       -0.2757380     1.7018570     0.0000510
  H        0.0506260    -1.9247470    -0.0002200
  H        1.9024710     1.8518520    -0.0001620
  H       -0.4079780     2.7850560     0.0002120
  H        3.2235170    -0.3366370     0.0005700
  H        2.4001700    -1.8548790     0.0010060
units angstrom
no_reorient  #important for SAPT in psi4, default
symmetry c1  #important for SAPT in psi4, default
}

set PROPERTIES_ORIGIN ["COM"]
properties('MP2/aug-cc-pvtz', properties = ['dipole'])
--------------------------------------------------------------------------

    Molecular point group: c1
  Charge       = 0
  Multiplicity = 1
  Basis Set: AUG-CC-PVTZ
    Blend: AUG-CC-PVTZ
  Basis Set: (AUG-CC-PVTZ AUX)
    Blend: AUG-CC-PVTZ-JKFIT

    Orbital Energies [Eh]
    ---------------------

    Doubly Occupied:

       1A    -20.510655     2A    -15.638503     3A    -15.631335
       4A    -15.541758     5A    -11.387132     6A    -11.377311
       7A    -11.304568     8A    -11.232661     9A     -1.394307
      10A     -1.330896    11A     -1.244981    12A     -1.204214
      13A     -1.047857    14A     -0.908793    15A     -0.890463
      16A     -0.789204    17A     -0.756575    18A     -0.726273
      19A     -0.688138    20A     -0.645315    21A     -0.634494
      22A     -0.618038    23A     -0.566406    24A     -0.548489
      25A     -0.459169    26A     -0.447551    27A     -0.447308
      28A     -0.414075    29A     -0.319533

  @DF-RHF Final Energy:  -392.74885055782499

   => Energetics <=

    Nuclear Repulsion Energy =            355.4097962960629502
    One-Electron Energy =               -1238.9052968642668020
    Two-Electron Energy =                 490.7466500103788576
    Total Energy =                       -392.7488505578249942
  Basis Set: (AUG-CC-PVTZ AUX)
    Blend: AUG-CC-PVTZ-RI
    Molecular point group: c1

    Geometry (in Angstrom), charge = 0, multiplicity = 1:

       Center              X                  Y                   Z               Mass
    ------------   -----------------  -----------------  -----------------  -----------------
         O           -2.167093722483    -1.158405674550     0.000153941126    15.994914619570
         N            0.092888277517    -0.899342674550    -0.000007058874    14.003074004430
         N            2.420844277517    -0.838387674550    -0.000512058874    14.003074004430
         N           -1.330969722483     1.012009325450     0.000237941126    14.003074004430
         C            1.214297177517    -0.209465374550    -0.000179358874    12.000000000000
         C            1.104972277517     1.207811325450    -0.000069058874    12.000000000000
         C           -1.231507722483    -0.365980674550     0.000173941126    12.000000000000
         C           -0.209362722483     1.710985325450     0.000070941126    12.000000000000
         H            0.117001277517    -1.915618674550    -0.000200058874     1.007825032230
         H            1.968846277517     1.860980325450    -0.000142058874     1.007825032230
         H           -0.341602722483     2.794184325450     0.000231941126     1.007825032230
         H            3.289892277517    -0.327508674550     0.000589941126     1.007825032230
         H            2.466545277517    -1.845750674550     0.001025941126     1.007825032230

  Basis Set: AUG-CC-PVTZ
    Blend: AUG-CC-PVTZ
  Basis Set: (AUG-CC-PVTZ AUX)
    Blend: AUG-CC-PVTZ-JKFIT
	 Reference Energy          =    -392.7488505578249942 [Eh]
	 Singles Energy            =      -0.0000000000000000 [Eh]
	 Same-Spin Energy          =      -0.4069507642028330 [Eh]
	 Opposite-Spin Energy      =      -1.2137965766211973 [Eh]
	 Correlation Energy        =      -1.6207473408240305 [Eh]
	 Total Energy              =    -394.3695978986490331 [Eh]

	 ================> DF-SCS-MP2 Energies <==================
	-----------------------------------------------------------
	 SCS Same-Spin Scale       =       0.3333333333333333 [-]
	 SCS Opposite-Spin Scale   =       1.2000000000000000 [-]
	 SCS Same-Spin Energy      =      -0.1356502547342777 [Eh]
	 SCS Opposite-Spin Energy  =      -1.4565558919454367 [Eh]
	 SCS Correlation Energy    =      -1.5922061466797144 [Eh]
	 SCS Total Energy          =    -394.3410567045046946 [Eh]
	-----------------------------------------------------------

  Dipole Moment: [D]
     X:     8.1901      Y:    -1.1054      Z:     0.0029     Total:     8.2644

*** Psi4 exiting successfully. Buy a developer a beer!
