                               Psi4 1.3.2 release

  ==> Input File <==

--------------------------------------------------------------------------
#psi4
#
memory 32 gb

molecule  {
0 1
  O       -2.2334690    -1.1675340     0.0001340
  N        0.0265130    -0.9084710    -0.0000270
  N        2.3544690    -0.8475160    -0.0005320
  N       -1.3973450     1.0028810     0.0002180
  C        1.1706060    -0.1768690    -0.0001310
  C        1.0385970     1.1986830    -0.0000890
  C       -1.2906838    -0.4748495     0.0001494
  C       -0.2757380     1.7018570     0.0000510
  H        0.0506260    -1.9247470    -0.0002200
  H        1.9024710     1.8518520    -0.0001620
  H       -0.4079780     2.7850560     0.0002120
  H        3.2235170    -0.3366370     0.0005700
  H        2.4001700    -1.8548790     0.0010060
units angstrom
no_reorient  #important for SAPT in psi4, default
symmetry c1  #important for SAPT in psi4, default
}

set PROPERTIES_ORIGIN ["COM"]
properties('MP2/aug-cc-pvtz', properties = ['dipole'])
--------------------------------------------------------------------------

    Molecular point group: c1
  Charge       = 0
  Multiplicity = 1
  Basis Set: AUG-CC-PVTZ
    Blend: AUG-CC-PVTZ
  Basis Set: (AUG-CC-PVTZ AUX)
    Blend: AUG-CC-PVTZ-JKFIT

    Orbital Energies [Eh]
    ---------------------

    Doubly Occupied:

       1A    -20.525654     2A    -15.633848     3A    -15.625858
       4A    -15.542575     5A    -11.380903     6A    -11.375935
       7A    -11.295712     8A    -11.226333     9A     -1.423594
      10A     -1.334732    11A     -1.240650    12A     -1.184771
      13A     -1.049737    14A     -0.904135    15A     -0.882360
      16A     -0.784928    17A     -0.742252    18A     -0.720537
      19A     -0.687760    20A     -0.644376    21A     -0.641960
      22A     -0.627213    23A     -0.568821    24A     -0.556862
      25A     -0.463037    26A     -0.460425    27A     -0.447617
      28A     -0.399982    29A     -0.318709

  @DF-RHF Final Energy:  -392.74121357653792

   => Energetics <=

    Nuclear Repulsion Energy =            355.1995092577171249
    One-Electron Energy =               -1238.4988947654799176
    Two-Electron Energy =                 490.5581719312248197
    Total Energy =                       -392.7412135765379162
  Basis Set: (AUG-CC-PVTZ AUX)
    Blend: AUG-CC-PVTZ-RI
    Molecular point group: c1

    Geometry (in Angstrom), charge = 0, multiplicity = 1:

       Center              X                  Y                   Z               Mass
    ------------   -----------------  -----------------  -----------------  -----------------
         O           -2.170323090877    -1.152136139697     0.000147057323    15.994914619570
         N            0.089658909123    -0.893073139697    -0.000013942677    14.003074004430
         N            2.417614909123    -0.832118139697    -0.000518942677    14.003074004430
         N           -1.334199090877     1.018278860303     0.000231057323    14.003074004430
         C            1.233751909123    -0.161471139697    -0.000117942677    12.000000000000
         C            1.101742909123     1.214080860303    -0.000075942677    12.000000000000
         C           -1.227537890877    -0.459451639697     0.000162457323    12.000000000000
         C           -0.212592090877     1.717254860303     0.000064057323    12.000000000000
         H            0.113771909123    -1.909349139697    -0.000206942677     1.007825032230
         H            1.965616909123     1.867249860303    -0.000148942677     1.007825032230
         H           -0.344832090877     2.800453860303     0.000225057323     1.007825032230
         H            3.286662909123    -0.321239139697     0.000583057323     1.007825032230
         H            2.463315909123    -1.839481139697     0.001019057323     1.007825032230

  Basis Set: AUG-CC-PVTZ
    Blend: AUG-CC-PVTZ
  Basis Set: (AUG-CC-PVTZ AUX)
    Blend: AUG-CC-PVTZ-JKFIT
	 Reference Energy          =    -392.7412135765379162 [Eh]
	 Singles Energy            =      -0.0000000000000000 [Eh]
	 Same-Spin Energy          =      -0.4061262053903535 [Eh]
	 Opposite-Spin Energy      =      -1.2142256939562195 [Eh]
	 Correlation Energy        =      -1.6203518993465731 [Eh]
	 Total Energy              =    -394.3615654758845039 [Eh]

	 ================> DF-SCS-MP2 Energies <==================
	-----------------------------------------------------------
	 SCS Same-Spin Scale       =       0.3333333333333333 [-]
	 SCS Opposite-Spin Scale   =       1.2000000000000000 [-]
	 SCS Same-Spin Energy      =      -0.1353754017967845 [Eh]
	 SCS Opposite-Spin Energy  =      -1.4570708327474633 [Eh]
	 SCS Correlation Energy    =      -1.5924462345442478 [Eh]
	 SCS Total Energy          =    -394.3336598110821569 [Eh]
	-----------------------------------------------------------

  Dipole Moment: [D]
     X:     7.6815      Y:    -1.4153      Z:     0.0031     Total:     7.8108

*** Psi4 exiting successfully. Buy a developer a beer!
