                               Psi4 1.3.2 release

  ==> Input File <==

--------------------------------------------------------------------------
#psi4
#
memory 32 gb

molecule  {
0 1
  O       -2.2334690    -1.1675340     0.0001340
  N        0.0265130    -0.9084710    -0.0000270
  N        2.3544690    -0.8475160    -0.0005320
  N       -1.3973450     1.0028810     0.0002180
  C        1.1706060    -0.1768690    -0.0001310
  C        1.0385970     1.1986830    -0.0000890
  C       -1.2978830    -0.3751090     0.0001540
  C       -0.2757380     1.7018570     0.0000510
  H        0.0529980    -2.0247189    -0.0002390
  H        1.9024710     1.8518520    -0.0001620
  H       -0.4079780     2.7850560     0.0002120
  H        3.2235170    -0.3366370     0.0005700
  H        2.4001700    -1.8548790     0.0010060
units angstrom
no_reorient  #important for SAPT in psi4, default
symmetry c1  #important for SAPT in psi4, default
}

set PROPERTIES_ORIGIN ["COM"]
properties('MP2/aug-cc-pvtz', properties = ['dipole'])
--------------------------------------------------------------------------

    Molecular point group: c1
  Charge       = 0
  Multiplicity = 1
  Basis Set: AUG-CC-PVTZ
    Blend: AUG-CC-PVTZ
  Basis Set: (AUG-CC-PVTZ AUX)
    Blend: AUG-CC-PVTZ-JKFIT

    Orbital Energies [Eh]
    ---------------------

    Doubly Occupied:

       1A    -20.508317     2A    -15.639483     3A    -15.628193
       4A    -15.545583     5A    -11.383605     6A    -11.375145
       7A    -11.308349     8A    -11.232170     9A     -1.385812
      10A     -1.320697    11A     -1.241630    12A     -1.192506
      13A     -1.055594    14A     -0.903871    15A     -0.882022
      16A     -0.777508    17A     -0.747993    18A     -0.709163
      19A     -0.689855    20A     -0.637202    21A     -0.634423
      22A     -0.617610    23A     -0.567268    24A     -0.547076
      25A     -0.459479    26A     -0.446602    27A     -0.440356
      28A     -0.414790    29A     -0.325061

  @DF-RHF Final Energy:  -392.74068902010907

   => Energetics <=

    Nuclear Repulsion Energy =            354.6129642244664524
    One-Electron Energy =               -1237.4725798898748508
    Two-Electron Energy =                 490.1189266452993820
    Total Energy =                       -392.7406890201090732
  Basis Set: (AUG-CC-PVTZ AUX)
    Blend: AUG-CC-PVTZ-RI
    Molecular point group: c1

    Geometry (in Angstrom), charge = 0, multiplicity = 1:

       Center              X                  Y                   Z               Mass
    ------------   -----------------  -----------------  -----------------  -----------------
         O           -2.169566630398    -1.162007353843     0.000146732662    15.994914619570
         N            0.090415369602    -0.902944353843    -0.000014267338    14.003074004430
         N            2.418371369602    -0.841989353843    -0.000519267338    14.003074004430
         N           -1.333442630398     1.008407646157     0.000230732662    14.003074004430
         C            1.234508369602    -0.171342353843    -0.000118267338    12.000000000000
         C            1.102499369602     1.204209646157    -0.000076267338    12.000000000000
         C           -1.233980630398    -0.369582353843     0.000166732662    12.000000000000
         C           -0.211835630398     1.707383646157     0.000063732662    12.000000000000
         H            0.116900369602    -2.019192253843    -0.000226267338     1.007825032230
         H            1.966373369602     1.857378646157    -0.000149267338     1.007825032230
         H           -0.344075630398     2.790582646157     0.000224732662     1.007825032230
         H            3.287419369602    -0.331110353843     0.000582732662     1.007825032230
         H            2.464072369602    -1.849352353843     0.001018732662     1.007825032230

  Basis Set: AUG-CC-PVTZ
    Blend: AUG-CC-PVTZ
  Basis Set: (AUG-CC-PVTZ AUX)
    Blend: AUG-CC-PVTZ-JKFIT
	 Reference Energy          =    -392.7406890201090732 [Eh]
	 Singles Energy            =      -0.0000000000000000 [Eh]
	 Same-Spin Energy          =      -0.4077634479270249 [Eh]
	 Opposite-Spin Energy      =      -1.2161114475534855 [Eh]
	 Correlation Energy        =      -1.6238748954805104 [Eh]
	 Total Energy              =    -394.3645639155895992 [Eh]

	 ================> DF-SCS-MP2 Energies <==================
	-----------------------------------------------------------
	 SCS Same-Spin Scale       =       0.3333333333333333 [-]
	 SCS Opposite-Spin Scale   =       1.2000000000000000 [-]
	 SCS Same-Spin Energy      =      -0.1359211493090083 [Eh]
	 SCS Opposite-Spin Energy  =      -1.4593337370641826 [Eh]
	 SCS Correlation Energy    =      -1.5952548863731908 [Eh]
	 SCS Total Energy          =    -394.3359439064822709 [Eh]
	-----------------------------------------------------------

  Dipole Moment: [D]
     X:     8.1253      Y:    -0.9681      Z:     0.0030     Total:     8.1828

*** Psi4 exiting successfully. Buy a developer a beer!
