                               Psi4 1.4a3.dev225

  ==> Input File <==

--------------------------------------------------------------------------
#psi4
#
memory 32 gb

molecule  {
0 1
  O        2.2358750    -1.1647400    -0.0019990
  N       -0.0266920    -0.9090020    -0.0014130
  N       -2.3606070    -0.8668920    -0.0783920
  N        1.3942980     1.0030250     0.0093070
  C       -1.1689180    -0.1740660     0.0003700
  C       -1.0400980     1.1965590     0.0002140
  C        1.2769402    -0.3868138     0.0032654
  C        0.2772380     1.7038820     0.0017870
  H       -0.0608440    -1.9231390    -0.0684580
  H       -1.9045160     1.8491770     0.0118680
  H        0.4106550     2.7868440     0.0040290
  H       -3.1798030    -0.3063160     0.1264620
  H       -2.3838550    -1.7605480     0.4013470
units angstrom
no_reorient  #important for SAPT in psi4, default
symmetry c1  #important for SAPT in psi4, default
}

set PROPERTIES_ORIGIN ["COM"]
properties('MP2/aug-cc-pvtz', properties = ['dipole'])
--------------------------------------------------------------------------

    Molecular point group: c1
  Charge       = 0
  Multiplicity = 1
  Basis Set: AUG-CC-PVTZ
    Blend: AUG-CC-PVTZ
  Basis Set: (AUG-CC-PVTZ AUX)
    Blend: AUG-CC-PVTZ-JKFIT

    Orbital Energies [Eh]
    ---------------------

    Doubly Occupied:

       1A    -20.510212     2A    -15.637254     3A    -15.627851
       4A    -15.553511     5A    -11.382417     6A    -11.378326
       7A    -11.312159     8A    -11.238690     9A     -1.389655
      10A     -1.322126    11A     -1.243985    12A     -1.203681
      13A     -1.060620    14A     -0.909221    15A     -0.888623
      16A     -0.778000    17A     -0.750434    18A     -0.717890
      19A     -0.688383    20A     -0.647849    21A     -0.631852
      22A     -0.621696    23A     -0.571586    24A     -0.546222
      25A     -0.464228    26A     -0.450152    27A     -0.447448
      28A     -0.419610    29A     -0.331730

  @DF-RHF Final Energy:  -392.74993118533695

   => Energetics <=

    Nuclear Repulsion Energy =            355.0763221116743011
    One-Electron Energy =               -1238.2016791856462987
    Two-Electron Energy =                 490.3754258886351067
    Total Energy =                       -392.7499311853369477
  Basis Set: (AUG-CC-PVTZ AUX)
    Blend: AUG-CC-PVTZ-RI
    Molecular point group: c1

    Geometry (in Angstrom), charge = 0, multiplicity = 1:

       Center              X                  Y                   Z               Mass
    ------------   -----------------  -----------------  -----------------  -----------------
         O            2.174408458894    -1.158196143729     0.002256628905    15.994914619570
         N           -0.088158541106    -0.902458143729     0.002842628905    14.003074004430
         N           -2.422073541106    -0.860348143729    -0.074136371095    14.003074004430
         N            1.332831458894     1.009568856271     0.013562628905    14.003074004430
         C           -1.230384541106    -0.167522143729     0.004625628905    12.000000000000
         C           -1.101564541106     1.203102856271     0.004469628905    12.000000000000
         C            1.215473658894    -0.380269943729     0.007521028905    12.000000000000
         C            0.215771458894     1.710425856271     0.006042628905    12.000000000000
         H           -0.122310541106    -1.916595143729    -0.064202371095     1.007825032230
         H           -1.965982541106     1.855720856271     0.016123628905     1.007825032230
         H            0.349188458894     2.793387856271     0.008284628905     1.007825032230
         H           -3.241269541106    -0.299772143729     0.130717628905     1.007825032230
         H           -2.445321541106    -1.754004143729     0.405602628905     1.007825032230

  Basis Set: AUG-CC-PVTZ
    Blend: AUG-CC-PVTZ
  Basis Set: (AUG-CC-PVTZ AUX)
    Blend: AUG-CC-PVTZ-JKFIT
	 Reference Energy          =    -392.7499311853369477 [Eh]
	 Singles Energy            =      -0.0000000000000000 [Eh]
	 Same-Spin Energy          =      -0.4069612338848028 [Eh]
	 Opposite-Spin Energy      =      -1.2154323890808945 [Eh]
	 Correlation Energy        =      -1.6223936229656972 [Eh]
	 Total Energy              =    -394.3723248083026647 [Eh]

	 ================> DF-SCS-MP2 Energies <==================
	-----------------------------------------------------------
	 SCS Same-Spin Scale       =       0.3333333333333333 [-]
	 SCS Opposite-Spin Scale   =       1.2000000000000000 [-]
	 SCS Same-Spin Energy      =      -0.1356537446282676 [Eh]
	 SCS Opposite-Spin Energy  =      -1.4585188668970732 [Eh]
	 SCS Correlation Energy    =      -1.5941726115253407 [Eh]
	 SCS Total Energy          =    -394.3441037968622709 [Eh]
	-----------------------------------------------------------

  Dipole Moment: [D]
     X:    -7.7172      Y:    -0.3865      Z:     0.8623     Total:     7.7749

*** Psi4 exiting successfully. Buy a developer a beer!
