                               Psi4 1.4a3.dev225

  ==> Input File <==

--------------------------------------------------------------------------
#psi4
#
memory 32 gb

molecule  {
0 1
  O        2.2358750    -1.1647400    -0.0019990
  N       -0.0266920    -0.9090020    -0.0014130
  N       -2.3606070    -0.8668920    -0.0783920
  N        1.3942980     1.0030250     0.0093070
  C       -1.1689180    -0.1740660     0.0003700
  C       -1.0400980     1.1965590     0.0002140
  C        1.2955060    -0.3793770     0.0033320
  C        0.2772380     1.7038820     0.0017870
  H       -0.0608440    -1.9231390    -0.0684580
  H       -1.9045160     1.8491770     0.0118680
  H        0.4106550     2.7868440     0.0040290
  H       -3.1959678    -0.2952544     0.1305043
  H       -2.3838550    -1.7605480     0.4013470
units angstrom
no_reorient  #important for SAPT in psi4, default
symmetry c1  #important for SAPT in psi4, default
}

set PROPERTIES_ORIGIN ["COM"]
properties('MP2/aug-cc-pvtz', properties = ['dipole'])
--------------------------------------------------------------------------

    Molecular point group: c1
  Charge       = 0
  Multiplicity = 1
  Basis Set: AUG-CC-PVTZ
    Blend: AUG-CC-PVTZ
  Basis Set: (AUG-CC-PVTZ AUX)
    Blend: AUG-CC-PVTZ-JKFIT

    Orbital Energies [Eh]
    ---------------------

    Doubly Occupied:

       1A    -20.512601     2A    -15.634145     3A    -15.628676
       4A    -15.551938     5A    -11.381310     6A    -11.378823
       7A    -11.312810     8A    -11.237454     9A     -1.391503
      10A     -1.322348    11A     -1.242936    12A     -1.200662
      13A     -1.059721    14A     -0.909030    15A     -0.882837
      16A     -0.775596    17A     -0.748933    18A     -0.714247
      19A     -0.685490    20A     -0.646435    21A     -0.630108
      22A     -0.623556    23A     -0.573809    24A     -0.547467
      25A     -0.463830    26A     -0.451731    27A     -0.448500
      28A     -0.418584    29A     -0.331581

  @DF-RHF Final Energy:  -392.74999282940382

   => Energetics <=

    Nuclear Repulsion Energy =            354.8700038728622417
    One-Electron Energy =               -1237.8266729373287944
    Two-Electron Energy =                 490.2066762350626732
    Total Energy =                       -392.7499928294038227
  Basis Set: (AUG-CC-PVTZ AUX)
    Blend: AUG-CC-PVTZ-RI
    Molecular point group: c1

    Geometry (in Angstrom), charge = 0, multiplicity = 1:

       Center              X                  Y                   Z               Mass
    ------------   -----------------  -----------------  -----------------  -----------------
         O            2.172548838539    -1.159100203604     0.002212743927    15.994914619570
         N           -0.090018161461    -0.903362203604     0.002798743927    14.003074004430
         N           -2.423933161461    -0.861252203604    -0.074180256073    14.003074004430
         N            1.330971838539     1.008664796396     0.013518743927    14.003074004430
         C           -1.232244161461    -0.168426203604     0.004581743927    12.000000000000
         C           -1.103424161461     1.202198796396     0.004425743927    12.000000000000
         C            1.232179838539    -0.373737203604     0.007543743927    12.000000000000
         C            0.213911838539     1.709521796396     0.005998743927    12.000000000000
         H           -0.124170161461    -1.917499203604    -0.064246256073     1.007825032230
         H           -1.967842161461     1.854816796396     0.016079743927     1.007825032230
         H            0.347328838539     2.792483796396     0.008240743927     1.007825032230
         H           -3.259293961461    -0.289614603604     0.134716043927     1.007825032230
         H           -2.447181161461    -1.754908203604     0.405558743927     1.007825032230

  Basis Set: AUG-CC-PVTZ
    Blend: AUG-CC-PVTZ
  Basis Set: (AUG-CC-PVTZ AUX)
    Blend: AUG-CC-PVTZ-JKFIT
	 Reference Energy          =    -392.7499928294039933 [Eh]
	 Singles Energy            =      -0.0000000000000000 [Eh]
	 Same-Spin Energy          =      -0.4069276736539602 [Eh]
	 Opposite-Spin Energy      =      -1.2153057050298748 [Eh]
	 Correlation Energy        =      -1.6222333786838350 [Eh]
	 Total Energy              =    -394.3722262080878522 [Eh]

	 ================> DF-SCS-MP2 Energies <==================
	-----------------------------------------------------------
	 SCS Same-Spin Scale       =       0.3333333333333333 [-]
	 SCS Opposite-Spin Scale   =       1.2000000000000000 [-]
	 SCS Same-Spin Energy      =      -0.1356425578846534 [Eh]
	 SCS Opposite-Spin Energy  =      -1.4583668460358497 [Eh]
	 SCS Correlation Energy    =      -1.5940094039205031 [Eh]
	 SCS Total Energy          =    -394.3440022333244883 [Eh]
	-----------------------------------------------------------

  Dipole Moment: [D]
     X:    -7.6171      Y:    -0.3985      Z:     0.8637     Total:     7.6762

*** Psi4 exiting successfully. Buy a developer a beer!
