                               Psi4 1.3.2 release

  ==> Input File <==

--------------------------------------------------------------------------
#psi4
#
memory 32 gb

molecule  {
0 1
  O       -2.2334690    -1.1675340     0.0001340
  N        0.0265130    -0.9084710    -0.0000270
  N        2.3544690    -0.8475160    -0.0005320
  N       -1.3973450     1.0028810     0.0002180
  C        1.1706060    -0.1768690    -0.0001310
  C        1.0385970     1.1986830    -0.0000890
  C       -1.1452681    -0.2458469     0.0001573
  C       -0.2757380     1.7018570     0.0000510
  H        0.0506260    -1.9247470    -0.0002200
  H        1.9024710     1.8518520    -0.0001620
  H       -0.4079780     2.7850560     0.0002120
  H        3.2235170    -0.3366370     0.0005700
  H        2.4001700    -1.8548790     0.0010060
units angstrom
no_reorient  #important for SAPT in psi4, default
symmetry c1  #important for SAPT in psi4, default
}

set PROPERTIES_ORIGIN ["COM"]
properties('MP2/aug-cc-pvtz', properties = ['dipole'])
--------------------------------------------------------------------------

    Molecular point group: c1
  Charge       = 0
  Multiplicity = 1
  Basis Set: AUG-CC-PVTZ
    Blend: AUG-CC-PVTZ
  Basis Set: (AUG-CC-PVTZ AUX)
    Blend: AUG-CC-PVTZ-JKFIT

    Orbital Energies [Eh]
    ---------------------

    Doubly Occupied:

       1A    -20.455835     2A    -15.655009     3A    -15.642837
       4A    -15.560963     5A    -11.399486     6A    -11.363592
       7A    -11.328015     8A    -11.254096     9A     -1.392568
      10A     -1.302135    11A     -1.239854    12A     -1.188387
      13A     -1.073912    14A     -0.934358    15A     -0.905278
      16A     -0.802207    17A     -0.784228    18A     -0.742299
      19A     -0.703697    20A     -0.659809    21A     -0.659034
      22A     -0.610565    23A     -0.547920    24A     -0.506398
      25A     -0.474673    26A     -0.447695    27A     -0.409549
      28A     -0.375426    29A     -0.326017

  @DF-RHF Final Energy:  -392.68806837506213

   => Energetics <=

    Nuclear Repulsion Energy =            356.6905407069895091
    One-Electron Energy =               -1241.2655360355408902
    Two-Electron Energy =                 491.8869269534892510
    Total Energy =                       -392.6880683750621301
  Basis Set: (AUG-CC-PVTZ AUX)
    Blend: AUG-CC-PVTZ-RI
    Molecular point group: c1

    Geometry (in Angstrom), charge = 0, multiplicity = 1:

       Center              X                  Y                   Z               Mass
    ------------   -----------------  -----------------  -----------------  -----------------
         O           -2.186037582435    -1.176883532340     0.000146203601    15.994914619570
         N            0.073944417565    -0.917820532340    -0.000014796399    14.003074004430
         N            2.401900417565    -0.856865532340    -0.000519796399    14.003074004430
         N           -1.349913582435     0.993531467660     0.000230203601    14.003074004430
         C            1.218037417565    -0.186218532340    -0.000118796399    12.000000000000
         C            1.086028417565     1.189333467660    -0.000076796399    12.000000000000
         C           -1.097836682435    -0.255196432340     0.000169503601    12.000000000000
         C           -0.228306582435     1.692507467660     0.000063203601    12.000000000000
         H            0.098057417565    -1.934096532340    -0.000207796399     1.007825032230
         H            1.949902417565     1.842502467660    -0.000149796399     1.007825032230
         H           -0.360546582435     2.775706467660     0.000224203601     1.007825032230
         H            3.270948417565    -0.345986532340     0.000582203601     1.007825032230
         H            2.447601417565    -1.864228532340     0.001018203601     1.007825032230

  Basis Set: AUG-CC-PVTZ
    Blend: AUG-CC-PVTZ
  Basis Set: (AUG-CC-PVTZ AUX)
    Blend: AUG-CC-PVTZ-JKFIT
	 Reference Energy          =    -392.6880683750621301 [Eh]
	 Singles Energy            =      -0.0000000000000000 [Eh]
	 Same-Spin Energy          =      -0.4102893261022513 [Eh]
	 Opposite-Spin Energy      =      -1.2196232716220428 [Eh]
	 Correlation Energy        =      -1.6299125977242941 [Eh]
	 Total Energy              =    -394.3179809727864154 [Eh]

	 ================> DF-SCS-MP2 Energies <==================
	-----------------------------------------------------------
	 SCS Same-Spin Scale       =       0.3333333333333333 [-]
	 SCS Opposite-Spin Scale   =       1.2000000000000000 [-]
	 SCS Same-Spin Energy      =      -0.1367631087007504 [Eh]
	 SCS Opposite-Spin Energy  =      -1.4635479259464512 [Eh]
	 SCS Correlation Energy    =      -1.6003110346472016 [Eh]
	 SCS Total Energy          =    -394.2883794097093073 [Eh]
	-----------------------------------------------------------

  Dipole Moment: [D]
     X:     9.9691      Y:     0.2954      Z:     0.0029     Total:     9.9735

*** Psi4 exiting successfully. Buy a developer a beer!
