                               Psi4 1.3.2 release

  ==> Input File <==

--------------------------------------------------------------------------
#psi4
#
memory 32 gb

molecule  {
0 1
  O       -2.2334690    -1.1675340     0.0001340
  N        0.0265130    -0.9084710    -0.0000270
  N        2.3544690    -0.8475160    -0.0005320
  N       -1.3973450     1.0028810     0.0002180
  C        1.2471930    -0.0567956     0.0000706
  C        1.0385970     1.1986830    -0.0000890
  C       -1.2978830    -0.3751090     0.0001540
  C       -0.2757380     1.7018570     0.0000510
  H        0.0506260    -1.9247470    -0.0002200
  H        1.9024710     1.8518520    -0.0001620
  H       -0.4079780     2.7850560     0.0002120
  H        3.2235170    -0.3366370     0.0005700
  H        2.4001700    -1.8548790     0.0010060
units angstrom
no_reorient  #important for SAPT in psi4, default
symmetry c1  #important for SAPT in psi4, default
}

set PROPERTIES_ORIGIN ["COM"]
properties('MP2/aug-cc-pvtz', properties = ['dipole'])
--------------------------------------------------------------------------

    Molecular point group: c1
  Charge       = 0
  Multiplicity = 1
  Basis Set: AUG-CC-PVTZ
    Blend: AUG-CC-PVTZ
  Basis Set: (AUG-CC-PVTZ AUX)
    Blend: AUG-CC-PVTZ-JKFIT

    Orbital Energies [Eh]
    ---------------------

    Doubly Occupied:

       1A    -20.506241     2A    -15.622867     3A    -15.612109
       4A    -15.557588     5A    -11.374000     6A    -11.370827
       7A    -11.320470     8A    -11.232062     9A     -1.378282
      10A     -1.305754    11A     -1.242052    12A     -1.175852
      13A     -1.088441    14A     -0.918986    15A     -0.859940
      16A     -0.777448    17A     -0.742533    18A     -0.728576
      19A     -0.681250    20A     -0.639763    21A     -0.624667
      22A     -0.620496    23A     -0.565448    24A     -0.548071
      25A     -0.464268    26A     -0.450123    27A     -0.424672
      28A     -0.415932    29A     -0.345009

  @DF-RHF Final Energy:  -392.72278164922295

   => Energetics <=

    Nuclear Repulsion Energy =            354.5852536660199803
    One-Electron Energy =               -1237.4286152491188204
    Two-Electron Energy =                 490.1205799338758879
    Total Energy =                       -392.7227816492229522
  Basis Set: (AUG-CC-PVTZ AUX)
    Blend: AUG-CC-PVTZ-RI
    Molecular point group: c1

    Geometry (in Angstrom), charge = 0, multiplicity = 1:

       Center              X                  Y                   Z               Mass
    ------------   -----------------  -----------------  -----------------  -----------------
         O           -2.177821552166    -1.175890546379     0.000124774115    15.994914619570
         N            0.082160447834    -0.916827546379    -0.000036225885    14.003074004430
         N            2.410116447834    -0.855872546379    -0.000541225885    14.003074004430
         N           -1.341697552166     0.994524453621     0.000208774115    14.003074004430
         C            1.302840447834    -0.065152146379     0.000061374115    12.000000000000
         C            1.094244447834     1.190326453621    -0.000098225885    12.000000000000
         C           -1.242235552166    -0.383465546379     0.000144774115    12.000000000000
         C           -0.220090552166     1.693500453621     0.000041774115    12.000000000000
         H            0.106273447834    -1.933103546379    -0.000229225885     1.007825032230
         H            1.958118447834     1.843495453621    -0.000171225885     1.007825032230
         H           -0.352330552166     2.776699453621     0.000202774115     1.007825032230
         H            3.279164447834    -0.344993546379     0.000560774115     1.007825032230
         H            2.455817447834    -1.863235546379     0.000996774115     1.007825032230

  Basis Set: AUG-CC-PVTZ
    Blend: AUG-CC-PVTZ
  Basis Set: (AUG-CC-PVTZ AUX)
    Blend: AUG-CC-PVTZ-JKFIT
	 Reference Energy          =    -392.7227816492229522 [Eh]
	 Singles Energy            =      -0.0000000000000000 [Eh]
	 Same-Spin Energy          =      -0.4067442278457690 [Eh]
	 Opposite-Spin Energy      =      -1.2165215170853707 [Eh]
	 Correlation Energy        =      -1.6232657449311398 [Eh]
	 Total Energy              =    -394.3460473941540840 [Eh]

	 ================> DF-SCS-MP2 Energies <==================
	-----------------------------------------------------------
	 SCS Same-Spin Scale       =       0.3333333333333333 [-]
	 SCS Opposite-Spin Scale   =       1.2000000000000000 [-]
	 SCS Same-Spin Energy      =      -0.1355814092819230 [Eh]
	 SCS Opposite-Spin Energy  =      -1.4598258205024448 [Eh]
	 SCS Correlation Energy    =      -1.5954072297843678 [Eh]
	 SCS Total Energy          =    -394.3181888790073231 [Eh]
	-----------------------------------------------------------

  Dipole Moment: [D]
     X:     8.0309      Y:    -0.2150      Z:     0.0033     Total:     8.0338

*** Psi4 exiting successfully. Buy a developer a beer!
