                               Psi4 1.3.2 release

  ==> Input File <==

--------------------------------------------------------------------------
#psi4
#
memory 32 gb

molecule  {
0 1
  O       -2.2334690    -1.1675340     0.0001340
  N        0.0265130    -0.9084710    -0.0000270
  N        2.3544690    -0.8475160    -0.0005320
  N       -1.3973450     1.0028810     0.0002180
  C        1.1706060    -0.1768690    -0.0001310
  C        1.0385970     1.1986830    -0.0000890
  C       -1.2978830    -0.3751090     0.0001540
  C       -0.2757380     1.7018570     0.0000510
  H        0.0506260    -1.9247470    -0.0002200
  H        1.9024710     1.8518520    -0.0001620
  H       -0.4079780     2.7850560     0.0002120
  H        3.0511020    -0.4379930     0.0003514
  H        2.4001700    -1.8548790     0.0010060
units angstrom
no_reorient  #important for SAPT in psi4, default
symmetry c1  #important for SAPT in psi4, default
}

set PROPERTIES_ORIGIN ["COM"]
properties('MP2/aug-cc-pvtz', properties = ['dipole'])
--------------------------------------------------------------------------

    Molecular point group: c1
  Charge       = 0
  Multiplicity = 1
  Basis Set: AUG-CC-PVTZ
    Blend: AUG-CC-PVTZ
  Basis Set: (AUG-CC-PVTZ AUX)
    Blend: AUG-CC-PVTZ-JKFIT

    Orbital Energies [Eh]
    ---------------------

    Doubly Occupied:

       1A    -20.510249     2A    -15.633235     3A    -15.609172
       4A    -15.547193     5A    -11.385225     6A    -11.376686
       7A    -11.310173     8A    -11.234171     9A     -1.390572
      10A     -1.337717    11A     -1.260989    12A     -1.206704
      13A     -1.062661    14A     -0.920424    15A     -0.897490
      16A     -0.790253    17A     -0.781187    18A     -0.732358
      19A     -0.699406    20A     -0.640284    21A     -0.638134
      22A     -0.621310    23A     -0.570802    24A     -0.550934
      25A     -0.461336    26A     -0.448758    27A     -0.445303
      28A     -0.416579    29A     -0.327373

  @DF-RHF Final Energy:  -392.70434531750067

   => Energetics <=

    Nuclear Repulsion Energy =            356.4750347768514303
    One-Electron Energy =               -1240.7454039548972560
    Two-Electron Energy =                 491.5660238605451582
    Total Energy =                       -392.7043453175006675
  Basis Set: (AUG-CC-PVTZ AUX)
    Blend: AUG-CC-PVTZ-RI
    Molecular point group: c1

    Geometry (in Angstrom), charge = 0, multiplicity = 1:

       Center              X                  Y                   Z               Mass
    ------------   -----------------  -----------------  -----------------  -----------------
         O           -2.167980269271    -1.161994791796     0.000148544225    15.994914619570
         N            0.092001730729    -0.902931791796    -0.000012455775    14.003074004430
         N            2.419957730729    -0.841976791796    -0.000517455775    14.003074004430
         N           -1.331856269271     1.008420208204     0.000232544225    14.003074004430
         C            1.236094730729    -0.171329791796    -0.000116455775    12.000000000000
         C            1.104085730729     1.204222208204    -0.000074455775    12.000000000000
         C           -1.232394269271    -0.369569791796     0.000168544225    12.000000000000
         C           -0.210249269271     1.707396208204     0.000065544225    12.000000000000
         H            0.116114730729    -1.919207791796    -0.000205455775     1.007825032230
         H            1.967959730729     1.857391208204    -0.000147455775     1.007825032230
         H           -0.342489269271     2.790595208204     0.000226544225     1.007825032230
         H            3.116590730729    -0.432453791796     0.000365944225     1.007825032230
         H            2.465658730729    -1.849339791796     0.001020544225     1.007825032230

  Basis Set: AUG-CC-PVTZ
    Blend: AUG-CC-PVTZ
  Basis Set: (AUG-CC-PVTZ AUX)
    Blend: AUG-CC-PVTZ-JKFIT
	 Reference Energy          =    -392.7043453175006675 [Eh]
	 Singles Energy            =      -0.0000000000000000 [Eh]
	 Same-Spin Energy          =      -0.4058338857396111 [Eh]
	 Opposite-Spin Energy      =      -1.2117251373033953 [Eh]
	 Correlation Energy        =      -1.6175590230430064 [Eh]
	 Total Energy              =    -394.3219043405436537 [Eh]

	 ================> DF-SCS-MP2 Energies <==================
	-----------------------------------------------------------
	 SCS Same-Spin Scale       =       0.3333333333333333 [-]
	 SCS Opposite-Spin Scale   =       1.2000000000000000 [-]
	 SCS Same-Spin Energy      =      -0.1352779619132037 [Eh]
	 SCS Opposite-Spin Energy  =      -1.4540701647640744 [Eh]
	 SCS Correlation Energy    =      -1.5893481266772780 [Eh]
	 SCS Total Energy          =    -394.2936934441779613 [Eh]
	-----------------------------------------------------------

  Dipole Moment: [D]
     X:     7.8891      Y:    -0.9276      Z:     0.0029     Total:     7.9434

*** Psi4 exiting successfully. Buy a developer a beer!
