                               Psi4 1.3.2 release

  ==> Input File <==

--------------------------------------------------------------------------
#psi4
#
memory 32 gb

molecule  {
0 1
  O       -2.2334690    -1.1675340     0.0001340
  N        0.0265130    -0.9084710    -0.0000270
  N        2.3544690    -0.8475160    -0.0005320
  N       -1.3973450     1.0028810     0.0002180
  C        1.1706060    -0.1768690    -0.0001310
  C        1.0704950     1.2915921    -0.0000774
  C       -1.2978830    -0.3751090     0.0001540
  C       -0.2757380     1.7018570     0.0000510
  H        0.0506260    -1.9247470    -0.0002200
  H        1.9024710     1.8518520    -0.0001620
  H       -0.4079780     2.7850560     0.0002120
  H        3.2235170    -0.3366370     0.0005700
  H        2.4001700    -1.8548790     0.0010060
units angstrom
no_reorient  #important for SAPT in psi4, default
symmetry c1  #important for SAPT in psi4, default
}

set PROPERTIES_ORIGIN ["COM"]
properties('MP2/aug-cc-pvtz', properties = ['dipole'])
--------------------------------------------------------------------------

    Molecular point group: c1
  Charge       = 0
  Multiplicity = 1
  Basis Set: AUG-CC-PVTZ
    Blend: AUG-CC-PVTZ
  Basis Set: (AUG-CC-PVTZ AUX)
    Blend: AUG-CC-PVTZ-JKFIT

    Orbital Energies [Eh]
    ---------------------

    Doubly Occupied:

       1A    -20.509536     2A    -15.638696     3A    -15.636255
       4A    -15.541020     5A    -11.398651     6A    -11.375389
       7A    -11.304624     8A    -11.235073     9A     -1.389040
      10A     -1.324759    11A     -1.243367    12A     -1.199195
      13A     -1.048429    14A     -0.906684    15A     -0.885462
      16A     -0.786762    17A     -0.760869    18A     -0.726863
      19A     -0.687057    20A     -0.651908    21A     -0.637232
      22A     -0.617384    23A     -0.560269    24A     -0.548519
      25A     -0.458911    26A     -0.447468    27A     -0.444066
      28A     -0.412354    29A     -0.320522

  @DF-RHF Final Energy:  -392.73812233392835

   => Energetics <=

    Nuclear Repulsion Energy =            353.4884614359710326
    One-Electron Energy =               -1235.0604414819745216
    Two-Electron Energy =                 488.8338577120752007
    Total Energy =                       -392.7381223339283451
  Basis Set: (AUG-CC-PVTZ AUX)
    Blend: AUG-CC-PVTZ-RI
    Molecular point group: c1

    Geometry (in Angstrom), charge = 0, multiplicity = 1:

       Center              X                  Y                   Z               Mass
    ------------   -----------------  -----------------  -----------------  -----------------
         O           -2.172992191147    -1.172955009412     0.000145306653    15.994914619570
         N            0.086989808853    -0.913892009412    -0.000015693347    14.003074004430
         N            2.414945808853    -0.852937009412    -0.000520693347    14.003074004430
         N           -1.336868191147     0.997459990588     0.000229306653    14.003074004430
         C            1.231082808853    -0.182290009412    -0.000119693347    12.000000000000
         C            1.130971808853     1.286171090588    -0.000066093347    12.000000000000
         C           -1.237406191147    -0.380530009412     0.000165306653    12.000000000000
         C           -0.215261191147     1.696435990588     0.000062306653    12.000000000000
         H            0.111102808853    -1.930168009412    -0.000208693347     1.007825032230
         H            1.962947808853     1.846430990588    -0.000150693347     1.007825032230
         H           -0.347501191147     2.779634990588     0.000223306653     1.007825032230
         H            3.283993808853    -0.342058009412     0.000581306653     1.007825032230
         H            2.460646808853    -1.860300009412     0.001017306653     1.007825032230

  Basis Set: AUG-CC-PVTZ
    Blend: AUG-CC-PVTZ
  Basis Set: (AUG-CC-PVTZ AUX)
    Blend: AUG-CC-PVTZ-JKFIT
	 Reference Energy          =    -392.7381223339283451 [Eh]
	 Singles Energy            =      -0.0000000000000000 [Eh]
	 Same-Spin Energy          =      -0.4066100518603501 [Eh]
	 Opposite-Spin Energy      =      -1.2141640078525344 [Eh]
	 Correlation Energy        =      -1.6207740597128846 [Eh]
	 Total Energy              =    -394.3588963936412028 [Eh]

	 ================> DF-SCS-MP2 Energies <==================
	-----------------------------------------------------------
	 SCS Same-Spin Scale       =       0.3333333333333333 [-]
	 SCS Opposite-Spin Scale   =       1.2000000000000000 [-]
	 SCS Same-Spin Energy      =      -0.1355366839534500 [Eh]
	 SCS Opposite-Spin Energy  =      -1.4569968094230412 [Eh]
	 SCS Correlation Energy    =      -1.5925334933764912 [Eh]
	 SCS Total Energy          =    -394.3306558273048381 [Eh]
	-----------------------------------------------------------

  Dipole Moment: [D]
     X:     8.3767      Y:    -1.1733      Z:     0.0029     Total:     8.4584

*** Psi4 exiting successfully. Buy a developer a beer!
