                               Psi4 1.3.2 release

  ==> Input File <==

--------------------------------------------------------------------------
#psi4
#
memory 32 gb

molecule  {
0 1
  O       -2.2334690    -1.1675340     0.0001340
  N        0.0139190    -0.8883924    -0.0000253
  N        2.3544690    -0.8475160    -0.0005320
  N       -1.3973450     1.0028810     0.0002180
  C        1.1706060    -0.1768690    -0.0001310
  C        1.0385970     1.1986830    -0.0000890
  C       -1.2978830    -0.3751090     0.0001540
  C       -0.2757380     1.7018570     0.0000510
  H        0.0506260    -1.9247470    -0.0002200
  H        1.9024710     1.8518520    -0.0001620
  H       -0.4079780     2.7850560     0.0002120
  H        3.2235170    -0.3366370     0.0005700
  H        2.4001700    -1.8548790     0.0010060
units angstrom
no_reorient  #important for SAPT in psi4, default
symmetry c1  #important for SAPT in psi4, default
}

set PROPERTIES_ORIGIN ["COM"]
properties('MP2/aug-cc-pvtz', properties = ['dipole'])
--------------------------------------------------------------------------

    Molecular point group: c1
  Charge       = 0
  Multiplicity = 1
  Basis Set: AUG-CC-PVTZ
    Blend: AUG-CC-PVTZ
  Basis Set: (AUG-CC-PVTZ AUX)
    Blend: AUG-CC-PVTZ-JKFIT

    Orbital Energies [Eh]
    ---------------------

    Doubly Occupied:

       1A    -20.507481     2A    -15.634369     3A    -15.630362
       4A    -15.544874     5A    -11.384491     6A    -11.373734
       7A    -11.308031     8A    -11.232571     9A     -1.389947
      10A     -1.323186    11A     -1.244465    12A     -1.198393
      13A     -1.058183    14A     -0.908422    15A     -0.887189
      16A     -0.784059    17A     -0.752098    18A     -0.722229
      19A     -0.690930    20A     -0.640727    21A     -0.635649
      22A     -0.619865    23A     -0.567500    24A     -0.548296
      25A     -0.459818    26A     -0.446626    27A     -0.442101
      28A     -0.414812    29A     -0.325484

  @DF-RHF Final Energy:  -392.75016736012714

   => Energetics <=

    Nuclear Repulsion Energy =            355.5568579602136765
    One-Electron Energy =               -1239.2622719803871405
    Two-Electron Energy =                 490.9552466600463845
    Total Energy =                       -392.7501673601271364
  Basis Set: (AUG-CC-PVTZ AUX)
    Blend: AUG-CC-PVTZ-RI
    Molecular point group: c1

    Geometry (in Angstrom), charge = 0, multiplicity = 1:

       Center              X                  Y                   Z               Mass
    ------------   -----------------  -----------------  -----------------  -----------------
         O           -2.167956939975    -1.165446700804     0.000146345841    15.994914619570
         N            0.079431060025    -0.886305100804    -0.000012954159    14.003074004430
         N            2.419981060025    -0.845428700804    -0.000519654159    14.003074004430
         N           -1.331832939975     1.004968299196     0.000230345841    14.003074004430
         C            1.236118060025    -0.174781700804    -0.000118654159    12.000000000000
         C            1.104109060025     1.200770299196    -0.000076654159    12.000000000000
         C           -1.232370939975    -0.373021700804     0.000166345841    12.000000000000
         C           -0.210225939975     1.703944299196     0.000063345841    12.000000000000
         H            0.116138060025    -1.922659700804    -0.000207654159     1.007825032230
         H            1.967983060025     1.853939299196    -0.000149654159     1.007825032230
         H           -0.342465939975     2.787143299196     0.000224345841     1.007825032230
         H            3.289029060025    -0.334549700804     0.000582345841     1.007825032230
         H            2.465682060025    -1.852791700804     0.001018345841     1.007825032230

  Basis Set: AUG-CC-PVTZ
    Blend: AUG-CC-PVTZ
  Basis Set: (AUG-CC-PVTZ AUX)
    Blend: AUG-CC-PVTZ-JKFIT
	 Reference Energy          =    -392.7501673601271364 [Eh]
	 Singles Energy            =      -0.0000000000000000 [Eh]
	 Same-Spin Energy          =      -0.4071169294597440 [Eh]
	 Opposite-Spin Energy      =      -1.2143664006575465 [Eh]
	 Correlation Energy        =      -1.6214833301172904 [Eh]
	 Total Energy              =    -394.3716506902444507 [Eh]

	 ================> DF-SCS-MP2 Energies <==================
	-----------------------------------------------------------
	 SCS Same-Spin Scale       =       0.3333333333333333 [-]
	 SCS Opposite-Spin Scale   =       1.2000000000000000 [-]
	 SCS Same-Spin Energy      =      -0.1357056431532480 [Eh]
	 SCS Opposite-Spin Energy  =      -1.4572396807890557 [Eh]
	 SCS Correlation Energy    =      -1.5929453239423037 [Eh]
	 SCS Total Energy          =    -394.3431126840694674 [Eh]
	-----------------------------------------------------------

  Dipole Moment: [D]
     X:     8.2173      Y:    -0.8857      Z:     0.0030     Total:     8.2649

*** Psi4 exiting successfully. Buy a developer a beer!
