                               Psi4 1.3.2 release

  ==> Input File <==

--------------------------------------------------------------------------
#psi4
#
memory 32 gb

molecule  {
0 1
  O       -2.2334690    -1.1675340     0.0001340
  N        0.0265130    -0.9084710    -0.0000270
  N        2.3544690    -0.8475160    -0.0005320
  N       -1.3973450     1.0028810     0.0002180
  C        1.1954416    -0.2172429    -0.0001437
  C        1.0385970     1.1986830    -0.0000890
  C       -1.2978830    -0.3751090     0.0001540
  C       -0.2757380     1.7018570     0.0000510
  H        0.0506260    -1.9247470    -0.0002200
  H        1.9024710     1.8518520    -0.0001620
  H       -0.4079780     2.7850560     0.0002120
  H        3.2235170    -0.3366370     0.0005700
  H        2.4001700    -1.8548790     0.0010060
units angstrom
no_reorient  #important for SAPT in psi4, default
symmetry c1  #important for SAPT in psi4, default
}

set PROPERTIES_ORIGIN ["COM"]
properties('MP2/aug-cc-pvtz', properties = ['dipole'])
--------------------------------------------------------------------------

    Molecular point group: c1
  Charge       = 0
  Multiplicity = 1
  Basis Set: AUG-CC-PVTZ
    Blend: AUG-CC-PVTZ
  Basis Set: (AUG-CC-PVTZ AUX)
    Blend: AUG-CC-PVTZ-JKFIT

    Orbital Energies [Eh]
    ---------------------

    Doubly Occupied:

       1A    -20.507666     2A    -15.638468     3A    -15.632911
       4A    -15.539602     5A    -11.387970     6A    -11.374471
       7A    -11.304046     8A    -11.231945     9A     -1.388114
      10A     -1.333747    11A     -1.249027    12A     -1.199358
      13A     -1.046126    14A     -0.908660    15A     -0.885895
      16A     -0.793003    17A     -0.757663    18A     -0.729857
      19A     -0.685248    20A     -0.641146    21A     -0.635642
      22A     -0.614981    23A     -0.561393    24A     -0.554592
      25A     -0.456632    26A     -0.444740    27A     -0.444120
      28A     -0.412317    29A     -0.318154

  @DF-RHF Final Energy:  -392.74809366530098

   => Energetics <=

    Nuclear Repulsion Energy =            354.9701671347129377
    One-Electron Energy =               -1238.0815274147955733
    Two-Electron Energy =                 490.3632666147816508
    Total Energy =                       -392.7480936653009849
  Basis Set: (AUG-CC-PVTZ AUX)
    Blend: AUG-CC-PVTZ-RI
    Molecular point group: c1

    Geometry (in Angstrom), charge = 0, multiplicity = 1:

       Center              X                  Y                   Z               Mass
    ------------   -----------------  -----------------  -----------------  -----------------
         O           -2.172228985900    -1.158551650089     0.000147932657    15.994914619570
         N            0.087753014100    -0.899488650089    -0.000013067343    14.003074004430
         N            2.415709014100    -0.838533650089    -0.000518067343    14.003074004430
         N           -1.336104985900     1.011863349911     0.000231932657    14.003074004430
         C            1.256681614100    -0.208260550089    -0.000129767343    12.000000000000
         C            1.099837014100     1.207665349911    -0.000075067343    12.000000000000
         C           -1.236642985900    -0.366126650089     0.000167932657    12.000000000000
         C           -0.214497985900     1.710839349911     0.000064932657    12.000000000000
         H            0.111866014100    -1.915764650089    -0.000206067343     1.007825032230
         H            1.963711014100     1.860834349911    -0.000148067343     1.007825032230
         H           -0.346737985900     2.794038349911     0.000225932657     1.007825032230
         H            3.284757014100    -0.327654650089     0.000583932657     1.007825032230
         H            2.461410014100    -1.845896650089     0.001019932657     1.007825032230

  Basis Set: AUG-CC-PVTZ
    Blend: AUG-CC-PVTZ
  Basis Set: (AUG-CC-PVTZ AUX)
    Blend: AUG-CC-PVTZ-JKFIT
	 Reference Energy          =    -392.7480936653009849 [Eh]
	 Singles Energy            =      -0.0000000000000000 [Eh]
	 Same-Spin Energy          =      -0.4069775972832868 [Eh]
	 Opposite-Spin Energy      =      -1.2138741780348514 [Eh]
	 Correlation Energy        =      -1.6208517753181382 [Eh]
	 Total Energy              =    -394.3689454406191430 [Eh]

	 ================> DF-SCS-MP2 Energies <==================
	-----------------------------------------------------------
	 SCS Same-Spin Scale       =       0.3333333333333333 [-]
	 SCS Opposite-Spin Scale   =       1.2000000000000000 [-]
	 SCS Same-Spin Energy      =      -0.1356591990944289 [Eh]
	 SCS Opposite-Spin Energy  =      -1.4566490136418218 [Eh]
	 SCS Correlation Energy    =      -1.5923082127362507 [Eh]
	 SCS Total Energy          =    -394.3404018780372553 [Eh]
	-----------------------------------------------------------

  Dipole Moment: [D]
     X:     8.5238      Y:    -1.1749      Z:     0.0029     Total:     8.6044

*** Psi4 exiting successfully. Buy a developer a beer!
