                               Psi4 1.3.2 release

  ==> Input File <==

--------------------------------------------------------------------------
#psi4
#
memory 32 gb

molecule  {
0 1
  O       -2.2334690    -1.1675340     0.0001340
  N        0.0265130    -0.9084710    -0.0000270
  N        2.4180854    -0.7200947    -0.0005539
  N       -1.3973450     1.0028810     0.0002180
  C        1.1706060    -0.1768690    -0.0001310
  C        1.0385970     1.1986830    -0.0000890
  C       -1.2978830    -0.3751090     0.0001540
  C       -0.2757380     1.7018570     0.0000510
  H        0.0506260    -1.9247470    -0.0002200
  H        1.9024710     1.8518520    -0.0001620
  H       -0.4079780     2.7850560     0.0002120
  H        3.2235170    -0.3366370     0.0005700
  H        2.4001700    -1.8548790     0.0010060
units angstrom
no_reorient  #important for SAPT in psi4, default
symmetry c1  #important for SAPT in psi4, default
}

set PROPERTIES_ORIGIN ["COM"]
properties('MP2/aug-cc-pvtz', properties = ['dipole'])
--------------------------------------------------------------------------

    Molecular point group: c1
  Charge       = 0
  Multiplicity = 1
  Basis Set: AUG-CC-PVTZ
    Blend: AUG-CC-PVTZ
  Basis Set: (AUG-CC-PVTZ AUX)
    Blend: AUG-CC-PVTZ-JKFIT

    Orbital Energies [Eh]
    ---------------------

    Doubly Occupied:

       1A    -20.510892     2A    -15.638239     3A    -15.630008
       4A    -15.544975     5A    -11.386414     6A    -11.377997
       7A    -11.306746     8A    -11.228818     9A     -1.390137
      10A     -1.323579    11A     -1.247682    12A     -1.203871
      13A     -1.055953    14A     -0.915095    15A     -0.891229
      16A     -0.787996    17A     -0.751618    18A     -0.736085
      19A     -0.675741    20A     -0.640034    21A     -0.627361
      22A     -0.619206    23A     -0.566010    24A     -0.549632
      25A     -0.459692    26A     -0.448341    27A     -0.446325
      28A     -0.415648    29A     -0.323481

  @DF-RHF Final Energy:  -392.71840094239360

   => Energetics <=

    Nuclear Repulsion Energy =            355.0933520911598862
    One-Electron Energy =               -1238.2258992865042728
    Two-Electron Energy =                 490.4141462529507862
    Total Energy =                       -392.7184009423936004
  Basis Set: (AUG-CC-PVTZ AUX)
    Blend: AUG-CC-PVTZ-RI
    Molecular point group: c1

    Geometry (in Angstrom), charge = 0, multiplicity = 1:

       Center              X                  Y                   Z               Mass
    ------------   -----------------  -----------------  -----------------  -----------------
         O           -2.177567427400    -1.178983116681     0.000149321911    15.994914619570
         N            0.082414572600    -0.919920116681    -0.000011678089    14.003074004430
         N            2.473986972600    -0.731543816681    -0.000538578089    14.003074004430
         N           -1.341443427400     0.991431883319     0.000233321911    14.003074004430
         C            1.226507572600    -0.188318116681    -0.000115678089    12.000000000000
         C            1.094498572600     1.187233883319    -0.000073678089    12.000000000000
         C           -1.241981427400    -0.386558116681     0.000169321911    12.000000000000
         C           -0.219836427400     1.690407883319     0.000066321911    12.000000000000
         H            0.106527572600    -1.936196116681    -0.000204678089     1.007825032230
         H            1.958372572600     1.840402883319    -0.000146678089     1.007825032230
         H           -0.352076427400     2.773606883319     0.000227321911     1.007825032230
         H            3.279418572600    -0.348086116681     0.000585321911     1.007825032230
         H            2.456071572600    -1.866328116681     0.001021321911     1.007825032230

  Basis Set: AUG-CC-PVTZ
    Blend: AUG-CC-PVTZ
  Basis Set: (AUG-CC-PVTZ AUX)
    Blend: AUG-CC-PVTZ-JKFIT
	 Reference Energy          =    -392.7184009423936004 [Eh]
	 Singles Energy            =      -0.0000000000000000 [Eh]
	 Same-Spin Energy          =      -0.4073725242728637 [Eh]
	 Opposite-Spin Energy      =      -1.2155781220618009 [Eh]
	 Correlation Energy        =      -1.6229506463346648 [Eh]
	 Total Energy              =    -394.3413515887282870 [Eh]

	 ================> DF-SCS-MP2 Energies <==================
	-----------------------------------------------------------
	 SCS Same-Spin Scale       =       0.3333333333333333 [-]
	 SCS Opposite-Spin Scale   =       1.2000000000000000 [-]
	 SCS Same-Spin Energy      =      -0.1357908414242879 [Eh]
	 SCS Opposite-Spin Energy  =      -1.4586937464741612 [Eh]
	 SCS Correlation Energy    =      -1.5944845878984490 [Eh]
	 SCS Total Energy          =    -394.3128855302920215 [Eh]
	-----------------------------------------------------------

  Dipole Moment: [D]
     X:     8.0657      Y:    -0.9945      Z:     0.0030     Total:     8.1268

*** Psi4 exiting successfully. Buy a developer a beer!
