                               Psi4 1.3.2 release

  ==> Input File <==

--------------------------------------------------------------------------
#psi4
#
memory 32 gb

molecule  {
0 1
  O       -2.2334690    -1.1675340     0.0001340
  N        0.0265130    -0.9084710    -0.0000270
  N        2.3544690    -0.8475160    -0.0005320
  N       -1.3973450     1.0028810     0.0002180
  C        1.1706060    -0.1768690    -0.0001310
  C        1.0385970     1.1986830    -0.0000890
  C       -1.2215756    -0.3104779     0.0001556
  C       -0.2757380     1.7018570     0.0000510
  H        0.0506260    -1.9247470    -0.0002200
  H        1.9024710     1.8518520    -0.0001620
  H       -0.4079780     2.7850560     0.0002120
  H        3.2235170    -0.3366370     0.0005700
  H        2.4001700    -1.8548790     0.0010060
units angstrom
no_reorient  #important for SAPT in psi4, default
symmetry c1  #important for SAPT in psi4, default
}

set PROPERTIES_ORIGIN ["COM"]
properties('MP2/aug-cc-pvtz', properties = ['dipole'])
--------------------------------------------------------------------------

    Molecular point group: c1
  Charge       = 0
  Multiplicity = 1
  Basis Set: AUG-CC-PVTZ
    Blend: AUG-CC-PVTZ
  Basis Set: (AUG-CC-PVTZ AUX)
    Blend: AUG-CC-PVTZ-JKFIT

    Orbital Energies [Eh]
    ---------------------

    Doubly Occupied:

       1A    -20.481649     2A    -15.644245     3A    -15.636348
       4A    -15.553492     5A    -11.392394     6A    -11.370781
       7A    -11.318632     8A    -11.243679     9A     -1.379709
      10A     -1.299912    11A     -1.234068    12A     -1.217138
      13A     -1.067357    14A     -0.922764    15A     -0.895276
      16A     -0.793332    17A     -0.767468    18A     -0.733784
      19A     -0.697334    20A     -0.648018    21A     -0.647863
      22A     -0.607146    23A     -0.543128    24A     -0.542140
      25A     -0.466173    26A     -0.442059    27A     -0.424913
      28A     -0.406221    29A     -0.329183

  @DF-RHF Final Energy:  -392.73149809959853

   => Energetics <=

    Nuclear Repulsion Energy =            355.8306929354421300
    One-Electron Energy =               -1239.7119743485181971
    Two-Electron Energy =                 491.1497833134775419
    Total Energy =                       -392.7314980995985252
  Basis Set: (AUG-CC-PVTZ AUX)
    Blend: AUG-CC-PVTZ-RI
    Molecular point group: c1

    Geometry (in Angstrom), charge = 0, multiplicity = 1:

       Center              X                  Y                   Z               Mass
    ------------   -----------------  -----------------  -----------------  -----------------
         O           -2.177791336916    -1.169899119351     0.000146387313    15.994914619570
         N            0.082190663084    -0.910836119351    -0.000014612687    14.003074004430
         N            2.410146663084    -0.849881119351    -0.000519612687    14.003074004430
         N           -1.341667336916     1.000515880649     0.000230387313    14.003074004430
         C            1.226283663084    -0.179234119351    -0.000118612687    12.000000000000
         C            1.094274663084     1.196317880649    -0.000076612687    12.000000000000
         C           -1.165897936916    -0.312843019351     0.000167987313    12.000000000000
         C           -0.220060336916     1.699491880649     0.000063387313    12.000000000000
         H            0.106303663084    -1.927112119351    -0.000207612687     1.007825032230
         H            1.958148663084     1.849486880649    -0.000149612687     1.007825032230
         H           -0.352300336916     2.782690880649     0.000224387313     1.007825032230
         H            3.279194663084    -0.339002119351     0.000582387313     1.007825032230
         H            2.455847663084    -1.857244119351     0.001018387313     1.007825032230

  Basis Set: AUG-CC-PVTZ
    Blend: AUG-CC-PVTZ
  Basis Set: (AUG-CC-PVTZ AUX)
    Blend: AUG-CC-PVTZ-JKFIT
	 Reference Energy          =    -392.7314980995985252 [Eh]
	 Singles Energy            =      -0.0000000000000000 [Eh]
	 Same-Spin Energy          =      -0.4086046962982514 [Eh]
	 Opposite-Spin Energy      =      -1.2167582913276267 [Eh]
	 Correlation Energy        =      -1.6253629876258782 [Eh]
	 Total Energy              =    -394.3568610872243880 [Eh]

	 ================> DF-SCS-MP2 Energies <==================
	-----------------------------------------------------------
	 SCS Same-Spin Scale       =       0.3333333333333333 [-]
	 SCS Opposite-Spin Scale   =       1.2000000000000000 [-]
	 SCS Same-Spin Energy      =      -0.1362015654327505 [Eh]
	 SCS Opposite-Spin Energy  =      -1.4601099495931520 [Eh]
	 SCS Correlation Energy    =      -1.5963115150259024 [Eh]
	 SCS Total Energy          =    -394.3278096146244138 [Eh]
	-----------------------------------------------------------

  Dipole Moment: [D]
     X:     9.0838      Y:    -0.2800      Z:     0.0030     Total:     9.0882

*** Psi4 exiting successfully. Buy a developer a beer!
