                               Psi4 1.3.2 release

  ==> Input File <==

--------------------------------------------------------------------------
#psi4
#
memory 32 gb

molecule  {
0 1
  O       -2.2334690    -1.1675340     0.0001340
  N        0.0265130    -0.9084710    -0.0000270
  N        2.3544690    -0.8475160    -0.0005320
  N       -1.3973450     1.0028810     0.0002180
  C        1.1706060    -0.1768690    -0.0001310
  C        1.0385970     1.1986830    -0.0000890
  C       -1.3463793    -0.5164679     0.0001303
  C       -0.2757380     1.7018570     0.0000510
  H        0.0506260    -1.9247470    -0.0002200
  H        1.9024710     1.8518520    -0.0001620
  H       -0.4079780     2.7850560     0.0002120
  H        3.2235170    -0.3366370     0.0005700
  H        2.4001700    -1.8548790     0.0010060
units angstrom
no_reorient  #important for SAPT in psi4, default
symmetry c1  #important for SAPT in psi4, default
}

set PROPERTIES_ORIGIN ["COM"]
properties('MP2/aug-cc-pvtz', properties = ['dipole'])
--------------------------------------------------------------------------

    Molecular point group: c1
  Charge       = 0
  Multiplicity = 1
  Basis Set: AUG-CC-PVTZ
    Blend: AUG-CC-PVTZ
  Basis Set: (AUG-CC-PVTZ AUX)
    Blend: AUG-CC-PVTZ-JKFIT

    Orbital Energies [Eh]
    ---------------------

    Doubly Occupied:

       1A    -20.545024     2A    -15.624704     3A    -15.620369
       4A    -15.535038     5A    -11.376635     6A    -11.374784
       7A    -11.289030     8A    -11.218678     9A     -1.479962
      10A     -1.329689    11A     -1.232085    12A     -1.171629
      13A     -1.041514    14A     -0.895409    15A     -0.870464
      16A     -0.778374    17A     -0.738731    18A     -0.711808
      19A     -0.692132    20A     -0.664755    21A     -0.647671
      22A     -0.619033    23A     -0.575136    24A     -0.570953
      25A     -0.479757    26A     -0.462991    27A     -0.441955
      28A     -0.383431    29A     -0.312659

  @DF-RHF Final Energy:  -392.71859830277555

   => Energetics <=

    Nuclear Repulsion Energy =            355.0550211288532978
    One-Electron Energy =               -1238.1784341637194302
    Two-Electron Energy =                 490.4048147320906423
    Total Energy =                       -392.7185983027755469
  Basis Set: (AUG-CC-PVTZ AUX)
    Blend: AUG-CC-PVTZ-RI
    Molecular point group: c1

    Geometry (in Angstrom), charge = 0, multiplicity = 1:

       Center              X                  Y                   Z               Mass
    ------------   -----------------  -----------------  -----------------  -----------------
         O           -2.164304301540    -1.147638606106     0.000149121383    15.994914619570
         N            0.095677698460    -0.888575606106    -0.000011878617    14.003074004430
         N            2.423633698460    -0.827620606106    -0.000516878617    14.003074004430
         N           -1.328180301540     1.022776393894     0.000233121383    14.003074004430
         C            1.239770698460    -0.156973606106    -0.000115878617    12.000000000000
         C            1.107761698460     1.218578393894    -0.000073878617    12.000000000000
         C           -1.277214601540    -0.496572506106     0.000145421383    12.000000000000
         C           -0.206573301540     1.721752393894     0.000066121383    12.000000000000
         H            0.119790698460    -1.904851606106    -0.000204878617     1.007825032230
         H            1.971635698460     1.871747393894    -0.000146878617     1.007825032230
         H           -0.338813301540     2.804951393894     0.000227121383     1.007825032230
         H            3.292681698460    -0.316741606106     0.000585121383     1.007825032230
         H            2.469334698460    -1.834983606106     0.001021121383     1.007825032230

  Basis Set: AUG-CC-PVTZ
    Blend: AUG-CC-PVTZ
  Basis Set: (AUG-CC-PVTZ AUX)
    Blend: AUG-CC-PVTZ-JKFIT
	 Reference Energy          =    -392.7185983027755469 [Eh]
	 Singles Energy            =      -0.0000000000000000 [Eh]
	 Same-Spin Energy          =      -0.4051115575212675 [Eh]
	 Opposite-Spin Energy      =      -1.2127583429104973 [Eh]
	 Correlation Energy        =      -1.6178699004317649 [Eh]
	 Total Energy              =    -394.3364682032072892 [Eh]

	 ================> DF-SCS-MP2 Energies <==================
	-----------------------------------------------------------
	 SCS Same-Spin Scale       =       0.3333333333333333 [-]
	 SCS Opposite-Spin Scale   =       1.2000000000000000 [-]
	 SCS Same-Spin Energy      =      -0.1350371858404225 [Eh]
	 SCS Opposite-Spin Energy  =      -1.4553100114925968 [Eh]
	 SCS Correlation Energy    =      -1.5903471973330192 [Eh]
	 SCS Total Energy          =    -394.3089455001085639 [Eh]
	-----------------------------------------------------------

  Dipole Moment: [D]
     X:     6.9392      Y:    -1.8830      Z:     0.0031     Total:     7.1901

*** Psi4 exiting successfully. Buy a developer a beer!
