                               Psi4 1.3.2 release

  ==> Input File <==

--------------------------------------------------------------------------
#psi4
#
memory 32 gb

molecule  {
0 1
  O       -2.2334690    -1.1675340     0.0001340
  N        0.0265130    -0.9084710    -0.0000270
  N        2.3544690    -0.8475160    -0.0005320
  N       -1.3973450     1.0028810     0.0002180
  C        1.1706060    -0.1768690    -0.0001310
  C        1.0385970     1.1986830    -0.0000890
  C       -1.2978830    -0.3751090     0.0001540
  C       -0.3606067     1.6489675     0.0000636
  H        0.0506260    -1.9247470    -0.0002200
  H        1.9024710     1.8518520    -0.0001620
  H       -0.4079780     2.7850560     0.0002120
  H        3.2235170    -0.3366370     0.0005700
  H        2.4001700    -1.8548790     0.0010060
units angstrom
no_reorient  #important for SAPT in psi4, default
symmetry c1  #important for SAPT in psi4, default
}

set PROPERTIES_ORIGIN ["COM"]
properties('MP2/aug-cc-pvtz', properties = ['dipole'])
--------------------------------------------------------------------------

    Molecular point group: c1
  Charge       = 0
  Multiplicity = 1
  Basis Set: AUG-CC-PVTZ
    Blend: AUG-CC-PVTZ
  Basis Set: (AUG-CC-PVTZ AUX)
    Blend: AUG-CC-PVTZ-JKFIT

    Orbital Energies [Eh]
    ---------------------

    Doubly Occupied:

       1A    -20.520440     2A    -15.629729     3A    -15.620706
       4A    -15.549286     5A    -11.385772     6A    -11.373493
       7A    -11.305231     8A    -11.228488     9A     -1.397827
      10A     -1.322125    11A     -1.269031    12A     -1.210823
      13A     -1.044275    14A     -0.904044    15A     -0.886804
      16A     -0.781067    17A     -0.753935    18A     -0.717763
      19A     -0.690444    20A     -0.640670    21A     -0.633861
      22A     -0.620374    23A     -0.570927    24A     -0.551827
      25A     -0.478192    26A     -0.456976    27A     -0.441782
      28A     -0.412548    29A     -0.324571

  @DF-RHF Final Energy:  -392.74079265742034

   => Energetics <=

    Nuclear Repulsion Energy =            356.3802720886622524
    One-Electron Energy =               -1240.7961116199167009
    Two-Electron Energy =                 491.6750468738341624
    Total Energy =                       -392.7407926574203429
  Basis Set: (AUG-CC-PVTZ AUX)
    Blend: AUG-CC-PVTZ-RI
    Molecular point group: c1

    Geometry (in Angstrom), charge = 0, multiplicity = 1:

       Center              X                  Y                   Z               Mass
    ------------   -----------------  -----------------  -----------------  -----------------
         O           -2.160373682132    -1.157199139386     0.000145198587    15.994914619570
         N            0.099608317868    -0.898136139386    -0.000015801413    14.003074004430
         N            2.427564317868    -0.837181139386    -0.000520801413    14.003074004430
         N           -1.324249682132     1.013215860614     0.000229198587    14.003074004430
         C            1.243701317868    -0.166534139386    -0.000119801413    12.000000000000
         C            1.111692317868     1.209017860614    -0.000077801413    12.000000000000
         C           -1.224787682132    -0.364774139386     0.000165198587    12.000000000000
         C           -0.287511382132     1.659302360614     0.000074798587    12.000000000000
         H            0.123721317868    -1.914412139386    -0.000208801413     1.007825032230
         H            1.975566317868     1.862186860614    -0.000150801413     1.007825032230
         H           -0.334882682132     2.795390860614     0.000223198587     1.007825032230
         H            3.296612317868    -0.326302139386     0.000581198587     1.007825032230
         H            2.473265317868    -1.844544139386     0.001017198587     1.007825032230

  Basis Set: AUG-CC-PVTZ
    Blend: AUG-CC-PVTZ
  Basis Set: (AUG-CC-PVTZ AUX)
    Blend: AUG-CC-PVTZ-JKFIT
	 Reference Energy          =    -392.7407926574203429 [Eh]
	 Singles Energy            =      -0.0000000000000000 [Eh]
	 Same-Spin Energy          =      -0.4053009497659298 [Eh]
	 Opposite-Spin Energy      =      -1.2121256183752138 [Eh]
	 Correlation Energy        =      -1.6174265681411437 [Eh]
	 Total Energy              =    -394.3582192255614700 [Eh]

	 ================> DF-SCS-MP2 Energies <==================
	-----------------------------------------------------------
	 SCS Same-Spin Scale       =       0.3333333333333333 [-]
	 SCS Opposite-Spin Scale   =       1.2000000000000000 [-]
	 SCS Same-Spin Energy      =      -0.1351003165886433 [Eh]
	 SCS Opposite-Spin Energy  =      -1.4545507420502566 [Eh]
	 SCS Correlation Energy    =      -1.5896510586388999 [Eh]
	 SCS Total Energy          =    -394.3304437160592215 [Eh]
	-----------------------------------------------------------

  Dipole Moment: [D]
     X:     7.4743      Y:    -0.9531      Z:     0.0031     Total:     7.5348

*** Psi4 exiting successfully. Buy a developer a beer!
