                               Psi4 1.3.2 release

  ==> Input File <==

--------------------------------------------------------------------------
#psi4
#
memory 32 gb

molecule  {
0 1
  O       -2.2334690    -1.1675340     0.0001340
  N        0.0265130    -0.9084710    -0.0000270
  N        2.3544690    -0.8475160    -0.0005320
  N       -1.3973450     1.0028810     0.0002180
  C        1.2202718    -0.0959207     0.0000040
  C        1.0385970     1.1986830    -0.0000890
  C       -1.2978830    -0.3751090     0.0001540
  C       -0.2757380     1.7018570     0.0000510
  H        0.0506260    -1.9247470    -0.0002200
  H        1.9024710     1.8518520    -0.0001620
  H       -0.4079780     2.7850560     0.0002120
  H        3.2235170    -0.3366370     0.0005700
  H        2.4001700    -1.8548790     0.0010060
units angstrom
no_reorient  #important for SAPT in psi4, default
symmetry c1  #important for SAPT in psi4, default
}

set PROPERTIES_ORIGIN ["COM"]
properties('MP2/aug-cc-pvtz', properties = ['dipole'])
--------------------------------------------------------------------------

    Molecular point group: c1
  Charge       = 0
  Multiplicity = 1
  Basis Set: AUG-CC-PVTZ
    Blend: AUG-CC-PVTZ
  Basis Set: (AUG-CC-PVTZ AUX)
    Blend: AUG-CC-PVTZ-JKFIT

    Orbital Energies [Eh]
    ---------------------

    Doubly Occupied:

       1A    -20.507127     2A    -15.624616     3A    -15.618841
       4A    -15.553687     5A    -11.377317     6A    -11.372447
       7A    -11.316899     8A    -11.232221     9A     -1.380996
      10A     -1.310584    11A     -1.241664    12A     -1.184213
      13A     -1.078031    14A     -0.915348    15A     -0.867439
      16A     -0.778904    17A     -0.744877    18A     -0.724499
      19A     -0.686109    20A     -0.639438    21A     -0.628206
      22A     -0.621814    23A     -0.569007    24A     -0.547585
      25A     -0.462960    26A     -0.448923    27A     -0.430452
      28A     -0.416322    29A     -0.338512

  @DF-RHF Final Energy:  -392.73803721707594

   => Energetics <=

    Nuclear Repulsion Energy =            354.7818150470197338
    One-Electron Energy =               -1237.8016295905988500
    Two-Electron Energy =                 490.2817773265031178
    Total Energy =                       -392.7380372170759415
  Basis Set: (AUG-CC-PVTZ AUX)
    Blend: AUG-CC-PVTZ-RI
    Molecular point group: c1

    Geometry (in Angstrom), charge = 0, multiplicity = 1:

       Center              X                  Y                   Z               Mass
    ------------   -----------------  -----------------  -----------------  -----------------
         O           -2.174912286041    -1.171662453720     0.000131971310    15.994914619570
         N            0.085069713959    -0.912599453720    -0.000029028690    14.003074004430
         N            2.413025713959    -0.851644453720    -0.000534028690    14.003074004430
         N           -1.338788286041     0.998752546280     0.000215971310    14.003074004430
         C            1.278828513959    -0.100049153720     0.000001971310    12.000000000000
         C            1.097153713959     1.194554546280    -0.000091028690    12.000000000000
         C           -1.239326286041    -0.379237453720     0.000151971310    12.000000000000
         C           -0.217181286041     1.697728546280     0.000048971310    12.000000000000
         H            0.109182713959    -1.928875453720    -0.000222028690     1.007825032230
         H            1.961027713959     1.847723546280    -0.000164028690     1.007825032230
         H           -0.349421286041     2.780927546280     0.000209971310     1.007825032230
         H            3.282073713959    -0.340765453720     0.000567971310     1.007825032230
         H            2.458726713959    -1.859007453720     0.001003971310     1.007825032230

  Basis Set: AUG-CC-PVTZ
    Blend: AUG-CC-PVTZ
  Basis Set: (AUG-CC-PVTZ AUX)
    Blend: AUG-CC-PVTZ-JKFIT
	 Reference Energy          =    -392.7380372170759415 [Eh]
	 Singles Energy            =      -0.0000000000000000 [Eh]
	 Same-Spin Energy          =      -0.4067083922098732 [Eh]
	 Opposite-Spin Energy      =      -1.2154665228380743 [Eh]
	 Correlation Energy        =      -1.6221749150479474 [Eh]
	 Total Energy              =    -394.3602121321238769 [Eh]

	 ================> DF-SCS-MP2 Energies <==================
	-----------------------------------------------------------
	 SCS Same-Spin Scale       =       0.3333333333333333 [-]
	 SCS Opposite-Spin Scale   =       1.2000000000000000 [-]
	 SCS Same-Spin Energy      =      -0.1355694640699577 [Eh]
	 SCS Opposite-Spin Energy  =      -1.4585598274056892 [Eh]
	 SCS Correlation Energy    =      -1.5941292914756469 [Eh]
	 SCS Total Energy          =    -394.3321665085516088 [Eh]
	-----------------------------------------------------------

  Dipole Moment: [D]
     X:     8.0567      Y:    -0.4227      Z:     0.0032     Total:     8.0678

*** Psi4 exiting successfully. Buy a developer a beer!
