                               Psi4 1.3.2 release

  ==> Input File <==

--------------------------------------------------------------------------
#psi4
#
memory 32 gb

molecule  {
0 1
  O       -2.2334690    -1.1675340     0.0001340
  N        0.0265130    -0.9084710    -0.0000270
  N        2.3544690    -0.8475160    -0.0005320
  N       -1.3973450     1.0028810     0.0002180
  C        1.1706060    -0.1768690    -0.0001310
  C        1.0385970     1.1986830    -0.0000890
  C       -1.1543887    -0.3571636     0.0001302
  C       -0.2757380     1.7018570     0.0000510
  H        0.0506260    -1.9247470    -0.0002200
  H        1.9024710     1.8518520    -0.0001620
  H       -0.4079780     2.7850560     0.0002120
  H        3.2235170    -0.3366370     0.0005700
  H        2.4001700    -1.8548790     0.0010060
units angstrom
no_reorient  #important for SAPT in psi4, default
symmetry c1  #important for SAPT in psi4, default
}

set PROPERTIES_ORIGIN ["COM"]
properties('MP2/aug-cc-pvtz', properties = ['dipole'])
--------------------------------------------------------------------------

    Molecular point group: c1
  Charge       = 0
  Multiplicity = 1
  Basis Set: AUG-CC-PVTZ
    Blend: AUG-CC-PVTZ
  Basis Set: (AUG-CC-PVTZ AUX)
    Blend: AUG-CC-PVTZ-JKFIT

    Orbital Energies [Eh]
    ---------------------

    Doubly Occupied:

       1A    -20.477807     2A    -15.653585     3A    -15.638429
       4A    -15.559759     5A    -11.394527     6A    -11.369299
       7A    -11.313112     8A    -11.245373     9A     -1.396072
      10A     -1.295195    11A     -1.224812    12A     -1.221510
      13A     -1.066627    14A     -0.925611    15A     -0.908805
      16A     -0.801524    17A     -0.765569    18A     -0.742418
      19A     -0.695913    20A     -0.659709    21A     -0.648677
      22A     -0.605156    23A     -0.541735    24A     -0.527979
      25A     -0.471682    26A     -0.445777    27A     -0.418110
      28A     -0.399538    29A     -0.327434

  @DF-RHF Final Energy:  -392.71715940263130

   => Energetics <=

    Nuclear Repulsion Energy =            356.2551278350833854
    One-Electron Energy =               -1240.4610870015458204
    Two-Electron Energy =                 491.4887997638311390
    Total Energy =                       -392.7171594026312960
  Basis Set: (AUG-CC-PVTZ AUX)
    Blend: AUG-CC-PVTZ-RI
    Molecular point group: c1

    Geometry (in Angstrom), charge = 0, multiplicity = 1:

       Center              X                  Y                   Z               Mass
    ------------   -----------------  -----------------  -----------------  -----------------
         O           -2.185051955768    -1.164853982970     0.000149132190    15.994914619570
         N            0.074930044232    -0.905790982970    -0.000011867810    14.003074004430
         N            2.402886044232    -0.844835982970    -0.000516867810    14.003074004430
         N           -1.348927955768     1.005561017030     0.000233132190    14.003074004430
         C            1.219023044232    -0.174188982970    -0.000115867810    12.000000000000
         C            1.087014044232     1.201363017030    -0.000073867810    12.000000000000
         C           -1.105971655768    -0.354483582970     0.000145332190    12.000000000000
         C           -0.227320955768     1.704537017030     0.000066132190    12.000000000000
         H            0.099043044232    -1.922066982970    -0.000204867810     1.007825032230
         H            1.950888044232     1.854532017030    -0.000146867810     1.007825032230
         H           -0.359560955768     2.787736017030     0.000227132190     1.007825032230
         H            3.271934044232    -0.333956982970     0.000585132190     1.007825032230
         H            2.448587044232    -1.852198982970     0.001021132190     1.007825032230

  Basis Set: AUG-CC-PVTZ
    Blend: AUG-CC-PVTZ
  Basis Set: (AUG-CC-PVTZ AUX)
    Blend: AUG-CC-PVTZ-JKFIT
	 Reference Energy          =    -392.7171594026312960 [Eh]
	 Singles Energy            =      -0.0000000000000000 [Eh]
	 Same-Spin Energy          =      -0.4092370981935284 [Eh]
	 Opposite-Spin Energy      =      -1.2186820966372802 [Eh]
	 Correlation Energy        =      -1.6279191948308087 [Eh]
	 Total Energy              =    -394.3450785974620771 [Eh]

	 ================> DF-SCS-MP2 Energies <==================
	-----------------------------------------------------------
	 SCS Same-Spin Scale       =       0.3333333333333333 [-]
	 SCS Opposite-Spin Scale   =       1.2000000000000000 [-]
	 SCS Same-Spin Energy      =      -0.1364123660645095 [Eh]
	 SCS Opposite-Spin Energy  =      -1.4624185159647363 [Eh]
	 SCS Correlation Energy    =      -1.5988308820292456 [Eh]
	 SCS Total Energy          =    -394.3159902846605291 [Eh]
	-----------------------------------------------------------

  Dipole Moment: [D]
     X:     9.3268      Y:    -0.3241      Z:     0.0029     Total:     9.3325

*** Psi4 exiting successfully. Buy a developer a beer!
