                               Psi4 1.3.2 release

  ==> Input File <==

--------------------------------------------------------------------------
#psi4
#
memory 32 gb

molecule  {
0 1
  O       -2.2334690    -1.1675340     0.0001340
  N        0.0265130    -0.9084710    -0.0000270
  N        2.3544690    -0.8475160    -0.0005320
  N       -1.3973450     1.0028810     0.0002180
  C        1.1706060    -0.1768690    -0.0001310
  C        1.0385970     1.1986830    -0.0000890
  C       -1.3906434    -0.3377525     0.0001667
  C       -0.2757380     1.7018570     0.0000510
  H        0.0506260    -1.9247470    -0.0002200
  H        1.9024710     1.8518520    -0.0001620
  H       -0.4079780     2.7850560     0.0002120
  H        3.2235170    -0.3366370     0.0005700
  H        2.4001700    -1.8548790     0.0010060
units angstrom
no_reorient  #important for SAPT in psi4, default
symmetry c1  #important for SAPT in psi4, default
}

set PROPERTIES_ORIGIN ["COM"]
properties('MP2/aug-cc-pvtz', properties = ['dipole'])
--------------------------------------------------------------------------

    Molecular point group: c1
  Charge       = 0
  Multiplicity = 1
  Basis Set: AUG-CC-PVTZ
    Blend: AUG-CC-PVTZ
  Basis Set: (AUG-CC-PVTZ AUX)
    Blend: AUG-CC-PVTZ-JKFIT

    Orbital Energies [Eh]
    ---------------------

    Doubly Occupied:

       1A    -20.521389     2A    -15.623599     3A    -15.613406
       4A    -15.540338     5A    -11.378742     6A    -11.377618
       7A    -11.312744     8A    -11.228695     9A     -1.409246
      10A     -1.319927    11A     -1.244796    12A     -1.186933
      13A     -1.055576    14A     -0.911720    15A     -0.863511
      16A     -0.774183    17A     -0.751646    18A     -0.708120
      19A     -0.690338    20A     -0.643156    21A     -0.628664
      22A     -0.622487    23A     -0.576432    24A     -0.558512
      25A     -0.462746    26A     -0.459688    27A     -0.436065
      28A     -0.407535    29A     -0.326217

  @DF-RHF Final Energy:  -392.74557129354008

   => Energetics <=

    Nuclear Repulsion Energy =            354.7238856665815092
    One-Electron Energy =               -1237.6708554198112324
    Two-Electron Energy =                 490.2013984596896421
    Total Energy =                       -392.7455712935400811
  Basis Set: (AUG-CC-PVTZ AUX)
    Blend: AUG-CC-PVTZ-RI
    Molecular point group: c1

    Geometry (in Angstrom), charge = 0, multiplicity = 1:

       Center              X                  Y                   Z               Mass
    ------------   -----------------  -----------------  -----------------  -----------------
         O           -2.159520857760    -1.166951662705     0.000145187781    15.994914619570
         N            0.100461142240    -0.907888662705    -0.000015812219    14.003074004430
         N            2.428417142240    -0.846933662705    -0.000520812219    14.003074004430
         N           -1.323396857760     1.003463337295     0.000229187781    14.003074004430
         C            1.244554142240    -0.176286662705    -0.000119812219    12.000000000000
         C            1.112545142240     1.199265337295    -0.000077812219    12.000000000000
         C           -1.316695257760    -0.337170162705     0.000177887781    12.000000000000
         C           -0.201789857760     1.702439337295     0.000062187781    12.000000000000
         H            0.124574142240    -1.924164662705    -0.000208812219     1.007825032230
         H            1.976419142240     1.852434337295    -0.000150812219     1.007825032230
         H           -0.334029857760     2.785638337295     0.000223187781     1.007825032230
         H            3.297465142240    -0.336054662705     0.000581187781     1.007825032230
         H            2.474118142240    -1.854296662705     0.001017187781     1.007825032230

  Basis Set: AUG-CC-PVTZ
    Blend: AUG-CC-PVTZ
  Basis Set: (AUG-CC-PVTZ AUX)
    Blend: AUG-CC-PVTZ-JKFIT
	 Reference Energy          =    -392.7455712935400811 [Eh]
	 Singles Energy            =      -0.0000000000000000 [Eh]
	 Same-Spin Energy          =      -0.4066164540782413 [Eh]
	 Opposite-Spin Energy      =      -1.2129728065641876 [Eh]
	 Correlation Energy        =      -1.6195892606424289 [Eh]
	 Total Energy              =    -394.3651605541825234 [Eh]

	 ================> DF-SCS-MP2 Energies <==================
	-----------------------------------------------------------
	 SCS Same-Spin Scale       =       0.3333333333333333 [-]
	 SCS Opposite-Spin Scale   =       1.2000000000000000 [-]
	 SCS Same-Spin Energy      =      -0.1355388180260804 [Eh]
	 SCS Opposite-Spin Energy  =      -1.4555673678770251 [Eh]
	 SCS Correlation Energy    =      -1.5911061859031055 [Eh]
	 SCS Total Energy          =    -394.3366774794432104 [Eh]
	-----------------------------------------------------------

  Dipole Moment: [D]
     X:     7.5255      Y:    -0.9056      Z:     0.0031     Total:     7.5798

*** Psi4 exiting successfully. Buy a developer a beer!
