                               Psi4 1.3.2 release

  ==> Input File <==

--------------------------------------------------------------------------
#psi4
#
memory 32 gb

molecule  {
0 1
  O       -2.2334690    -1.1675340     0.0001340
  N        0.0265130    -0.9084710    -0.0000270
  N        2.3544690    -0.8475160    -0.0005320
  N       -1.3973450     1.0028810     0.0002180
  C        1.1706060    -0.1768690    -0.0001310
  C        1.0385970     1.1986830    -0.0000890
  C       -1.2978830    -0.3751090     0.0001540
  C       -0.2757380     1.7018570     0.0000510
  H        0.0506260    -1.9247470    -0.0002200
  H        1.9024710     1.8518520    -0.0001620
  H       -0.4079780     2.7850560     0.0002120
  H        3.2721573    -0.4302758     0.0008066
  H        2.4001700    -1.8548790     0.0010060
units angstrom
no_reorient  #important for SAPT in psi4, default
symmetry c1  #important for SAPT in psi4, default
}

set PROPERTIES_ORIGIN ["COM"]
properties('MP2/aug-cc-pvtz', properties = ['dipole'])
--------------------------------------------------------------------------

    Molecular point group: c1
  Charge       = 0
  Multiplicity = 1
  Basis Set: AUG-CC-PVTZ
    Blend: AUG-CC-PVTZ
  Basis Set: (AUG-CC-PVTZ AUX)
    Blend: AUG-CC-PVTZ-JKFIT

    Orbital Energies [Eh]
    ---------------------

    Doubly Occupied:

       1A    -20.509318     2A    -15.632481     3A    -15.628617
       4A    -15.545654     5A    -11.385940     6A    -11.375815
       7A    -11.308609     8A    -11.232248     9A     -1.388724
      10A     -1.322839    11A     -1.242421    12A     -1.198880
      13A     -1.058043    14A     -0.911221    15A     -0.884321
      16A     -0.783800    17A     -0.750558    18A     -0.724738
      19A     -0.687340    20A     -0.638588    21A     -0.636214
      22A     -0.620119    23A     -0.568849    24A     -0.547694
      25A     -0.460025    26A     -0.447563    27A     -0.442035
      28A     -0.415393    29A     -0.325393

  @DF-RHF Final Energy:  -392.74965711750804

   => Energetics <=

    Nuclear Repulsion Energy =            355.0575326651026558
    One-Electron Energy =               -1238.2674918260051982
    Two-Electron Energy =                 490.4603020433945630
    Total Energy =                       -392.7496571175080362
  Basis Set: (AUG-CC-PVTZ AUX)
    Blend: AUG-CC-PVTZ-RI
    Molecular point group: c1

    Geometry (in Angstrom), charge = 0, multiplicity = 1:

       Center              X                  Y                   Z               Mass
    ------------   -----------------  -----------------  -----------------  -----------------
         O           -2.169986559984    -1.162064832853     0.000144412845    15.994914619570
         N            0.089995440016    -0.903001832853    -0.000016587155    14.003074004430
         N            2.417951440016    -0.842046832853    -0.000521587155    14.003074004430
         N           -1.333862559984     1.008350167147     0.000228412845    14.003074004430
         C            1.234088440016    -0.171399832853    -0.000120587155    12.000000000000
         C            1.102079440016     1.204152167147    -0.000078587155    12.000000000000
         C           -1.234400559984    -0.369639832853     0.000164412845    12.000000000000
         C           -0.212255559984     1.707326167147     0.000061412845    12.000000000000
         H            0.114108440016    -1.919277832853    -0.000209587155     1.007825032230
         H            1.965953440016     1.857321167147    -0.000151587155     1.007825032230
         H           -0.344495559984     2.790525167147     0.000222412845     1.007825032230
         H            3.335639740016    -0.424806632853     0.000817012845     1.007825032230
         H            2.463652440016    -1.849409832853     0.001016412845     1.007825032230

  Basis Set: AUG-CC-PVTZ
    Blend: AUG-CC-PVTZ
  Basis Set: (AUG-CC-PVTZ AUX)
    Blend: AUG-CC-PVTZ-JKFIT
	 Reference Energy          =    -392.7496571175080362 [Eh]
	 Singles Energy            =      -0.0000000000000000 [Eh]
	 Same-Spin Energy          =      -0.4068948322921604 [Eh]
	 Opposite-Spin Energy      =      -1.2142517912854098 [Eh]
	 Correlation Energy        =      -1.6211466235775702 [Eh]
	 Total Energy              =    -394.3708037410855809 [Eh]

	 ================> DF-SCS-MP2 Energies <==================
	-----------------------------------------------------------
	 SCS Same-Spin Scale       =       0.3333333333333333 [-]
	 SCS Opposite-Spin Scale   =       1.2000000000000000 [-]
	 SCS Same-Spin Energy      =      -0.1356316107640534 [Eh]
	 SCS Opposite-Spin Energy  =      -1.4571021495424918 [Eh]
	 SCS Correlation Energy    =      -1.5927337603065452 [Eh]
	 SCS Total Energy          =    -394.3423908778145801 [Eh]
	-----------------------------------------------------------

  Dipole Moment: [D]
     X:     8.1807      Y:    -0.9158      Z:     0.0033     Total:     8.2318

*** Psi4 exiting successfully. Buy a developer a beer!
