                               Psi4 1.3.2 release

  ==> Input File <==

--------------------------------------------------------------------------
#psi4
#
memory 32 gb

molecule  {
0 1
  O       -2.1759132    -1.2308669     0.0001302
  N        0.0265130    -0.9084710    -0.0000270
  N        2.3544690    -0.8475160    -0.0005320
  N       -1.3973450     1.0028810     0.0002180
  C        1.1706060    -0.1768690    -0.0001310
  C        1.0385970     1.1986830    -0.0000890
  C       -1.2978830    -0.3751090     0.0001540
  C       -0.2757380     1.7018570     0.0000510
  H        0.0506260    -1.9247470    -0.0002200
  H        1.9024710     1.8518520    -0.0001620
  H       -0.4079780     2.7850560     0.0002120
  H        3.2235170    -0.3366370     0.0005700
  H        2.4001700    -1.8548790     0.0010060
units angstrom
no_reorient  #important for SAPT in psi4, default
symmetry c1  #important for SAPT in psi4, default
}

set PROPERTIES_ORIGIN ["COM"]
properties('MP2/aug-cc-pvtz', properties = ['dipole'])
--------------------------------------------------------------------------

    Molecular point group: c1
  Charge       = 0
  Multiplicity = 1
  Basis Set: AUG-CC-PVTZ
    Blend: AUG-CC-PVTZ
  Basis Set: (AUG-CC-PVTZ AUX)
    Blend: AUG-CC-PVTZ-JKFIT

    Orbital Energies [Eh]
    ---------------------

    Doubly Occupied:

       1A    -20.509160     2A    -15.628382     3A    -15.628040
       4A    -15.547928     5A    -11.382977     6A    -11.376476
       7A    -11.310998     8A    -11.232603     9A     -1.390415
      10A     -1.321494    11A     -1.243230    12A     -1.198297
      13A     -1.057561    14A     -0.910044    15A     -0.882039
      16A     -0.783310    17A     -0.752407    18A     -0.721031
      19A     -0.691510    20A     -0.637699    21A     -0.637593
      22A     -0.619478    23A     -0.570123    24A     -0.547890
      25A     -0.461924    26A     -0.450778    27A     -0.439520
      28A     -0.414223    29A     -0.326532

  @DF-RHF Final Energy:  -392.75023531435613

   => Energetics <=

    Nuclear Repulsion Energy =            355.4534205329626388
    One-Electron Energy =               -1239.0599860387778790
    Two-Electron Energy =                 490.8563301914591648
    Total Energy =                       -392.7502353143561322
  Basis Set: (AUG-CC-PVTZ AUX)
    Blend: AUG-CC-PVTZ-RI
    Molecular point group: c1

    Geometry (in Angstrom), charge = 0, multiplicity = 1:

       Center              X                  Y                   Z               Mass
    ------------   -----------------  -----------------  -----------------  -----------------
         O           -2.120279765685    -1.217124985937     0.000143307579    15.994914619570
         N            0.082146434315    -0.894729085937    -0.000013892421    14.003074004430
         N            2.410102434315    -0.833774085937    -0.000518892421    14.003074004430
         N           -1.341711565685     1.016622914063     0.000231107579    14.003074004430
         C            1.226239434315    -0.163127085937    -0.000117892421    12.000000000000
         C            1.094230434315     1.212424914063    -0.000075892421    12.000000000000
         C           -1.242249565685    -0.361367085937     0.000167107579    12.000000000000
         C           -0.220104565685     1.715598914063     0.000064107579    12.000000000000
         H            0.106259434315    -1.911005085937    -0.000206892421     1.007825032230
         H            1.958104434315     1.865593914063    -0.000148892421     1.007825032230
         H           -0.352344565685     2.798797914063     0.000225107579     1.007825032230
         H            3.279150434315    -0.322895085937     0.000583107579     1.007825032230
         H            2.455803434315    -1.841137085937     0.001019107579     1.007825032230

  Basis Set: AUG-CC-PVTZ
    Blend: AUG-CC-PVTZ
  Basis Set: (AUG-CC-PVTZ AUX)
    Blend: AUG-CC-PVTZ-JKFIT
	 Reference Energy          =    -392.7502353143561322 [Eh]
	 Singles Energy            =      -0.0000000000000000 [Eh]
	 Same-Spin Energy          =      -0.4068480686983177 [Eh]
	 Opposite-Spin Energy      =      -1.2138777597228052 [Eh]
	 Correlation Energy        =      -1.6207258284211230 [Eh]
	 Total Energy              =    -394.3709611427772757 [Eh]

	 ================> DF-SCS-MP2 Energies <==================
	-----------------------------------------------------------
	 SCS Same-Spin Scale       =       0.3333333333333333 [-]
	 SCS Opposite-Spin Scale   =       1.2000000000000000 [-]
	 SCS Same-Spin Energy      =      -0.1356160228994392 [Eh]
	 SCS Opposite-Spin Energy  =      -1.4566533116673661 [Eh]
	 SCS Correlation Energy    =      -1.5922693345668053 [Eh]
	 SCS Total Energy          =    -394.3425046489229544 [Eh]
	-----------------------------------------------------------

  Dipole Moment: [D]
     X:     8.0630      Y:    -0.7365      Z:     0.0030     Total:     8.0965

*** Psi4 exiting successfully. Buy a developer a beer!
