                               Psi4 1.3.2 release

  ==> Input File <==

--------------------------------------------------------------------------
#psi4
#
memory 32 gb

molecule  {
0 1
  O       -2.2334690    -1.1675340     0.0001340
  N        0.0265130    -0.9084710    -0.0000270
  N        2.3544690    -0.8475160    -0.0005320
  N       -1.3973450     1.0028810     0.0002180
  C        1.1706060    -0.1768690    -0.0001310
  C        1.0385970     1.1986830    -0.0000890
  C       -1.2978830    -0.3751090     0.0001540
  C       -0.2757380     1.7018570     0.0000510
  H        0.0506260    -1.9247470    -0.0002200
  H        1.9024710     1.8518520    -0.0001620
  H       -0.4079780     2.7850560     0.0002120
  H        3.2408169    -0.3672775     0.0006503
  H        2.4001700    -1.8548790     0.0010060
units angstrom
no_reorient  #important for SAPT in psi4, default
symmetry c1  #important for SAPT in psi4, default
}

set PROPERTIES_ORIGIN ["COM"]
properties('MP2/aug-cc-pvtz', properties = ['dipole'])
--------------------------------------------------------------------------

    Molecular point group: c1
  Charge       = 0
  Multiplicity = 1
  Basis Set: AUG-CC-PVTZ
    Blend: AUG-CC-PVTZ
  Basis Set: (AUG-CC-PVTZ AUX)
    Blend: AUG-CC-PVTZ-JKFIT

    Orbital Energies [Eh]
    ---------------------

    Doubly Occupied:

       1A    -20.509283     2A    -15.632202     3A    -15.628884
       4A    -15.545656     5A    -11.384746     6A    -11.375707
       7A    -11.308773     8A    -11.232444     9A     -1.388681
      10A     -1.323153    11A     -1.242657    12A     -1.198935
      13A     -1.057703    14A     -0.910039    15A     -0.883789
      16A     -0.783851    17A     -0.752293    18A     -0.723045
      19A     -0.690104    20A     -0.638531    21A     -0.636542
      22A     -0.620164    23A     -0.569161    24A     -0.547781
      25A     -0.460130    26A     -0.447554    27A     -0.442012
      28A     -0.415350    29A     -0.325536

  @DF-RHF Final Energy:  -392.75106303276402

   => Energetics <=

    Nuclear Repulsion Energy =            355.1449633754723436
    One-Electron Energy =               -1238.4426450984346957
    Two-Electron Energy =                 490.5466186901983292
    Total Energy =                       -392.7510630327640229
  Basis Set: (AUG-CC-PVTZ AUX)
    Blend: AUG-CC-PVTZ-RI
    Molecular point group: c1

    Geometry (in Angstrom), charge = 0, multiplicity = 1:

       Center              X                  Y                   Z               Mass
    ------------   -----------------  -----------------  -----------------  -----------------
         O           -2.169702115533    -1.162636603374     0.000145831419    15.994914619570
         N            0.090279884467    -0.903573603374    -0.000015168581    14.003074004430
         N            2.418235884467    -0.842618603374    -0.000520168581    14.003074004430
         N           -1.333578115533     1.007778396626     0.000229831419    14.003074004430
         C            1.234372884467    -0.171971603374    -0.000119168581    12.000000000000
         C            1.102363884467     1.203580396626    -0.000077168581    12.000000000000
         C           -1.234116115533    -0.370211603374     0.000165831419    12.000000000000
         C           -0.211971115533     1.706754396626     0.000062831419    12.000000000000
         H            0.114392884467    -1.919849603374    -0.000208168581     1.007825032230
         H            1.966237884467     1.856749396626    -0.000150168581     1.007825032230
         H           -0.344211115533     2.789953396626     0.000223831419     1.007825032230
         H            3.304583784467    -0.362380103374     0.000662131419     1.007825032230
         H            2.463936884467    -1.849981603374     0.001017831419     1.007825032230

  Basis Set: AUG-CC-PVTZ
    Blend: AUG-CC-PVTZ
  Basis Set: (AUG-CC-PVTZ AUX)
    Blend: AUG-CC-PVTZ-JKFIT
	 Reference Energy          =    -392.7510630327640229 [Eh]
	 Singles Energy            =      -0.0000000000000000 [Eh]
	 Same-Spin Energy          =      -0.4068490047486824 [Eh]
	 Opposite-Spin Energy      =      -1.2141187727140068 [Eh]
	 Correlation Energy        =      -1.6209677774626892 [Eh]
	 Total Energy              =    -394.3720308102267040 [Eh]

	 ================> DF-SCS-MP2 Energies <==================
	-----------------------------------------------------------
	 SCS Same-Spin Scale       =       0.3333333333333333 [-]
	 SCS Opposite-Spin Scale   =       1.2000000000000000 [-]
	 SCS Same-Spin Energy      =      -0.1356163349162274 [Eh]
	 SCS Opposite-Spin Energy  =      -1.4569425272568082 [Eh]
	 SCS Correlation Energy    =      -1.5925588621730355 [Eh]
	 SCS Total Energy          =    -394.3436218949370868 [Eh]
	-----------------------------------------------------------

  Dipole Moment: [D]
     X:     8.1545      Y:    -0.8835      Z:     0.0031     Total:     8.2022

*** Psi4 exiting successfully. Buy a developer a beer!
