                               Psi4 1.3.2 release

  ==> Input File <==

--------------------------------------------------------------------------
#psi4
#
memory 32 gb

molecule  {
0 1
  O       -2.2334690    -1.1675340     0.0001340
  N        0.0265130    -0.9084710    -0.0000270
  N        2.3544690    -0.8475160    -0.0005320
  N       -1.4433709     1.0828230     0.0002380
  C        1.1706060    -0.1768690    -0.0001310
  C        1.0385970     1.1986830    -0.0000890
  C       -1.2978830    -0.3751090     0.0001540
  C       -0.2757380     1.7018570     0.0000510
  H        0.0506260    -1.9247470    -0.0002200
  H        1.9024710     1.8518520    -0.0001620
  H       -0.4079780     2.7850560     0.0002120
  H        3.2235170    -0.3366370     0.0005700
  H        2.4001700    -1.8548790     0.0010060
units angstrom
no_reorient  #important for SAPT in psi4, default
symmetry c1  #important for SAPT in psi4, default
}

set PROPERTIES_ORIGIN ["COM"]
properties('MP2/aug-cc-pvtz', properties = ['dipole'])
--------------------------------------------------------------------------

    Molecular point group: c1
  Charge       = 0
  Multiplicity = 1
  Basis Set: AUG-CC-PVTZ
    Blend: AUG-CC-PVTZ
  Basis Set: (AUG-CC-PVTZ AUX)
    Blend: AUG-CC-PVTZ-JKFIT

    Orbital Energies [Eh]
    ---------------------

    Doubly Occupied:

       1A    -20.518836     2A    -15.635721     3A    -15.629015
       4A    -15.557871     5A    -11.384295     6A    -11.383869
       7A    -11.302660     8A    -11.231337     9A     -1.389798
      10A     -1.325394    11A     -1.237782    12A     -1.196028
      13A     -1.053176    14A     -0.901391    15A     -0.881061
      16A     -0.785712    17A     -0.746319    18A     -0.723592
      19A     -0.683858    20A     -0.637396    21A     -0.635794
      22A     -0.622590    23A     -0.560897    24A     -0.545467
      25A     -0.462582    26A     -0.461485    27A     -0.444036
      28A     -0.415006    29A     -0.324592

  @DF-RHF Final Energy:  -392.74215232958886

   => Energetics <=

    Nuclear Repulsion Energy =            353.0676151197528725
    One-Electron Energy =               -1234.2644109652803763
    Two-Electron Energy =                 488.4546435159386419
    Total Energy =                       -392.7421523295888619
  Basis Set: (AUG-CC-PVTZ AUX)
    Blend: AUG-CC-PVTZ-RI
    Molecular point group: c1

    Geometry (in Angstrom), charge = 0, multiplicity = 1:

       Center              X                  Y                   Z               Mass
    ------------   -----------------  -----------------  -----------------  -----------------
         O           -2.163741021222    -1.172995755171     0.000144038126    15.994914619570
         N            0.096240978778    -0.913932755171    -0.000016961874    14.003074004430
         N            2.424196978778    -0.852977755171    -0.000521961874    14.003074004430
         N           -1.373642921222     1.077361244829     0.000248038126    14.003074004430
         C            1.240333978778    -0.182330755171    -0.000120961874    12.000000000000
         C            1.108324978778     1.193221244829    -0.000078961874    12.000000000000
         C           -1.228155021222    -0.380570755171     0.000164038126    12.000000000000
         C           -0.206010021222     1.696395244829     0.000061038126    12.000000000000
         H            0.120353978778    -1.930208755171    -0.000209961874     1.007825032230
         H            1.972198978778     1.846390244829    -0.000151961874     1.007825032230
         H           -0.338250021222     2.779594244829     0.000222038126     1.007825032230
         H            3.293244978778    -0.342098755171     0.000580038126     1.007825032230
         H            2.469897978778    -1.860340755171     0.001016038126     1.007825032230

  Basis Set: AUG-CC-PVTZ
    Blend: AUG-CC-PVTZ
  Basis Set: (AUG-CC-PVTZ AUX)
    Blend: AUG-CC-PVTZ-JKFIT
	 Reference Energy          =    -392.7421523295888619 [Eh]
	 Singles Energy            =      -0.0000000000000000 [Eh]
	 Same-Spin Energy          =      -0.4068388946662354 [Eh]
	 Opposite-Spin Energy      =      -1.2163558386883402 [Eh]
	 Correlation Energy        =      -1.6231947333545755 [Eh]
	 Total Energy              =    -394.3653470629434423 [Eh]

	 ================> DF-SCS-MP2 Energies <==================
	-----------------------------------------------------------
	 SCS Same-Spin Scale       =       0.3333333333333333 [-]
	 SCS Opposite-Spin Scale   =       1.2000000000000000 [-]
	 SCS Same-Spin Energy      =      -0.1356129648887451 [Eh]
	 SCS Opposite-Spin Energy  =      -1.4596270064260082 [Eh]
	 SCS Correlation Energy    =      -1.5952399713147534 [Eh]
	 SCS Total Energy          =    -394.3373923009036162 [Eh]
	-----------------------------------------------------------

  Dipole Moment: [D]
     X:     7.9867      Y:    -1.1836      Z:     0.0030     Total:     8.0739

*** Psi4 exiting successfully. Buy a developer a beer!
