                               Psi4 1.3.2 release

  ==> Input File <==

--------------------------------------------------------------------------
#psi4
#
memory 32 gb

molecule  {
0 1
  O       -2.2334690    -1.1675340     0.0001340
  N        0.0265130    -0.9084710    -0.0000270
  N        2.3544690    -0.8475160    -0.0005320
  N       -1.3973450     1.0028810     0.0002180
  C        1.1706060    -0.1768690    -0.0001310
  C        1.0839929     1.3388249    -0.0000714
  C       -1.2978830    -0.3751090     0.0001540
  C       -0.2757380     1.7018570     0.0000510
  H        0.0506260    -1.9247470    -0.0002200
  H        1.9024710     1.8518520    -0.0001620
  H       -0.4079780     2.7850560     0.0002120
  H        3.2235170    -0.3366370     0.0005700
  H        2.4001700    -1.8548790     0.0010060
units angstrom
no_reorient  #important for SAPT in psi4, default
symmetry c1  #important for SAPT in psi4, default
}

set PROPERTIES_ORIGIN ["COM"]
properties('MP2/aug-cc-pvtz', properties = ['dipole'])
--------------------------------------------------------------------------

    Molecular point group: c1
  Charge       = 0
  Multiplicity = 1
  Basis Set: AUG-CC-PVTZ
    Blend: AUG-CC-PVTZ
  Basis Set: (AUG-CC-PVTZ AUX)
    Blend: AUG-CC-PVTZ-JKFIT

    Orbital Energies [Eh]
    ---------------------

    Doubly Occupied:

       1A    -20.509889     2A    -15.641605     3A    -15.639581
       4A    -15.539167     5A    -11.404289     6A    -11.375399
       7A    -11.303178     8A    -11.236784     9A     -1.389397
      10A     -1.325573    11A     -1.243927    12A     -1.199070
      13A     -1.044915    14A     -0.907112    15A     -0.885281
      16A     -0.788034    17A     -0.765869    18A     -0.729826
      19A     -0.686292    20A     -0.659616    21A     -0.636844
      22A     -0.614460    23A     -0.552329    24A     -0.548954
      25A     -0.458730    26A     -0.447592    27A     -0.444864
      28A     -0.410752    29A     -0.318699

  @DF-RHF Final Energy:  -392.72240932738532

   => Energetics <=

    Nuclear Repulsion Energy =            352.6904470543354364
    One-Electron Energy =               -1233.4096585741003764
    Two-Electron Energy =                 487.9968021923796186
    Total Energy =                       -392.7224093273853214
  Basis Set: (AUG-CC-PVTZ AUX)
    Blend: AUG-CC-PVTZ-RI
    Molecular point group: c1

    Geometry (in Angstrom), charge = 0, multiplicity = 1:

       Center              X                  Y                   Z               Mass
    ------------   -----------------  -----------------  -----------------  -----------------
         O           -2.174450855071    -1.178059268696     0.000144658258    15.994914619570
         N            0.085531144929    -0.918996268696    -0.000016341742    14.003074004430
         N            2.413487144929    -0.858041268696    -0.000521341742    14.003074004430
         N           -1.338326855071     0.992355731304     0.000228658258    14.003074004430
         C            1.229624144929    -0.187394268696    -0.000120341742    12.000000000000
         C            1.143011044929     1.328299631304    -0.000060741742    12.000000000000
         C           -1.238864855071    -0.385634268696     0.000164658258    12.000000000000
         C           -0.216719855071     1.691331731304     0.000061658258    12.000000000000
         H            0.109644144929    -1.935272268696    -0.000209341742     1.007825032230
         H            1.961489144929     1.841326731304    -0.000151341742     1.007825032230
         H           -0.348959855071     2.774530731304     0.000222658258     1.007825032230
         H            3.282535144929    -0.347162268696     0.000580658258     1.007825032230
         H            2.459188144929    -1.865404268696     0.001016658258     1.007825032230

  Basis Set: AUG-CC-PVTZ
    Blend: AUG-CC-PVTZ
  Basis Set: (AUG-CC-PVTZ AUX)
    Blend: AUG-CC-PVTZ-JKFIT
	 Reference Energy          =    -392.7224093273853214 [Eh]
	 Singles Energy            =      -0.0000000000000000 [Eh]
	 Same-Spin Energy          =      -0.4065148410206824 [Eh]
	 Opposite-Spin Energy      =      -1.2144968912640226 [Eh]
	 Correlation Energy        =      -1.6210117322847051 [Eh]
	 Total Energy              =    -394.3434210596700495 [Eh]

	 ================> DF-SCS-MP2 Energies <==================
	-----------------------------------------------------------
	 SCS Same-Spin Scale       =       0.3333333333333333 [-]
	 SCS Opposite-Spin Scale   =       1.2000000000000000 [-]
	 SCS Same-Spin Energy      =      -0.1355049470068941 [Eh]
	 SCS Opposite-Spin Energy  =      -1.4573962695168270 [Eh]
	 SCS Correlation Energy    =      -1.5929012165237211 [Eh]
	 SCS Total Energy          =    -394.3153105439090496 [Eh]
	-----------------------------------------------------------

  Dipole Moment: [D]
     X:     8.4836      Y:    -1.3281      Z:     0.0029     Total:     8.5870

*** Psi4 exiting successfully. Buy a developer a beer!
