                               Psi4 1.3.2 release

  ==> Input File <==

--------------------------------------------------------------------------
#psi4
#
memory 32 gb

molecule  {
0 1
  O       -2.2334690    -1.1675340     0.0001340
  N        0.0265130    -0.9084710    -0.0000270
  N        2.3544690    -0.8475160    -0.0005320
  N       -1.3973450     1.0028810     0.0002180
  C        1.1706060    -0.1768690    -0.0001310
  C        1.0385970     1.1986830    -0.0000890
  C       -1.2978830    -0.3751090     0.0001540
  C       -0.2757380     1.7018570     0.0000510
  H        0.0506260    -1.9247470    -0.0002200
  H        1.9024710     1.8518520    -0.0001620
  H       -0.4079780     2.7850560     0.0002120
  H        3.2144686    -0.3215478     0.0005293
  H        2.4001700    -1.8548790     0.0010060
units angstrom
no_reorient  #important for SAPT in psi4, default
symmetry c1  #important for SAPT in psi4, default
}

set PROPERTIES_ORIGIN ["COM"]
properties('MP2/aug-cc-pvtz', properties = ['dipole'])
--------------------------------------------------------------------------

    Molecular point group: c1
  Charge       = 0
  Multiplicity = 1
  Basis Set: AUG-CC-PVTZ
    Blend: AUG-CC-PVTZ
  Basis Set: (AUG-CC-PVTZ AUX)
    Blend: AUG-CC-PVTZ-JKFIT

    Orbital Energies [Eh]
    ---------------------

    Doubly Occupied:

       1A    -20.509267     2A    -15.631980     3A    -15.629047
       4A    -15.545680     5A    -11.383922     6A    -11.375632
       7A    -11.308926     8A    -11.232627     9A     -1.388662
      10A     -1.323454    11A     -1.242898    12A     -1.199014
      13A     -1.057508    14A     -0.909304    15A     -0.883351
      16A     -0.784797    17A     -0.753023    18A     -0.721419
      19A     -0.691828    20A     -0.638504    21A     -0.636784
      22A     -0.620213    23A     -0.569399    24A     -0.547859
      25A     -0.460230    26A     -0.447560    27A     -0.441989
      28A     -0.415335    29A     -0.325671

  @DF-RHF Final Energy:  -392.75129092692771

   => Energetics <=

    Nuclear Repulsion Energy =            355.2170672481998963
    One-Electron Energy =               -1238.5849509939359905
    Two-Electron Energy =                 490.6165928188083853
    Total Energy =                       -392.7512909269277088
  Basis Set: (AUG-CC-PVTZ AUX)
    Blend: AUG-CC-PVTZ-RI
    Molecular point group: c1

    Geometry (in Angstrom), charge = 0, multiplicity = 1:

       Center              X                  Y                   Z               Mass
    ------------   -----------------  -----------------  -----------------  -----------------
         O           -2.169462979219    -1.163051644644     0.000146929611    15.994914619570
         N            0.090519020781    -0.903988644644    -0.000014070389    14.003074004430
         N            2.418475020781    -0.843033644644    -0.000519070389    14.003074004430
         N           -1.333338979219     1.007363355356     0.000230929611    14.003074004430
         C            1.234612020781    -0.172386644644    -0.000118070389    12.000000000000
         C            1.102603020781     1.203165355356    -0.000076070389    12.000000000000
         C           -1.233876979219    -0.370626644644     0.000166929611    12.000000000000
         C           -0.211731979219     1.706339355356     0.000063929611    12.000000000000
         H            0.114632020781    -1.920264644644    -0.000207070389     1.007825032230
         H            1.966477020781     1.856334355356    -0.000149070389     1.007825032230
         H           -0.343971979219     2.789538355356     0.000224929611     1.007825032230
         H            3.278474620781    -0.317065444644     0.000542229611     1.007825032230
         H            2.464176020781    -1.850396644644     0.001018929611     1.007825032230

  Basis Set: AUG-CC-PVTZ
    Blend: AUG-CC-PVTZ
  Basis Set: (AUG-CC-PVTZ AUX)
    Blend: AUG-CC-PVTZ-JKFIT
	 Reference Energy          =    -392.7512909269277088 [Eh]
	 Singles Energy            =      -0.0000000000000000 [Eh]
	 Same-Spin Energy          =      -0.4068533730144231 [Eh]
	 Opposite-Spin Energy      =      -1.2140858423872622 [Eh]
	 Correlation Energy        =      -1.6209392154016853 [Eh]
	 Total Energy              =    -394.3722301423293857 [Eh]

	 ================> DF-SCS-MP2 Energies <==================
	-----------------------------------------------------------
	 SCS Same-Spin Scale       =       0.3333333333333333 [-]
	 SCS Opposite-Spin Scale   =       1.2000000000000000 [-]
	 SCS Same-Spin Energy      =      -0.1356177910048077 [Eh]
	 SCS Opposite-Spin Energy  =      -1.4569030108647147 [Eh]
	 SCS Correlation Energy    =      -1.5925208018695225 [Eh]
	 SCS Total Energy          =    -394.3438117287972204 [Eh]
	-----------------------------------------------------------

  Dipole Moment: [D]
     X:     8.1307      Y:    -0.8617      Z:     0.0030     Total:     8.1763

*** Psi4 exiting successfully. Buy a developer a beer!
