                               Psi4 1.3.2 release

  ==> Input File <==

--------------------------------------------------------------------------
#psi4
#
memory 32 gb

molecule  {
0 1
  O       -2.2334690    -1.1675340     0.0001340
  N        0.0265130    -0.9084710    -0.0000270
  N        2.3544690    -0.8475160    -0.0005320
  N       -1.3973450     1.0028810     0.0002180
  C        1.1706060    -0.1768690    -0.0001310
  C        1.0385970     1.1986830    -0.0000890
  C       -1.2978830    -0.3751090     0.0001540
  C       -0.2757380     1.7018570     0.0000510
  H        0.0506260    -1.9247470    -0.0002200
  H        1.9024710     1.8518520    -0.0001620
  H       -0.4079780     2.7850560     0.0002120
  H        3.2235170    -0.3366370     0.0005700
  H        2.4001700    -1.8548790     0.0010060
units angstrom
no_reorient  #important for SAPT in psi4, default
symmetry c1  #important for SAPT in psi4, default
}

set PROPERTIES_ORIGIN ["COM"]
properties('MP2/aug-cc-pvtz', properties = ['dipole'])
--------------------------------------------------------------------------

    Molecular point group: c1
  Charge       = 0
  Multiplicity = 1
  Basis Set: AUG-CC-PVTZ
    Blend: AUG-CC-PVTZ
  Basis Set: (AUG-CC-PVTZ AUX)
    Blend: AUG-CC-PVTZ-JKFIT

    Orbital Energies [Eh]
    ---------------------

    Doubly Occupied:

       1A    -20.509271     2A    -15.632055     3A    -15.628996
       4A    -15.545670     5A    -11.384189     6A    -11.375656
       7A    -11.308872     8A    -11.232562     9A     -1.388667
      10A     -1.323347    11A     -1.242812    12A     -1.198984
      13A     -1.057567    14A     -0.909534    15A     -0.883500
      16A     -0.784392    17A     -0.752838    18A     -0.721996
      19A     -0.691285    20A     -0.638511    21A     -0.636703
      22A     -0.620195    23A     -0.569319    24A     -0.547832
      25A     -0.460194    26A     -0.447557    27A     -0.441997
      28A     -0.415338    29A     -0.325623

  @DF-RHF Final Energy:  -392.75129445144893

   => Energetics <=

    Nuclear Repulsion Energy =            355.1923991382925578
    One-Electron Energy =               -1238.5364624897063095
    Two-Electron Energy =                 490.5927688999648240
    Total Energy =                       -392.7512944514489277
  Basis Set: (AUG-CC-PVTZ AUX)
    Blend: AUG-CC-PVTZ-RI
    Molecular point group: c1

    Geometry (in Angstrom), charge = 0, multiplicity = 1:

       Center              X                  Y                   Z               Mass
    ------------   -----------------  -----------------  -----------------  -----------------
         O           -2.169545102203    -1.162914695556     0.000146560219    15.994914619570
         N            0.090436897797    -0.903851695556    -0.000014439781    14.003074004430
         N            2.418392897797    -0.842896695556    -0.000519439781    14.003074004430
         N           -1.333421102203     1.007500304444     0.000230560219    14.003074004430
         C            1.234529897797    -0.172249695556    -0.000118439781    12.000000000000
         C            1.102520897797     1.203302304444    -0.000076439781    12.000000000000
         C           -1.233959102203    -0.370489695556     0.000166560219    12.000000000000
         C           -0.211814102203     1.706476304444     0.000063560219    12.000000000000
         H            0.114549897797    -1.920127695556    -0.000207439781     1.007825032230
         H            1.966394897797     1.856471304444    -0.000149439781     1.007825032230
         H           -0.344054102203     2.789675304444     0.000224560219     1.007825032230
         H            3.287440897797    -0.332017695556     0.000582560219     1.007825032230
         H            2.464093897797    -1.850259695556     0.001018560219     1.007825032230

  Basis Set: AUG-CC-PVTZ
    Blend: AUG-CC-PVTZ
  Basis Set: (AUG-CC-PVTZ AUX)
    Blend: AUG-CC-PVTZ-JKFIT
	 Reference Energy          =    -392.7512944514489277 [Eh]
	 Singles Energy            =      -0.0000000000000000 [Eh]
	 Same-Spin Energy          =      -0.4068481470277758 [Eh]
	 Opposite-Spin Energy      =      -1.2140903294124950 [Eh]
	 Correlation Energy        =      -1.6209384764402708 [Eh]
	 Total Energy              =    -394.3722329278891721 [Eh]

	 ================> DF-SCS-MP2 Energies <==================
	-----------------------------------------------------------
	 SCS Same-Spin Scale       =       0.3333333333333333 [-]
	 SCS Opposite-Spin Scale   =       1.2000000000000000 [-]
	 SCS Same-Spin Energy      =      -0.1356160490092586 [Eh]
	 SCS Opposite-Spin Energy  =      -1.4569083952949939 [Eh]
	 SCS Correlation Energy    =      -1.5925244443042526 [Eh]
	 SCS Total Energy          =    -394.3438188957532020 [Eh]
	-----------------------------------------------------------

  Dipole Moment: [D]
     X:     8.1391      Y:    -0.8688      Z:     0.0030     Total:     8.1853

*** Psi4 exiting successfully. Buy a developer a beer!
