                               Psi4 1.3.2 release

  ==> Input File <==

--------------------------------------------------------------------------
#psi4
#
memory 32 gb

molecule  {
0 1
  O       -2.2334690    -1.1675340     0.0001340
  N        0.0265130    -0.9084710    -0.0000270
  N        2.3544690    -0.8475160    -0.0005320
  N       -1.3458547     0.9263443     0.0002149
  C        1.1706060    -0.1768690    -0.0001310
  C        1.0385970     1.1986830    -0.0000890
  C       -1.2978830    -0.3751090     0.0001540
  C       -0.2757380     1.7018570     0.0000510
  H        0.0506260    -1.9247470    -0.0002200
  H        1.9024710     1.8518520    -0.0001620
  H       -0.4079780     2.7850560     0.0002120
  H        3.2235170    -0.3366370     0.0005700
  H        2.4001700    -1.8548790     0.0010060
units angstrom
no_reorient  #important for SAPT in psi4, default
symmetry c1  #important for SAPT in psi4, default
}

set PROPERTIES_ORIGIN ["COM"]
properties('MP2/aug-cc-pvtz', properties = ['dipole'])
--------------------------------------------------------------------------

    Molecular point group: c1
  Charge       = 0
  Multiplicity = 1
  Basis Set: AUG-CC-PVTZ
    Blend: AUG-CC-PVTZ
  Basis Set: (AUG-CC-PVTZ AUX)
    Blend: AUG-CC-PVTZ-JKFIT

    Orbital Energies [Eh]
    ---------------------

    Doubly Occupied:

       1A    -20.498042     2A    -15.629131     3A    -15.627262
       4A    -15.532980     5A    -11.384698     6A    -11.364235
       7A    -11.316349     8A    -11.234609     9A     -1.388429
      10A     -1.320699    11A     -1.249984    12A     -1.200143
      13A     -1.063801    14A     -0.921451    15A     -0.882406
      16A     -0.783059    17A     -0.759814    18A     -0.719713
      19A     -0.698587    20A     -0.640270    21A     -0.637976
      22A     -0.617497    23A     -0.576196    24A     -0.551002
      25A     -0.457409    26A     -0.439401    27A     -0.435055
      28A     -0.409696    29A     -0.327164

  @DF-RHF Final Energy:  -392.74755518773731

   => Energetics <=

    Nuclear Repulsion Energy =            357.4390269008132464
    One-Electron Energy =               -1243.0390464663544208
    Two-Electron Energy =                 492.8524643778038694
    Total Energy =                       -392.7475551877373050
  Basis Set: (AUG-CC-PVTZ AUX)
    Blend: AUG-CC-PVTZ-RI
    Molecular point group: c1

    Geometry (in Angstrom), charge = 0, multiplicity = 1:

       Center              X                  Y                   Z               Mass
    ------------   -----------------  -----------------  -----------------  -----------------
         O           -2.176038269548    -1.153263060176     0.000146951143    15.994914619570
         N            0.083943730452    -0.894200060176    -0.000014048857    14.003074004430
         N            2.411899730452    -0.833245060176    -0.000519048857    14.003074004430
         N           -1.288423969548     0.940615239824     0.000227851143    14.003074004430
         C            1.228036730452    -0.162598060176    -0.000118048857    12.000000000000
         C            1.096027730452     1.212953939824    -0.000076048857    12.000000000000
         C           -1.240452269548    -0.360838060176     0.000166951143    12.000000000000
         C           -0.218307269548     1.716127939824     0.000063951143    12.000000000000
         H            0.108056730452    -1.910476060176    -0.000207048857     1.007825032230
         H            1.959901730452     1.866122939824    -0.000149048857     1.007825032230
         H           -0.350547269548     2.799326939824     0.000224951143     1.007825032230
         H            3.280947730452    -0.322366060176     0.000582951143     1.007825032230
         H            2.457600730452    -1.840608060176     0.001018951143     1.007825032230

  Basis Set: AUG-CC-PVTZ
    Blend: AUG-CC-PVTZ
  Basis Set: (AUG-CC-PVTZ AUX)
    Blend: AUG-CC-PVTZ-JKFIT
	 Reference Energy          =    -392.7475551877373050 [Eh]
	 Singles Energy            =      -0.0000000000000000 [Eh]
	 Same-Spin Energy          =      -0.4073435383961036 [Eh]
	 Opposite-Spin Energy      =      -1.2128790591691114 [Eh]
	 Correlation Energy        =      -1.6202225975652151 [Eh]
	 Total Energy              =    -394.3677777853025077 [Eh]

	 ================> DF-SCS-MP2 Energies <==================
	-----------------------------------------------------------
	 SCS Same-Spin Scale       =       0.3333333333333333 [-]
	 SCS Opposite-Spin Scale   =       1.2000000000000000 [-]
	 SCS Same-Spin Energy      =      -0.1357811794653679 [Eh]
	 SCS Opposite-Spin Energy  =      -1.4554548710029336 [Eh]
	 SCS Correlation Energy    =      -1.5912360504683014 [Eh]
	 SCS Total Energy          =    -394.3387912382056015 [Eh]
	-----------------------------------------------------------

  Dipole Moment: [D]
     X:     8.2839      Y:    -0.5160      Z:     0.0030     Total:     8.3000

*** Psi4 exiting successfully. Buy a developer a beer!
