                               Psi4 1.3.2 release

  ==> Input File <==

--------------------------------------------------------------------------
#psi4
#
memory 32 gb

molecule  {
0 1
  O       -2.2334690    -1.1675340     0.0001340
  N        0.0265130    -0.9084710    -0.0000270
  N        2.3544690    -0.8475160    -0.0005320
  N       -1.3973450     1.0028810     0.0002180
  C        1.0743308    -0.1827267    -0.0001215
  C        1.0385970     1.1986830    -0.0000890
  C       -1.2978830    -0.3751090     0.0001540
  C       -0.2757380     1.7018570     0.0000510
  H        0.0506260    -1.9247470    -0.0002200
  H        1.9024710     1.8518520    -0.0001620
  H       -0.4079780     2.7850560     0.0002120
  H        3.2235170    -0.3366370     0.0005700
  H        2.4001700    -1.8548790     0.0010060
units angstrom
no_reorient  #important for SAPT in psi4, default
symmetry c1  #important for SAPT in psi4, default
}

set PROPERTIES_ORIGIN ["COM"]
properties('MP2/aug-cc-pvtz', properties = ['dipole'])
--------------------------------------------------------------------------

    Molecular point group: c1
  Charge       = 0
  Multiplicity = 1
  Basis Set: AUG-CC-PVTZ
    Blend: AUG-CC-PVTZ
  Basis Set: (AUG-CC-PVTZ AUX)
    Blend: AUG-CC-PVTZ-JKFIT

    Orbital Energies [Eh]
    ---------------------

    Doubly Occupied:

       1A    -20.515110     2A    -15.643505     3A    -15.615934
       4A    -15.548590     5A    -11.383252     6A    -11.381173
       7A    -11.309186     8A    -11.234070     9A     -1.403366
      10A     -1.332087    11A     -1.231637    12A     -1.202440
      13A     -1.059437    14A     -0.911710    15A     -0.896047
      16A     -0.787085    17A     -0.752277    18A     -0.707193
      19A     -0.694560    20A     -0.651703    21A     -0.635773
      22A     -0.620251    23A     -0.576478    24A     -0.538851
      25A     -0.464949    26A     -0.452537    27A     -0.445434
      28A     -0.417976    29A     -0.327213

  @DF-RHF Final Energy:  -392.73930176770415

   => Energetics <=

    Nuclear Repulsion Energy =            356.1883894098459677
    One-Electron Energy =               -1240.3757317198119381
    Two-Electron Energy =                 491.4480405422618219
    Total Energy =                       -392.7393017677041485
  Basis Set: (AUG-CC-PVTZ AUX)
    Blend: AUG-CC-PVTZ-RI
    Molecular point group: c1

    Geometry (in Angstrom), charge = 0, multiplicity = 1:

       Center              X                  Y                   Z               Mass
    ------------   -----------------  -----------------  -----------------  -----------------
         O           -2.159141027419    -1.162281677407     0.000145533592    15.994914619570
         N            0.100840972581    -0.903218677407    -0.000015466408    14.003074004430
         N            2.428796972581    -0.842263677407    -0.000520466408    14.003074004430
         N           -1.323017027419     1.008133322593     0.000229533592    14.003074004430
         C            1.148658772581    -0.177474377407    -0.000109966408    12.000000000000
         C            1.112924972581     1.203935322593    -0.000077466408    12.000000000000
         C           -1.223555027419    -0.369856677407     0.000165533592    12.000000000000
         C           -0.201410027419     1.707109322593     0.000062533592    12.000000000000
         H            0.124953972581    -1.919494677407    -0.000208466408     1.007825032230
         H            1.976798972581     1.857104322593    -0.000150466408     1.007825032230
         H           -0.333650027419     2.790308322593     0.000223533592     1.007825032230
         H            3.297844972581    -0.331384677407     0.000581533592     1.007825032230
         H            2.474497972581    -1.849626677407     0.001017533592     1.007825032230

  Basis Set: AUG-CC-PVTZ
    Blend: AUG-CC-PVTZ
  Basis Set: (AUG-CC-PVTZ AUX)
    Blend: AUG-CC-PVTZ-JKFIT
	 Reference Energy          =    -392.7393017677041485 [Eh]
	 Singles Energy            =      -0.0000000000000000 [Eh]
	 Same-Spin Energy          =      -0.4070077522043960 [Eh]
	 Opposite-Spin Energy      =      -1.2142281778484820 [Eh]
	 Correlation Energy        =      -1.6212359300528780 [Eh]
	 Total Energy              =    -394.3605376977570245 [Eh]

	 ================> DF-SCS-MP2 Energies <==================
	-----------------------------------------------------------
	 SCS Same-Spin Scale       =       0.3333333333333333 [-]
	 SCS Opposite-Spin Scale   =       1.2000000000000000 [-]
	 SCS Same-Spin Energy      =      -0.1356692507347987 [Eh]
	 SCS Opposite-Spin Energy  =      -1.4570738134181784 [Eh]
	 SCS Correlation Energy    =      -1.5927430641529772 [Eh]
	 SCS Total Energy          =    -394.3320448318571039 [Eh]
	-----------------------------------------------------------

  Dipole Moment: [D]
     X:     7.5119      Y:    -0.7820      Z:     0.0032     Total:     7.5525

*** Psi4 exiting successfully. Buy a developer a beer!
