                               Psi4 1.3.2 release

  ==> Input File <==

--------------------------------------------------------------------------
#psi4
#
memory 32 gb

molecule  {
0 1
  O       -2.2334690    -1.1675340     0.0001340
  N        0.0394555    -0.9283267    -0.0000288
  N        2.3544690    -0.8475160    -0.0005320
  N       -1.3973450     1.0028810     0.0002180
  C        1.1706060    -0.1768690    -0.0001310
  C        1.0385970     1.1986830    -0.0000890
  C       -1.2978830    -0.3751090     0.0001540
  C       -0.2757380     1.7018570     0.0000510
  H        0.0506260    -1.9247470    -0.0002200
  H        1.9024710     1.8518520    -0.0001620
  H       -0.4079780     2.7850560     0.0002120
  H        3.2235170    -0.3366370     0.0005700
  H        2.4001700    -1.8548790     0.0010060
units angstrom
no_reorient  #important for SAPT in psi4, default
symmetry c1  #important for SAPT in psi4, default
}

set PROPERTIES_ORIGIN ["COM"]
properties('MP2/aug-cc-pvtz', properties = ['dipole'])
--------------------------------------------------------------------------

    Molecular point group: c1
  Charge       = 0
  Multiplicity = 1
  Basis Set: AUG-CC-PVTZ
    Blend: AUG-CC-PVTZ
  Basis Set: (AUG-CC-PVTZ AUX)
    Blend: AUG-CC-PVTZ-JKFIT

    Orbital Energies [Eh]
    ---------------------

    Doubly Occupied:

       1A    -20.511073     2A    -15.629666     3A    -15.627618
       4A    -15.546520     5A    -11.383993     6A    -11.377559
       7A    -11.309728     8A    -11.232616     9A     -1.387554
      10A     -1.323528    11A     -1.241323    12A     -1.199509
      13A     -1.057160    14A     -0.910996    15A     -0.879728
      16A     -0.785320    17A     -0.753680    18A     -0.721222
      19A     -0.691273    20A     -0.637673    21A     -0.636402
      22A     -0.620477    23A     -0.571004    24A     -0.547465
      25A     -0.460580    26A     -0.448454    27A     -0.441811
      28A     -0.415771    29A     -0.325816

  @DF-RHF Final Energy:  -392.75084053300048

   => Energetics <=

    Nuclear Repulsion Energy =            354.8352913571337126
    One-Electron Energy =               -1237.8212254785994446
    Two-Electron Energy =                 490.2350935884653040
    Total Energy =                       -392.7508405330004848
  Basis Set: (AUG-CC-PVTZ AUX)
    Blend: AUG-CC-PVTZ-RI
    Molecular point group: c1

    Geometry (in Angstrom), charge = 0, multiplicity = 1:

       Center              X                  Y                   Z               Mass
    ------------   -----------------  -----------------  -----------------  -----------------
         O           -2.171177211909    -1.160410799038     0.000146787207    15.994914619570
         N            0.101747288091    -0.921203499038    -0.000016012793    14.003074004430
         N            2.416760788091    -0.840392799038    -0.000519212793    14.003074004430
         N           -1.335053211909     1.010004200962     0.000230787207    14.003074004430
         C            1.232897788091    -0.169745799038    -0.000118212793    12.000000000000
         C            1.100888788091     1.205806200962    -0.000076212793    12.000000000000
         C           -1.235591211909    -0.367985799038     0.000166787207    12.000000000000
         C           -0.213446211909     1.708980200962     0.000063787207    12.000000000000
         H            0.112917788091    -1.917623799038    -0.000207212793     1.007825032230
         H            1.964762788091     1.858975200962    -0.000149212793     1.007825032230
         H           -0.345686211909     2.792179200962     0.000224787207     1.007825032230
         H            3.285808788091    -0.329513799038     0.000582787207     1.007825032230
         H            2.462461788091    -1.847755799038     0.001018787207     1.007825032230

  Basis Set: AUG-CC-PVTZ
    Blend: AUG-CC-PVTZ
  Basis Set: (AUG-CC-PVTZ AUX)
    Blend: AUG-CC-PVTZ-JKFIT
	 Reference Energy          =    -392.7508405330004848 [Eh]
	 Singles Energy            =      -0.0000000000000000 [Eh]
	 Same-Spin Energy          =      -0.4066344801205152 [Eh]
	 Opposite-Spin Energy      =      -1.2139408181459770 [Eh]
	 Correlation Energy        =      -1.6205752982664920 [Eh]
	 Total Energy              =    -394.3714158312669724 [Eh]

	 ================> DF-SCS-MP2 Energies <==================
	-----------------------------------------------------------
	 SCS Same-Spin Scale       =       0.3333333333333333 [-]
	 SCS Opposite-Spin Scale   =       1.2000000000000000 [-]
	 SCS Same-Spin Energy      =      -0.1355448267068384 [Eh]
	 SCS Opposite-Spin Energy  =      -1.4567289817751723 [Eh]
	 SCS Correlation Energy    =      -1.5922738084820107 [Eh]
	 SCS Total Energy          =    -394.3431143414824760 [Eh]
	-----------------------------------------------------------

  Dipole Moment: [D]
     X:     8.0592      Y:    -0.8480      Z:     0.0030     Total:     8.1036

*** Psi4 exiting successfully. Buy a developer a beer!
