                               Psi4 1.3.2 release

  ==> Input File <==

--------------------------------------------------------------------------
#psi4
#
memory 32 gb

molecule  {
0 1
  O       -2.2334690    -1.1675340     0.0001340
  N        0.0265130    -0.9084710    -0.0000270
  N        2.3544690    -0.8475160    -0.0005320
  N       -1.3973450     1.0028810     0.0002180
  C        1.2185317    -0.1714240    -0.0001356
  C        1.0385970     1.1986830    -0.0000890
  C       -1.2978830    -0.3751090     0.0001540
  C       -0.2757380     1.7018570     0.0000510
  H        0.0506260    -1.9247470    -0.0002200
  H        1.9024710     1.8518520    -0.0001620
  H       -0.4079780     2.7850560     0.0002120
  H        3.2235170    -0.3366370     0.0005700
  H        2.4001700    -1.8548790     0.0010060
units angstrom
no_reorient  #important for SAPT in psi4, default
symmetry c1  #important for SAPT in psi4, default
}

set PROPERTIES_ORIGIN ["COM"]
properties('MP2/aug-cc-pvtz', properties = ['dipole'])
--------------------------------------------------------------------------

    Molecular point group: c1
  Charge       = 0
  Multiplicity = 1
  Basis Set: AUG-CC-PVTZ
    Blend: AUG-CC-PVTZ
  Basis Set: (AUG-CC-PVTZ AUX)
    Blend: AUG-CC-PVTZ-JKFIT

    Orbital Energies [Eh]
    ---------------------

    Doubly Occupied:

       1A    -20.506505     2A    -15.635488     3A    -15.626145
       4A    -15.544023     5A    -11.384771     6A    -11.372886
       7A    -11.308668     8A    -11.231971     9A     -1.383407
      10A     -1.327460    11A     -1.245348    12A     -1.193282
      13A     -1.056709    14A     -0.910063    15A     -0.879285
      16A     -0.789075    17A     -0.751296    18A     -0.727003
      19A     -0.687523    20A     -0.638212    21A     -0.634885
      22A     -0.616584    23A     -0.563728    24A     -0.553768
      25A     -0.458311    26A     -0.445086    27A     -0.437923
      28A     -0.413607    29A     -0.324815

  @DF-RHF Final Energy:  -392.74753409805612

   => Energetics <=

    Nuclear Repulsion Energy =            354.7639073859688210
    One-Electron Energy =               -1237.7272298182131181
    Two-Electron Energy =                 490.2157883341881188
    Total Energy =                       -392.7475340980561214
  Basis Set: (AUG-CC-PVTZ AUX)
    Blend: AUG-CC-PVTZ-RI
    Molecular point group: c1

    Geometry (in Angstrom), charge = 0, multiplicity = 1:

       Center              X                  Y                   Z               Mass
    ------------   -----------------  -----------------  -----------------  -----------------
         O           -2.174724240412    -1.163503114870     0.000147057323    15.994914619570
         N            0.085257759588    -0.904440114870    -0.000013942677    14.003074004430
         N            2.413213759588    -0.843485114870    -0.000518942677    14.003074004430
         N           -1.338600240412     1.006911885130     0.000231057323    14.003074004430
         C            1.277276459588    -0.167393114870    -0.000122542677    12.000000000000
         C            1.097341759588     1.202713885130    -0.000075942677    12.000000000000
         C           -1.239138240412    -0.371078114870     0.000167057323    12.000000000000
         C           -0.216993240412     1.705887885130     0.000064057323    12.000000000000
         H            0.109370759588    -1.920716114870    -0.000206942677     1.007825032230
         H            1.961215759588     1.855882885130    -0.000148942677     1.007825032230
         H           -0.349233240412     2.789086885130     0.000225057323     1.007825032230
         H            3.282261759588    -0.332606114870     0.000583057323     1.007825032230
         H            2.458914759588    -1.850848114870     0.001019057323     1.007825032230

  Basis Set: AUG-CC-PVTZ
    Blend: AUG-CC-PVTZ
  Basis Set: (AUG-CC-PVTZ AUX)
    Blend: AUG-CC-PVTZ-JKFIT
	 Reference Energy          =    -392.7475340980561214 [Eh]
	 Singles Energy            =      -0.0000000000000000 [Eh]
	 Same-Spin Energy          =      -0.4069282801169178 [Eh]
	 Opposite-Spin Energy      =      -1.2143770486166146 [Eh]
	 Correlation Energy        =      -1.6213053287335324 [Eh]
	 Total Energy              =    -394.3688394267896342 [Eh]

	 ================> DF-SCS-MP2 Energies <==================
	-----------------------------------------------------------
	 SCS Same-Spin Scale       =       0.3333333333333333 [-]
	 SCS Opposite-Spin Scale   =       1.2000000000000000 [-]
	 SCS Same-Spin Energy      =      -0.1356427600389726 [Eh]
	 SCS Opposite-Spin Energy  =      -1.4572524583399373 [Eh]
	 SCS Correlation Energy    =      -1.5928952183789100 [Eh]
	 SCS Total Energy          =    -394.3404293164350065 [Eh]
	-----------------------------------------------------------

  Dipole Moment: [D]
     X:     8.4475      Y:    -0.9191      Z:     0.0029     Total:     8.4974

*** Psi4 exiting successfully. Buy a developer a beer!
