                               Psi4 1.3.2 release

  ==> Input File <==

--------------------------------------------------------------------------
#psi4
#
memory 32 gb

molecule  {
0 1
  O       -2.2334690    -1.1675340     0.0001340
  N        0.0170028    -0.9315037    -0.0000267
  N        2.3544690    -0.8475160    -0.0005320
  N       -1.3973450     1.0028810     0.0002180
  C        1.1706060    -0.1768690    -0.0001310
  C        1.0385970     1.1986830    -0.0000890
  C       -1.2978830    -0.3751090     0.0001540
  C       -0.2757380     1.7018570     0.0000510
  H        0.0506260    -1.9247470    -0.0002200
  H        1.9024710     1.8518520    -0.0001620
  H       -0.4079780     2.7850560     0.0002120
  H        3.2235170    -0.3366370     0.0005700
  H        2.4001700    -1.8548790     0.0010060
units angstrom
no_reorient  #important for SAPT in psi4, default
symmetry c1  #important for SAPT in psi4, default
}

set PROPERTIES_ORIGIN ["COM"]
properties('MP2/aug-cc-pvtz', properties = ['dipole'])
--------------------------------------------------------------------------

    Molecular point group: c1
  Charge       = 0
  Multiplicity = 1
  Basis Set: AUG-CC-PVTZ
    Blend: AUG-CC-PVTZ
  Basis Set: (AUG-CC-PVTZ AUX)
    Blend: AUG-CC-PVTZ-JKFIT

    Orbital Energies [Eh]
    ---------------------

    Doubly Occupied:

       1A    -20.507527     2A    -15.629510     3A    -15.629408
       4A    -15.546711     5A    -11.386043     6A    -11.374714
       7A    -11.310060     8A    -11.233853     9A     -1.387132
      10A     -1.320083    11A     -1.241912    12A     -1.199287
      13A     -1.058058    14A     -0.911303    15A     -0.879840
      16A     -0.783915    17A     -0.753658    18A     -0.725888
      19A     -0.690715    20A     -0.637571    21A     -0.635434
      22A     -0.620309    23A     -0.569293    24A     -0.547529
      25A     -0.460970    26A     -0.446722    27A     -0.440047
      28A     -0.415794    29A     -0.326440

  @DF-RHF Final Energy:  -392.75086860261854

   => Energetics <=

    Nuclear Repulsion Energy =            354.8056578774877607
    One-Electron Energy =               -1237.7736023800280236
    Two-Electron Energy =                 490.2170758999217242
    Total Energy =                       -392.7508686026185387
  Basis Set: (AUG-CC-PVTZ AUX)
    Blend: AUG-CC-PVTZ-RI
    Molecular point group: c1

    Geometry (in Angstrom), charge = 0, multiplicity = 1:

       Center              X                  Y                   Z               Mass
    ------------   -----------------  -----------------  -----------------  -----------------
         O           -2.168345821560    -1.160010164498     0.000146522388    15.994914619570
         N            0.082125978440    -0.923979864498    -0.000014177612    14.003074004430
         N            2.419592178440    -0.839992164498    -0.000519477612    14.003074004430
         N           -1.332221821560     1.010404835502     0.000230522388    14.003074004430
         C            1.235729178440    -0.169345164498    -0.000118477612    12.000000000000
         C            1.103720178440     1.206206835502    -0.000076477612    12.000000000000
         C           -1.232759821560    -0.367585164498     0.000166522388    12.000000000000
         C           -0.210614821560     1.709380835502     0.000063522388    12.000000000000
         H            0.115749178440    -1.917223164498    -0.000207477612     1.007825032230
         H            1.967594178440     1.859375835502    -0.000149477612     1.007825032230
         H           -0.342854821560     2.792579835502     0.000224522388     1.007825032230
         H            3.288640178440    -0.329113164498     0.000582522388     1.007825032230
         H            2.465293178440    -1.847355164498     0.001018522388     1.007825032230

  Basis Set: AUG-CC-PVTZ
    Blend: AUG-CC-PVTZ
  Basis Set: (AUG-CC-PVTZ AUX)
    Blend: AUG-CC-PVTZ-JKFIT
	 Reference Energy          =    -392.7508686026185387 [Eh]
	 Singles Energy            =      -0.0000000000000000 [Eh]
	 Same-Spin Energy          =      -0.4064706668792956 [Eh]
	 Opposite-Spin Energy      =      -1.2137714887529685 [Eh]
	 Correlation Energy        =      -1.6202421556322641 [Eh]
	 Total Energy              =    -394.3711107582507793 [Eh]

	 ================> DF-SCS-MP2 Energies <==================
	-----------------------------------------------------------
	 SCS Same-Spin Scale       =       0.3333333333333333 [-]
	 SCS Opposite-Spin Scale   =       1.2000000000000000 [-]
	 SCS Same-Spin Energy      =      -0.1354902222930985 [Eh]
	 SCS Opposite-Spin Energy  =      -1.4565257865035621 [Eh]
	 SCS Correlation Energy    =      -1.5920160087966606 [Eh]
	 SCS Total Energy          =    -394.3428846114151725 [Eh]
	-----------------------------------------------------------

  Dipole Moment: [D]
     X:     8.1696      Y:    -0.8011      Z:     0.0030     Total:     8.2088

*** Psi4 exiting successfully. Buy a developer a beer!
