                               Psi4 1.3.2 release

  ==> Input File <==

--------------------------------------------------------------------------
#psi4
#
memory 32 gb

molecule  {
0 1
  O       -2.2334690    -1.1675340     0.0001340
  N        0.0265130    -0.9084710    -0.0000270
  N        2.3544690    -0.8475160    -0.0005320
  N       -1.3973450     1.0028810     0.0002180
  C        1.1706060    -0.1768690    -0.0001310
  C        1.0194912     1.3977683    -0.0000829
  C       -1.2978830    -0.3751090     0.0001540
  C       -0.2757380     1.7018570     0.0000510
  H        0.0506260    -1.9247470    -0.0002200
  H        1.9024710     1.8518520    -0.0001620
  H       -0.4079780     2.7850560     0.0002120
  H        3.2235170    -0.3366370     0.0005700
  H        2.4001700    -1.8548790     0.0010060
units angstrom
no_reorient  #important for SAPT in psi4, default
symmetry c1  #important for SAPT in psi4, default
}

set PROPERTIES_ORIGIN ["COM"]
properties('MP2/aug-cc-pvtz', properties = ['dipole'])
--------------------------------------------------------------------------

    Molecular point group: c1
  Charge       = 0
  Multiplicity = 1
  Basis Set: AUG-CC-PVTZ
    Blend: AUG-CC-PVTZ
  Basis Set: (AUG-CC-PVTZ AUX)
    Blend: AUG-CC-PVTZ-JKFIT

    Orbital Energies [Eh]
    ---------------------

    Doubly Occupied:

       1A    -20.505179     2A    -15.649273     3A    -15.644731
       4A    -15.528338     5A    -11.411797     6A    -11.370779
       7A    -11.288369     8A    -11.240870     9A     -1.387156
      10A     -1.327482    11A     -1.245863    12A     -1.197674
      13A     -1.049816    14A     -0.914279    15A     -0.879489
      16A     -0.791792    17A     -0.764908    18A     -0.734541
      19A     -0.692382    20A     -0.661551    21A     -0.637022
      22A     -0.608423    23A     -0.549513    24A     -0.533333
      25A     -0.465191    26A     -0.445833    27A     -0.443017
      28A     -0.405612    29A     -0.317489

  @DF-RHF Final Energy:  -392.71021565865925

   => Energetics <=

    Nuclear Repulsion Energy =            352.7593950277454269
    One-Electron Energy =               -1233.5558264741678158
    Two-Electron Energy =                 488.0862157877631375
    Total Energy =                       -392.7102156586592514
  Basis Set: (AUG-CC-PVTZ AUX)
    Blend: AUG-CC-PVTZ-RI
    Molecular point group: c1

    Geometry (in Angstrom), charge = 0, multiplicity = 1:

       Center              X                  Y                   Z               Mass
    ------------   -----------------  -----------------  -----------------  -----------------
         O           -2.167480415015    -1.184429045561     0.000145901016    15.994914619570
         N            0.092501584985    -0.925366045561    -0.000015098984    14.003074004430
         N            2.420457584985    -0.864411045561    -0.000520098984    14.003074004430
         N           -1.331356415015     0.985985954439     0.000229901016    14.003074004430
         C            1.236594584985    -0.193764045561    -0.000119098984    12.000000000000
         C            1.085479784985     1.380873254439    -0.000070998984    12.000000000000
         C           -1.231894415015    -0.392004045561     0.000165901016    12.000000000000
         C           -0.209749415015     1.684961954439     0.000062901016    12.000000000000
         H            0.116614584985    -1.941642045561    -0.000208098984     1.007825032230
         H            1.968459584985     1.834956954439    -0.000150098984     1.007825032230
         H           -0.341989415015     2.768160954439     0.000223901016     1.007825032230
         H            3.289505584985    -0.353532045561     0.000581901016     1.007825032230
         H            2.466158584985    -1.871774045561     0.001017901016     1.007825032230

  Basis Set: AUG-CC-PVTZ
    Blend: AUG-CC-PVTZ
  Basis Set: (AUG-CC-PVTZ AUX)
    Blend: AUG-CC-PVTZ-JKFIT
	 Reference Energy          =    -392.7102156586592514 [Eh]
	 Singles Energy            =      -0.0000000000000000 [Eh]
	 Same-Spin Energy          =      -0.4065250102449748 [Eh]
	 Opposite-Spin Energy      =      -1.2141942554960148 [Eh]
	 Correlation Energy        =      -1.6207192657409895 [Eh]
	 Total Energy              =    -394.3309349244002533 [Eh]

	 ================> DF-SCS-MP2 Energies <==================
	-----------------------------------------------------------
	 SCS Same-Spin Scale       =       0.3333333333333333 [-]
	 SCS Opposite-Spin Scale   =       1.2000000000000000 [-]
	 SCS Same-Spin Energy      =      -0.1355083367483249 [Eh]
	 SCS Opposite-Spin Energy  =      -1.4570331065952178 [Eh]
	 SCS Correlation Energy    =      -1.5925414433435428 [Eh]
	 SCS Total Energy          =    -394.3027571020027722 [Eh]
	-----------------------------------------------------------

  Dipole Moment: [D]
     X:     8.9765      Y:    -1.5384      Z:     0.0028     Total:     9.1074

*** Psi4 exiting successfully. Buy a developer a beer!
