                               Psi4 1.3.2 release

  ==> Input File <==

--------------------------------------------------------------------------
#psi4
#
memory 32 gb

molecule  {
0 1
  O       -2.2334690    -1.1675340     0.0001340
  N        0.0265130    -0.9084710    -0.0000270
  N        2.3544690    -0.8475160    -0.0005320
  N       -1.4210557     1.0424503     0.0002281
  C        1.1706060    -0.1768690    -0.0001310
  C        1.0385970     1.1986830    -0.0000890
  C       -1.2978830    -0.3751090     0.0001540
  C       -0.2757380     1.7018570     0.0000510
  H        0.0506260    -1.9247470    -0.0002200
  H        1.9024710     1.8518520    -0.0001620
  H       -0.4079780     2.7850560     0.0002120
  H        3.2235170    -0.3366370     0.0005700
  H        2.4001700    -1.8548790     0.0010060
units angstrom
no_reorient  #important for SAPT in psi4, default
symmetry c1  #important for SAPT in psi4, default
}

set PROPERTIES_ORIGIN ["COM"]
properties('MP2/aug-cc-pvtz', properties = ['dipole'])
--------------------------------------------------------------------------

    Molecular point group: c1
  Charge       = 0
  Multiplicity = 1
  Basis Set: AUG-CC-PVTZ
    Blend: AUG-CC-PVTZ
  Basis Set: (AUG-CC-PVTZ AUX)
    Blend: AUG-CC-PVTZ-JKFIT

    Orbital Energies [Eh]
    ---------------------

    Doubly Occupied:

       1A    -20.514284     2A    -15.634028     3A    -15.628979
       4A    -15.551846     5A    -11.383994     6A    -11.380357
       7A    -11.305580     8A    -11.231849     9A     -1.389182
      10A     -1.324441    11A     -1.240005    12A     -1.197681
      13A     -1.055152    14A     -0.904712    15A     -0.882934
      16A     -0.785053    17A     -0.749493    18A     -0.722899
      19A     -0.687545    20A     -0.637894    21A     -0.636195
      22A     -0.621462    23A     -0.565261    24A     -0.546557
      25A     -0.461425    26A     -0.454437    27A     -0.443090
      28A     -0.415866    29A     -0.325033

  @DF-RHF Final Energy:  -392.74810746069124

   => Energetics <=

    Nuclear Repulsion Energy =            354.1138785089109433
    One-Electron Energy =               -1236.3695078377343179
    Two-Electron Energy =                 489.5075218681321303
    Total Energy =                       -392.7481074606912443
  Basis Set: (AUG-CC-PVTZ AUX)
    Blend: AUG-CC-PVTZ-RI
    Molecular point group: c1

    Geometry (in Angstrom), charge = 0, multiplicity = 1:

       Center              X                  Y                   Z               Mass
    ------------   -----------------  -----------------  -----------------  -----------------
         O           -2.166555072178    -1.167904569117     0.000145286562    15.994914619570
         N            0.093426927822    -0.908841569117    -0.000015713438    14.003074004430
         N            2.421382927822    -0.847886569117    -0.000520713438    14.003074004430
         N           -1.354141772178     1.042079730883     0.000239386562    14.003074004430
         C            1.237519927822    -0.177239569117    -0.000119713438    12.000000000000
         C            1.105510927822     1.198312430883    -0.000077713438    12.000000000000
         C           -1.230969072178    -0.375479569117     0.000165286562    12.000000000000
         C           -0.208824072178     1.701486430883     0.000062286562    12.000000000000
         H            0.117539927822    -1.925117569117    -0.000208713438     1.007825032230
         H            1.969384927822     1.851481430883    -0.000150713438     1.007825032230
         H           -0.341064072178     2.784685430883     0.000223286562     1.007825032230
         H            3.290430927822    -0.337007569117     0.000581286562     1.007825032230
         H            2.467083927822    -1.855249569117     0.001017286562     1.007825032230

  Basis Set: AUG-CC-PVTZ
    Blend: AUG-CC-PVTZ
  Basis Set: (AUG-CC-PVTZ AUX)
    Blend: AUG-CC-PVTZ-JKFIT
	 Reference Energy          =    -392.7481074606912443 [Eh]
	 Singles Energy            =      -0.0000000000000000 [Eh]
	 Same-Spin Energy          =      -0.4067830493430248 [Eh]
	 Opposite-Spin Energy      =      -1.2150977324403232 [Eh]
	 Correlation Energy        =      -1.6218807817833478 [Eh]
	 Total Energy              =    -394.3699882424746193 [Eh]

	 ================> DF-SCS-MP2 Energies <==================
	-----------------------------------------------------------
	 SCS Same-Spin Scale       =       0.3333333333333333 [-]
	 SCS Opposite-Spin Scale   =       1.2000000000000000 [-]
	 SCS Same-Spin Energy      =      -0.1355943497810083 [Eh]
	 SCS Opposite-Spin Energy  =      -1.4581172789283878 [Eh]
	 SCS Correlation Energy    =      -1.5937116287093960 [Eh]
	 SCS Total Energy          =    -394.3418190894006443 [Eh]
	-----------------------------------------------------------

  Dipole Moment: [D]
     X:     8.0631      Y:    -1.0309      Z:     0.0030     Total:     8.1288

*** Psi4 exiting successfully. Buy a developer a beer!
