                               Psi4 1.4a3.dev225

  ==> Input File <==

--------------------------------------------------------------------------
#psi4
#
memory 32 gb

molecule  {
0 1
  O        2.2358750    -1.1647400    -0.0019990
  N       -0.0266920    -0.9090020    -0.0014130
  N       -2.3606070    -0.8668920    -0.0783920
  N        1.3942980     1.0030250     0.0093070
  C       -1.1689180    -0.1740660     0.0003700
  C       -1.0400980     1.1965590     0.0002140
  C        1.2955060    -0.3793770     0.0033320
  C        0.2772380     1.7038820     0.0017870
  H       -0.0601723    -1.9031938    -0.0671394
  H       -1.9045160     1.8491770     0.0118680
  H        0.4106550     2.7868440     0.0040290
  H       -3.1798030    -0.3063160     0.1264620
  H       -2.3838550    -1.7605480     0.4013470
units angstrom
no_reorient  #important for SAPT in psi4, default
symmetry c1  #important for SAPT in psi4, default
}

set PROPERTIES_ORIGIN ["COM"]
properties('MP2/aug-cc-pvtz', properties = ['dipole'])
--------------------------------------------------------------------------

    Molecular point group: c1
  Charge       = 0
  Multiplicity = 1
  Basis Set: AUG-CC-PVTZ
    Blend: AUG-CC-PVTZ
  Basis Set: (AUG-CC-PVTZ AUX)
    Blend: AUG-CC-PVTZ-JKFIT

    Orbital Energies [Eh]
    ---------------------

    Doubly Occupied:

       1A    -20.512867     2A    -15.632522     3A    -15.627043
       4A    -15.552084     5A    -11.381508     6A    -11.379005
       7A    -11.313030     8A    -11.237679     9A     -1.392276
      10A     -1.323768    11A     -1.244419    12A     -1.203095
      13A     -1.060536    14A     -0.910833    15A     -0.884271
      16A     -0.778142    17A     -0.751465    18A     -0.717390
      19A     -0.688176    20A     -0.646886    21A     -0.630651
      22A     -0.624025    23A     -0.574315    24A     -0.547902
      25A     -0.464066    26A     -0.452065    27A     -0.449038
      28A     -0.418790    29A     -0.331846

  @DF-RHF Final Energy:  -392.75146319223302

   => Energetics <=

    Nuclear Repulsion Energy =            355.1000471606001270
    One-Electron Energy =               -1238.2436359878568055
    Two-Electron Energy =                 490.3921256350237172
    Total Energy =                       -392.7514631922330182
  Basis Set: (AUG-CC-PVTZ AUX)
    Blend: AUG-CC-PVTZ-RI
    Molecular point group: c1

    Geometry (in Angstrom), charge = 0, multiplicity = 1:

       Center              X                  Y                   Z               Mass
    ------------   -----------------  -----------------  -----------------  -----------------
         O            2.172396031012    -1.159180830869     0.002237464139    15.994914619570
         N           -0.090170968988    -0.903442830869     0.002823464139    14.003074004430
         N           -2.424085968988    -0.861332830869    -0.074155535861    14.003074004430
         N            1.330819031012     1.008584169131     0.013543464139    14.003074004430
         C           -1.232396968988    -0.168506830869     0.004606464139    12.000000000000
         C           -1.103576968988     1.202118169131     0.004450464139    12.000000000000
         C            1.232027031012    -0.373817830869     0.007568464139    12.000000000000
         C            0.213759031012     1.709441169131     0.006023464139    12.000000000000
         H           -0.123651268988    -1.897634630869    -0.062902935861     1.007825032230
         H           -1.967994968988     1.854736169131     0.016104464139     1.007825032230
         H            0.347176031012     2.792403169131     0.008265464139     1.007825032230
         H           -3.243281968988    -0.300756830869     0.130698464139     1.007825032230
         H           -2.447333968988    -1.754988830869     0.405583464139     1.007825032230

  Basis Set: AUG-CC-PVTZ
    Blend: AUG-CC-PVTZ
  Basis Set: (AUG-CC-PVTZ AUX)
    Blend: AUG-CC-PVTZ-JKFIT
	 Reference Energy          =    -392.7514631922330182 [Eh]
	 Singles Energy            =      -0.0000000000000000 [Eh]
	 Same-Spin Energy          =      -0.4066335666486139 [Eh]
	 Opposite-Spin Energy      =      -1.2146182754436989 [Eh]
	 Correlation Energy        =      -1.6212518420923128 [Eh]
	 Total Energy              =    -394.3727150343253243 [Eh]

	 ================> DF-SCS-MP2 Energies <==================
	-----------------------------------------------------------
	 SCS Same-Spin Scale       =       0.3333333333333333 [-]
	 SCS Opposite-Spin Scale   =       1.2000000000000000 [-]
	 SCS Same-Spin Energy      =      -0.1355445222162046 [Eh]
	 SCS Opposite-Spin Energy  =      -1.4575419305324386 [Eh]
	 SCS Correlation Energy    =      -1.5930864527486432 [Eh]
	 SCS Total Energy          =    -394.3445496449816687 [Eh]
	-----------------------------------------------------------

  Dipole Moment: [D]
     X:    -7.6008      Y:    -0.3838      Z:     0.8636     Total:     7.6593

*** Psi4 exiting successfully. Buy a developer a beer!
