                               Psi4 1.3.2 release

  ==> Input File <==

--------------------------------------------------------------------------
#psi4
#
memory 32 gb

molecule  {
0 1
  O       -2.2334690    -1.1675340     0.0001340
  N        0.0265130    -0.9084710    -0.0000270
  N        2.3544690    -0.8475160    -0.0005320
  N       -1.3973450     1.0028810     0.0002180
  C        1.1706060    -0.1768690    -0.0001310
  C        1.0385970     1.1986830    -0.0000890
  C       -1.2978830    -0.3751090     0.0001540
  C       -0.2757380     1.7018570     0.0000510
  H        0.0458820    -1.7248033    -0.0001820
  H        1.9024710     1.8518520    -0.0001620
  H       -0.4079780     2.7850560     0.0002120
  H        3.2235170    -0.3366370     0.0005700
  H        2.4001700    -1.8548790     0.0010060
units angstrom
no_reorient  #important for SAPT in psi4, default
symmetry c1  #important for SAPT in psi4, default
}

set PROPERTIES_ORIGIN ["COM"]
properties('MP2/aug-cc-pvtz', properties = ['dipole'])
--------------------------------------------------------------------------

    Molecular point group: c1
  Charge       = 0
  Multiplicity = 1
  Basis Set: AUG-CC-PVTZ
    Blend: AUG-CC-PVTZ
  Basis Set: (AUG-CC-PVTZ AUX)
    Blend: AUG-CC-PVTZ-JKFIT

    Orbital Energies [Eh]
    ---------------------

    Doubly Occupied:

       1A    -20.511195     2A    -15.630523     3A    -15.612521
       4A    -15.546113     5A    -11.385598     6A    -11.376823
       7A    -11.310066     8A    -11.233489     9A     -1.398663
      10A     -1.331434    11A     -1.247546    12A     -1.216919
      13A     -1.063115    14A     -0.928854    15A     -0.886596
      16A     -0.811163    17A     -0.762261    18A     -0.734915
      19A     -0.693152    20A     -0.641419    21A     -0.640140
      22A     -0.623259    23A     -0.572385    24A     -0.549229
      25A     -0.461961    26A     -0.449261    27A     -0.445539
      28A     -0.416375    29A     -0.326856

  @DF-RHF Final Energy:  -392.70808151453207

   => Energetics <=

    Nuclear Repulsion Energy =            356.6136764073988843
    One-Electron Energy =               -1241.0287812969570496
    Two-Electron Energy =                 491.7070233750260968
    Total Energy =                       -392.7080815145320685
  Basis Set: (AUG-CC-PVTZ AUX)
    Blend: AUG-CC-PVTZ-RI
    Molecular point group: c1

    Geometry (in Angstrom), charge = 0, multiplicity = 1:

       Center              X                  Y                   Z               Mass
    ------------   -----------------  -----------------  -----------------  -----------------
         O           -2.169502045813    -1.164729378073     0.000146215332    15.994914619570
         N            0.090479954187    -0.905666378073    -0.000014784668    14.003074004430
         N            2.418435954187    -0.844711378073    -0.000519784668    14.003074004430
         N           -1.333378045813     1.005685621927     0.000230215332    14.003074004430
         C            1.234572954187    -0.174064378073    -0.000118784668    12.000000000000
         C            1.102563954187     1.201487621927    -0.000076784668    12.000000000000
         C           -1.233916045813    -0.372304378073     0.000166215332    12.000000000000
         C           -0.211771045813     1.704661621927     0.000063215332    12.000000000000
         H            0.109848954187    -1.721998678073    -0.000169784668     1.007825032230
         H            1.966437954187     1.854656621927    -0.000149784668     1.007825032230
         H           -0.344011045813     2.787860621927     0.000224215332     1.007825032230
         H            3.287483954187    -0.333832378073     0.000582215332     1.007825032230
         H            2.464136954187    -1.852074378073     0.001018215332     1.007825032230

  Basis Set: AUG-CC-PVTZ
    Blend: AUG-CC-PVTZ
  Basis Set: (AUG-CC-PVTZ AUX)
    Blend: AUG-CC-PVTZ-JKFIT
	 Reference Energy          =    -392.7080815145320685 [Eh]
	 Singles Energy            =      -0.0000000000000000 [Eh]
	 Same-Spin Energy          =      -0.4053564731138800 [Eh]
	 Opposite-Spin Energy      =      -1.2114583028256150 [Eh]
	 Correlation Energy        =      -1.6168147759394949 [Eh]
	 Total Energy              =    -394.3248962904715427 [Eh]

	 ================> DF-SCS-MP2 Energies <==================
	-----------------------------------------------------------
	 SCS Same-Spin Scale       =       0.3333333333333333 [-]
	 SCS Opposite-Spin Scale   =       1.2000000000000000 [-]
	 SCS Same-Spin Energy      =      -0.1351188243712933 [Eh]
	 SCS Opposite-Spin Energy  =      -1.4537499633907378 [Eh]
	 SCS Correlation Energy    =      -1.5888687877620311 [Eh]
	 SCS Total Energy          =    -394.2969503022940785 [Eh]
	-----------------------------------------------------------

  Dipole Moment: [D]
     X:     8.1585      Y:    -0.6646      Z:     0.0031     Total:     8.1855

*** Psi4 exiting successfully. Buy a developer a beer!
