                               Psi4 1.3.2 release

  ==> Input File <==

--------------------------------------------------------------------------
#psi4
#
memory 32 gb

molecule  {
0 1
  O       -2.2334690    -1.1675340     0.0001340
  N        0.0265130    -0.9084710    -0.0000270
  N        2.3544690    -0.8475160    -0.0005320
  N       -1.3973450     1.0028810     0.0002180
  C        1.1706060    -0.1768690    -0.0001310
  C        1.0385970     1.1986830    -0.0000890
  C       -1.2978830    -0.3751090     0.0001540
  C       -0.2757380     1.7018570     0.0000510
  H        0.0506260    -1.9247470    -0.0002200
  H        1.8227049     1.7915414    -0.0001553
  H       -0.4079780     2.7850560     0.0002120
  H        3.2235170    -0.3366370     0.0005700
  H        2.4001700    -1.8548790     0.0010060
units angstrom
no_reorient  #important for SAPT in psi4, default
symmetry c1  #important for SAPT in psi4, default
}

set PROPERTIES_ORIGIN ["COM"]
properties('MP2/aug-cc-pvtz', properties = ['dipole'])
--------------------------------------------------------------------------

    Molecular point group: c1
  Charge       = 0
  Multiplicity = 1
  Basis Set: AUG-CC-PVTZ
    Blend: AUG-CC-PVTZ
  Basis Set: (AUG-CC-PVTZ AUX)
    Blend: AUG-CC-PVTZ-JKFIT

    Orbital Energies [Eh]
    ---------------------

    Doubly Occupied:

       1A    -20.509019     2A    -15.631553     3A    -15.629138
       4A    -15.545051     5A    -11.383454     6A    -11.375299
       7A    -11.308038     8A    -11.220768     9A     -1.388319
      10A     -1.323203    11A     -1.242515    12A     -1.198714
      13A     -1.061984    14A     -0.909324    15A     -0.885916
      16A     -0.785543    17A     -0.760352    18A     -0.723206
      19A     -0.691012    20A     -0.645880    21A     -0.638101
      22A     -0.625219    23A     -0.573406    24A     -0.547672
      25A     -0.459694    26A     -0.447379    27A     -0.441793
      28A     -0.414940    29A     -0.325385

  @DF-RHF Final Energy:  -392.74522702997024

   => Energetics <=

    Nuclear Repulsion Energy =            355.7396640269051318
    One-Electron Energy =               -1239.5860311146152526
    Two-Electron Energy =                 491.1011400577399399
    Total Energy =                       -392.7452270299702377
  Basis Set: (AUG-CC-PVTZ AUX)
    Blend: AUG-CC-PVTZ-RI
    Molecular point group: c1

    Geometry (in Angstrom), charge = 0, multiplicity = 1:

       Center              X                  Y                   Z               Mass
    ------------   -----------------  -----------------  -----------------  -----------------
         O           -2.168821147674    -1.162367318512     0.000146499410    15.994914619570
         N            0.091160852326    -0.903304318512    -0.000014500590    14.003074004430
         N            2.419116852326    -0.842349318512    -0.000519500590    14.003074004430
         N           -1.332697147674     1.008047681488     0.000230499410    14.003074004430
         C            1.235253852326    -0.171702318512    -0.000118500590    12.000000000000
         C            1.103244852326     1.203849681488    -0.000076500590    12.000000000000
         C           -1.233235147674    -0.369942318512     0.000166499410    12.000000000000
         C           -0.211090147674     1.707023681488     0.000063499410    12.000000000000
         H            0.115273852326    -1.919580318512    -0.000207500590     1.007825032230
         H            1.887352752326     1.796708081488    -0.000142800590     1.007825032230
         H           -0.343330147674     2.790222681488     0.000224499410     1.007825032230
         H            3.288164852326    -0.331470318512     0.000582499410     1.007825032230
         H            2.464817852326    -1.849712318512     0.001018499410     1.007825032230

  Basis Set: AUG-CC-PVTZ
    Blend: AUG-CC-PVTZ
  Basis Set: (AUG-CC-PVTZ AUX)
    Blend: AUG-CC-PVTZ-JKFIT
	 Reference Energy          =    -392.7452270299702377 [Eh]
	 Singles Energy            =      -0.0000000000000000 [Eh]
	 Same-Spin Energy          =      -0.4067060714752065 [Eh]
	 Opposite-Spin Energy      =      -1.2136881599861145 [Eh]
	 Correlation Energy        =      -1.6203942314613209 [Eh]
	 Total Energy              =    -394.3656212614315564 [Eh]

	 ================> DF-SCS-MP2 Energies <==================
	-----------------------------------------------------------
	 SCS Same-Spin Scale       =       0.3333333333333333 [-]
	 SCS Opposite-Spin Scale   =       1.2000000000000000 [-]
	 SCS Same-Spin Energy      =      -0.1355686904917355 [Eh]
	 SCS Opposite-Spin Energy  =      -1.4564257919833372 [Eh]
	 SCS Correlation Energy    =      -1.5919944824750727 [Eh]
	 SCS Total Energy          =    -394.3372215124452964 [Eh]
	-----------------------------------------------------------

  Dipole Moment: [D]
     X:     8.1528      Y:    -0.8722      Z:     0.0030     Total:     8.1993

*** Psi4 exiting successfully. Buy a developer a beer!
