                               Psi4 1.3.2 release

  ==> Input File <==

--------------------------------------------------------------------------
#psi4
#
memory 32 gb

molecule  {
0 1
  O       -2.2334690    -1.1675340     0.0001340
  N        0.0265130    -0.9084710    -0.0000270
  N        2.3544690    -0.8475160    -0.0005320
  N       -1.3973450     1.0028810     0.0002180
  C        1.1706060    -0.1768690    -0.0001310
  C        1.0385970     1.1986830    -0.0000890
  C       -1.2978830    -0.3751090     0.0001540
  C       -0.2924979     1.6556808     0.0000518
  H        0.0506260    -1.9247470    -0.0002200
  H        1.9024710     1.8518520    -0.0001620
  H       -0.4079780     2.7850560     0.0002120
  H        3.2235170    -0.3366370     0.0005700
  H        2.4001700    -1.8548790     0.0010060
units angstrom
no_reorient  #important for SAPT in psi4, default
symmetry c1  #important for SAPT in psi4, default
}

set PROPERTIES_ORIGIN ["COM"]
properties('MP2/aug-cc-pvtz', properties = ['dipole'])
--------------------------------------------------------------------------

    Molecular point group: c1
  Charge       = 0
  Multiplicity = 1
  Basis Set: AUG-CC-PVTZ
    Blend: AUG-CC-PVTZ
  Basis Set: (AUG-CC-PVTZ AUX)
    Blend: AUG-CC-PVTZ-JKFIT

    Orbital Energies [Eh]
    ---------------------

    Doubly Occupied:

       1A    -20.512400     2A    -15.632055     3A    -15.627436
       4A    -15.546338     5A    -11.381914     6A    -11.378121
       7A    -11.306305     8A    -11.230704     9A     -1.391899
      10A     -1.323793    11A     -1.251222    12A     -1.205964
      13A     -1.057828    14A     -0.904287    15A     -0.886027
      16A     -0.785234    17A     -0.754341    18A     -0.719989
      19A     -0.689385    20A     -0.640333    21A     -0.635051
      22A     -0.621987    23A     -0.563152    24A     -0.549523
      25A     -0.467717    26A     -0.452203    27A     -0.442627
      28A     -0.415202    29A     -0.327187

  @DF-RHF Final Energy:  -392.74960488797046

   => Energetics <=

    Nuclear Repulsion Energy =            356.1290905236184017
    One-Electron Energy =               -1240.3569425684650014
    Two-Electron Energy =                 491.4782471568761366
    Total Energy =                       -392.7496048879704631
  Basis Set: (AUG-CC-PVTZ AUX)
    Blend: AUG-CC-PVTZ-RI
    Molecular point group: c1

    Geometry (in Angstrom), charge = 0, multiplicity = 1:

       Center              X                  Y                   Z               Mass
    ------------   -----------------  -----------------  -----------------  -----------------
         O           -2.167733927020    -1.157924618796     0.000146473766    15.994914619570
         N            0.092248072980    -0.898861618796    -0.000014526234    14.003074004430
         N            2.420204072980    -0.837906618796    -0.000519526234    14.003074004430
         N           -1.331609927020     1.012490381204     0.000230473766    14.003074004430
         C            1.236341072980    -0.167259618796    -0.000118526234    12.000000000000
         C            1.104332072980     1.208292381204    -0.000076526234    12.000000000000
         C           -1.232147927020    -0.365499618796     0.000166473766    12.000000000000
         C           -0.226762827020     1.665290181204     0.000064273766    12.000000000000
         H            0.116361072980    -1.915137618796    -0.000207526234     1.007825032230
         H            1.968206072980     1.861461381204    -0.000149526234     1.007825032230
         H           -0.342242927020     2.794665381204     0.000224473766     1.007825032230
         H            3.289252072980    -0.327027618796     0.000582473766     1.007825032230
         H            2.465905072980    -1.845269618796     0.001018473766     1.007825032230

  Basis Set: AUG-CC-PVTZ
    Blend: AUG-CC-PVTZ
  Basis Set: (AUG-CC-PVTZ AUX)
    Blend: AUG-CC-PVTZ-JKFIT
	 Reference Energy          =    -392.7496048879704631 [Eh]
	 Singles Energy            =      -0.0000000000000000 [Eh]
	 Same-Spin Energy          =      -0.4064387276344655 [Eh]
	 Opposite-Spin Energy      =      -1.2133394355008622 [Eh]
	 Correlation Energy        =      -1.6197781631353276 [Eh]
	 Total Energy              =    -394.3693830511057854 [Eh]

	 ================> DF-SCS-MP2 Energies <==================
	-----------------------------------------------------------
	 SCS Same-Spin Scale       =       0.3333333333333333 [-]
	 SCS Opposite-Spin Scale   =       1.2000000000000000 [-]
	 SCS Same-Spin Energy      =      -0.1354795758781552 [Eh]
	 SCS Opposite-Spin Energy  =      -1.4560073226010346 [Eh]
	 SCS Correlation Energy    =      -1.5914868984791899 [Eh]
	 SCS Total Energy          =    -394.3410917864496810 [Eh]
	-----------------------------------------------------------

  Dipole Moment: [D]
     X:     8.0034      Y:    -0.9765      Z:     0.0030     Total:     8.0628

*** Psi4 exiting successfully. Buy a developer a beer!
