                               Psi4 1.4a3.dev225

  ==> Input File <==

--------------------------------------------------------------------------
#psi4
#
memory 32 gb

molecule  {
0 1
  O        2.2358750    -1.1647400    -0.0019990
  N       -0.0266920    -0.9090020    -0.0014130
  N       -2.3606070    -0.8668920    -0.0783920
  N        1.3942980     1.0030250     0.0093070
  C       -1.1689180    -0.1740660     0.0003700
  C       -1.0400980     1.1965590     0.0002140
  C        1.2801556    -0.3665568     0.0034190
  C        0.2772380     1.7038820     0.0017870
  H       -0.0608440    -1.9231390    -0.0684580
  H       -1.9045160     1.8491770     0.0118680
  H        0.4106550     2.7868440     0.0040290
  H       -3.1798030    -0.3063160     0.1264620
  H       -2.3838550    -1.7605480     0.4013470
units angstrom
no_reorient  #important for SAPT in psi4, default
symmetry c1  #important for SAPT in psi4, default
}

set PROPERTIES_ORIGIN ["COM"]
properties('MP2/aug-cc-pvtz', properties = ['dipole'])
--------------------------------------------------------------------------

    Molecular point group: c1
  Charge       = 0
  Multiplicity = 1
  Basis Set: AUG-CC-PVTZ
    Blend: AUG-CC-PVTZ
  Basis Set: (AUG-CC-PVTZ AUX)
    Blend: AUG-CC-PVTZ-JKFIT

    Orbital Energies [Eh]
    ---------------------

    Doubly Occupied:

       1A    -20.507107     2A    -15.636785     3A    -15.628386
       4A    -15.553651     5A    -11.383116     6A    -11.378169
       7A    -11.314891     8A    -11.239806     9A     -1.385224
      10A     -1.318882    11A     -1.245204    12A     -1.205345
      13A     -1.062245    14A     -0.912133    15A     -0.886483
      16A     -0.777827    17A     -0.753199    18A     -0.717664
      19A     -0.689100    20A     -0.648301    21A     -0.632101
      22A     -0.618860    23A     -0.570838    24A     -0.545827
      25A     -0.464014    26A     -0.448410    27A     -0.445202
      28A     -0.421134    29A     -0.332701

  @DF-RHF Final Energy:  -392.74932296448475

   => Energetics <=

    Nuclear Repulsion Energy =            355.0814538510512079
    One-Electron Energy =               -1238.2163372726788566
    Two-Electron Energy =                 490.3855604571428444
    Total Energy =                       -392.7493229644847474
  Basis Set: (AUG-CC-PVTZ AUX)
    Blend: AUG-CC-PVTZ-RI
    Molecular point group: c1

    Geometry (in Angstrom), charge = 0, multiplicity = 1:

       Center              X                  Y                   Z               Mass
    ------------   -----------------  -----------------  -----------------  -----------------
         O            2.174060983510    -1.160385236485     0.002240029969    15.994914619570
         N           -0.088506016490    -0.904647236485     0.002826029969    14.003074004430
         N           -2.422421016490    -0.862537236485    -0.074152970031    14.003074004430
         N            1.332483983510     1.007379763515     0.013546029969    14.003074004430
         C           -1.230732016490    -0.169711236485     0.004609029969    12.000000000000
         C           -1.101912016490     1.200913763515     0.004453029969    12.000000000000
         C            1.218341583510    -0.362202036485     0.007658029969    12.000000000000
         C            0.215423983510     1.708236763515     0.006026029969    12.000000000000
         H           -0.122658016490    -1.918784236485    -0.064218970031     1.007825032230
         H           -1.966330016490     1.853531763515     0.016107029969     1.007825032230
         H            0.348840983510     2.791198763515     0.008268029969     1.007825032230
         H           -3.241617016490    -0.301961236485     0.130701029969     1.007825032230
         H           -2.445669016490    -1.756193236485     0.405586029969     1.007825032230

  Basis Set: AUG-CC-PVTZ
    Blend: AUG-CC-PVTZ
  Basis Set: (AUG-CC-PVTZ AUX)
    Blend: AUG-CC-PVTZ-JKFIT
	 Reference Energy          =    -392.7493229644845201 [Eh]
	 Singles Energy            =      -0.0000000000000000 [Eh]
	 Same-Spin Energy          =      -0.4071628854514621 [Eh]
	 Opposite-Spin Energy      =      -1.2154891915495867 [Eh]
	 Correlation Energy        =      -1.6226520770010489 [Eh]
	 Total Energy              =    -394.3719750414855412 [Eh]

	 ================> DF-SCS-MP2 Energies <==================
	-----------------------------------------------------------
	 SCS Same-Spin Scale       =       0.3333333333333333 [-]
	 SCS Opposite-Spin Scale   =       1.2000000000000000 [-]
	 SCS Same-Spin Energy      =      -0.1357209618171540 [Eh]
	 SCS Opposite-Spin Energy  =      -1.4585870298595041 [Eh]
	 SCS Correlation Energy    =      -1.5943079916766580 [Eh]
	 SCS Total Energy          =    -394.3436309561611779 [Eh]
	-----------------------------------------------------------

  Dipole Moment: [D]
     X:    -7.7946      Y:    -0.2858      Z:     0.8621     Total:     7.8473

*** Psi4 exiting successfully. Buy a developer a beer!
