                               Psi4 1.4a3.dev225

  ==> Input File <==

--------------------------------------------------------------------------
#psi4
#
memory 32 gb

molecule  {
0 1
  O        2.2358750    -1.1647400    -0.0019990
  N       -0.0266920    -0.9090020    -0.0014130
  N       -2.3606070    -0.8668920    -0.0783920
  N        1.3942980     1.0030250     0.0093070
  C       -1.1689180    -0.1740660     0.0003700
  C       -1.0400980     1.1965590     0.0002140
  C        1.2955060    -0.3793770     0.0033320
  C        0.2348848     1.7304549     0.0015019
  H       -0.0608440    -1.9231390    -0.0684580
  H       -1.9045160     1.8491770     0.0118680
  H        0.4106550     2.7868440     0.0040290
  H       -3.1798030    -0.3063160     0.1264620
  H       -2.3838550    -1.7605480     0.4013470
units angstrom
no_reorient  #important for SAPT in psi4, default
symmetry c1  #important for SAPT in psi4, default
}

set PROPERTIES_ORIGIN ["COM"]
properties('MP2/aug-cc-pvtz', properties = ['dipole'])
--------------------------------------------------------------------------

    Molecular point group: c1
  Charge       = 0
  Multiplicity = 1
  Basis Set: AUG-CC-PVTZ
    Blend: AUG-CC-PVTZ
  Basis Set: (AUG-CC-PVTZ AUX)
    Blend: AUG-CC-PVTZ-JKFIT

    Orbital Energies [Eh]
    ---------------------

    Doubly Occupied:

       1A    -20.507449     2A    -15.636063     3A    -15.631035
       4A    -15.549595     5A    -11.387069     6A    -11.374254
       7A    -11.313848     8A    -11.239462     9A     -1.388082
      10A     -1.324101    11A     -1.238778    12A     -1.191422
      13A     -1.065991    14A     -0.914528    15A     -0.881531
      16A     -0.777762    17A     -0.749534    18A     -0.718335
      19A     -0.687682    20A     -0.650643    21A     -0.631922
      22A     -0.621744    23A     -0.571595    24A     -0.546912
      25A     -0.459150    26A     -0.448659    27A     -0.445262
      28A     -0.417167    29A     -0.330776

  @DF-RHF Final Energy:  -392.74532464413329

   => Energetics <=

    Nuclear Repulsion Energy =            354.4513237313142895
    One-Electron Energy =               -1236.9925939501561061
    Two-Electron Energy =                 489.7959455747085826
    Total Energy =                       -392.7453246441332908
  Basis Set: (AUG-CC-PVTZ AUX)
    Blend: AUG-CC-PVTZ-RI
    Molecular point group: c1

    Geometry (in Angstrom), charge = 0, multiplicity = 1:

       Center              X                  Y                   Z               Mass
    ------------   -----------------  -----------------  -----------------  -----------------
         O            2.176979067820    -1.161871435623     0.002280241324    15.994914619570
         N           -0.085587932180    -0.906133435623     0.002866241324    14.003074004430
         N           -2.419502932180    -0.864023435623    -0.074112758676    14.003074004430
         N            1.335402067820     1.005893564377     0.013586241324    14.003074004430
         C           -1.227813932180    -0.171197435623     0.004649241324    12.000000000000
         C           -1.098993932180     1.199427564377     0.004493241324    12.000000000000
         C            1.236610067820    -0.376508435623     0.007611241324    12.000000000000
         C            0.175988867820     1.733323464377     0.005781141324    12.000000000000
         H           -0.119739932180    -1.920270435623    -0.064178758676     1.007825032230
         H           -1.963411932180     1.852045564377     0.016147241324     1.007825032230
         H            0.351759067820     2.789712564377     0.008308241324     1.007825032230
         H           -3.238698932180    -0.303447435623     0.130741241324     1.007825032230
         H           -2.442750932180    -1.757679435623     0.405626241324     1.007825032230

  Basis Set: AUG-CC-PVTZ
    Blend: AUG-CC-PVTZ
  Basis Set: (AUG-CC-PVTZ AUX)
    Blend: AUG-CC-PVTZ-JKFIT
	 Reference Energy          =    -392.7453246441332908 [Eh]
	 Singles Energy            =      -0.0000000000000000 [Eh]
	 Same-Spin Energy          =      -0.4077430068765259 [Eh]
	 Opposite-Spin Energy      =      -1.2163645648988419 [Eh]
	 Correlation Energy        =      -1.6241075717753679 [Eh]
	 Total Energy              =    -394.3694322159086596 [Eh]

	 ================> DF-SCS-MP2 Energies <==================
	-----------------------------------------------------------
	 SCS Same-Spin Scale       =       0.3333333333333333 [-]
	 SCS Opposite-Spin Scale   =       1.2000000000000000 [-]
	 SCS Same-Spin Energy      =      -0.1359143356255086 [Eh]
	 SCS Opposite-Spin Energy  =      -1.4596374778786103 [Eh]
	 SCS Correlation Energy    =      -1.5955518135041189 [Eh]
	 SCS Total Energy          =    -394.3408764576374210 [Eh]
	-----------------------------------------------------------

  Dipole Moment: [D]
     X:    -7.8852      Y:    -0.3878      Z:     0.8610     Total:     7.9415

*** Psi4 exiting successfully. Buy a developer a beer!
