                               Psi4 1.4a3.dev225

  ==> Input File <==

--------------------------------------------------------------------------
#psi4
#
memory 32 gb

molecule  {
0 1
  O        2.2358750    -1.1647400    -0.0019990
  N       -0.0266920    -0.9090020    -0.0014130
  N       -2.3606070    -0.8668920    -0.0783920
  N        1.3942980     1.0030250     0.0093070
  C       -1.1689180    -0.1740660     0.0003700
  C       -1.0400980     1.1965590     0.0002140
  C        1.2955060    -0.3793770     0.0033320
  C        0.2772380     1.7038820     0.0017870
  H       -0.0608440    -1.9231390    -0.0684580
  H       -1.9045160     1.8491770     0.0118680
  H        0.4106550     2.7868440     0.0040290
  H       -3.1636382    -0.3173776     0.1224197
  H       -2.3838550    -1.7605480     0.4013470
units angstrom
no_reorient  #important for SAPT in psi4, default
symmetry c1  #important for SAPT in psi4, default
}

set PROPERTIES_ORIGIN ["COM"]
properties('MP2/aug-cc-pvtz', properties = ['dipole'])
--------------------------------------------------------------------------

    Molecular point group: c1
  Charge       = 0
  Multiplicity = 1
  Basis Set: AUG-CC-PVTZ
    Blend: AUG-CC-PVTZ
  Basis Set: (AUG-CC-PVTZ AUX)
    Blend: AUG-CC-PVTZ-JKFIT

    Orbital Energies [Eh]
    ---------------------

    Doubly Occupied:

       1A    -20.512722     2A    -15.634249     3A    -15.625051
       4A    -15.552148     5A    -11.381456     6A    -11.378944
       7A    -11.313008     8A    -11.237710     9A     -1.391703
      10A     -1.323910    11A     -1.245559    12A     -1.202453
      13A     -1.060478    14A     -0.909641    15A     -0.885230
      16A     -0.775996    17A     -0.751773    18A     -0.717458
      19A     -0.690198    20A     -0.646652    21A     -0.630408
      22A     -0.623729    23A     -0.574077    24A     -0.548035
      25A     -0.464007    26A     -0.451939    27A     -0.448950
      28A     -0.418757    29A     -0.331836

  @DF-RHF Final Energy:  -392.75135313964034

   => Energetics <=

    Nuclear Repulsion Energy =            355.0838274932668810
    One-Electron Energy =               -1238.2142102008638176
    Two-Electron Energy =                 490.3790295679565929
    Total Energy =                       -392.7513531396403437
  Basis Set: (AUG-CC-PVTZ AUX)
    Blend: AUG-CC-PVTZ-RI
    Molecular point group: c1

    Geometry (in Angstrom), charge = 0, multiplicity = 1:

       Center              X                  Y                   Z               Mass
    ------------   -----------------  -----------------  -----------------  -----------------
         O            2.172255416140    -1.158899414160     0.002286119493    15.994914619570
         N           -0.090311583860    -0.903161414160     0.002872119493    14.003074004430
         N           -2.424226583860    -0.861051414160    -0.074106880507    14.003074004430
         N            1.330678416140     1.008865585840     0.013592119493    14.003074004430
         C           -1.232537583860    -0.168225414160     0.004655119493    12.000000000000
         C           -1.103717583860     1.202399585840     0.004499119493    12.000000000000
         C            1.231886416140    -0.373536414160     0.007617119493    12.000000000000
         C            0.213618416140     1.709722585840     0.006072119493    12.000000000000
         H           -0.124463583860    -1.917298414160    -0.064172880507     1.007825032230
         H           -1.968135583860     1.855017585840     0.016153119493     1.007825032230
         H            0.347035416140     2.792684585840     0.008314119493     1.007825032230
         H           -3.227257783860    -0.311537014160     0.126704819493     1.007825032230
         H           -2.447474583860    -1.754707414160     0.405632119493     1.007825032230

  Basis Set: AUG-CC-PVTZ
    Blend: AUG-CC-PVTZ
  Basis Set: (AUG-CC-PVTZ AUX)
    Blend: AUG-CC-PVTZ-JKFIT
	 Reference Energy          =    -392.7513531396403437 [Eh]
	 Singles Energy            =      -0.0000000000000000 [Eh]
	 Same-Spin Energy          =      -0.4066907525628296 [Eh]
	 Opposite-Spin Energy      =      -1.2146518929240957 [Eh]
	 Correlation Energy        =      -1.6213426454869253 [Eh]
	 Total Energy              =    -394.3726957851272914 [Eh]

	 ================> DF-SCS-MP2 Energies <==================
	-----------------------------------------------------------
	 SCS Same-Spin Scale       =       0.3333333333333333 [-]
	 SCS Opposite-Spin Scale   =       1.2000000000000000 [-]
	 SCS Same-Spin Energy      =      -0.1355635841876099 [Eh]
	 SCS Opposite-Spin Energy  =      -1.4575822715089148 [Eh]
	 SCS Correlation Energy    =      -1.5931458556965248 [Eh]
	 SCS Total Energy          =    -394.3444989953368918 [Eh]
	-----------------------------------------------------------

  Dipole Moment: [D]
     X:    -7.5815      Y:    -0.4123      Z:     0.8598     Total:     7.6412

*** Psi4 exiting successfully. Buy a developer a beer!
