                               Psi4 1.3.2 release

  ==> Input File <==

--------------------------------------------------------------------------
#psi4
#
memory 32 gb

molecule  {
0 1
  O       -2.2334690    -1.1675340     0.0001340
  N        0.0265130    -0.9084710    -0.0000270
  N        2.3544690    -0.8475160    -0.0005320
  N       -1.3973450     1.0028810     0.0002180
  C        1.1706060    -0.1768690    -0.0001310
  C        1.0385970     1.1986830    -0.0000890
  C       -1.2978830    -0.3751090     0.0001540
  C       -0.1060005     1.8076360     0.0000257
  H        0.0506260    -1.9247470    -0.0002200
  H        1.9024710     1.8518520    -0.0001620
  H       -0.4079780     2.7850560     0.0002120
  H        3.2235170    -0.3366370     0.0005700
  H        2.4001700    -1.8548790     0.0010060
units angstrom
no_reorient  #important for SAPT in psi4, default
symmetry c1  #important for SAPT in psi4, default
}

set PROPERTIES_ORIGIN ["COM"]
properties('MP2/aug-cc-pvtz', properties = ['dipole'])
--------------------------------------------------------------------------

    Molecular point group: c1
  Charge       = 0
  Multiplicity = 1
  Basis Set: AUG-CC-PVTZ
    Blend: AUG-CC-PVTZ
  Basis Set: (AUG-CC-PVTZ AUX)
    Blend: AUG-CC-PVTZ-JKFIT

    Orbital Energies [Eh]
    ---------------------

    Doubly Occupied:

       1A    -20.489386     2A    -15.647035     3A    -15.638976
       4A    -15.531780     5A    -11.406764     6A    -11.357174
       7A    -11.306576     8A    -11.241940     9A     -1.378404
      10A     -1.327277    11A     -1.237148    12A     -1.159548
      13A     -1.073903    14A     -0.933433    15A     -0.875667
      16A     -0.794736    17A     -0.758017    18A     -0.729337
      19A     -0.686544    20A     -0.665557    21A     -0.641266
      22A     -0.610926    23A     -0.550379    24A     -0.543559
      25A     -0.454163    26A     -0.438688    27A     -0.420134
      28A     -0.400549    29A     -0.319372

  @DF-RHF Final Energy:  -392.70053559295064

   => Energetics <=

    Nuclear Repulsion Energy =            353.3460306904664208
    One-Electron Energy =               -1234.8566565028622790
    Two-Electron Energy =                 488.8100902194451578
    Total Energy =                       -392.7005355929506436
  Basis Set: (AUG-CC-PVTZ AUX)
    Blend: AUG-CC-PVTZ-RI
    Molecular point group: c1

    Geometry (in Angstrom), charge = 0, multiplicity = 1:

       Center              X                  Y                   Z               Mass
    ------------   -----------------  -----------------  -----------------  -----------------
         O           -2.187887953152    -1.174345807894     0.000149294288    15.994914619570
         N            0.072094046848    -0.915282807894    -0.000011705712    14.003074004430
         N            2.400050046848    -0.854327807894    -0.000516705712    14.003074004430
         N           -1.351763953152     0.996069192106     0.000233294288    14.003074004430
         C            1.216187046848    -0.183680807894    -0.000115705712    12.000000000000
         C            1.084178046848     1.191871192106    -0.000073705712    12.000000000000
         C           -1.252301953152    -0.381920807894     0.000169294288    12.000000000000
         C           -0.060419453152     1.800824192106     0.000040994288    12.000000000000
         H            0.096207046848    -1.931558807894    -0.000204705712     1.007825032230
         H            1.948052046848     1.845040192106    -0.000146705712     1.007825032230
         H           -0.362396953152     2.778244192106     0.000227294288     1.007825032230
         H            3.269098046848    -0.343448807894     0.000585294288     1.007825032230
         H            2.445751046848    -1.861690807894     0.001021294288     1.007825032230

  Basis Set: AUG-CC-PVTZ
    Blend: AUG-CC-PVTZ
  Basis Set: (AUG-CC-PVTZ AUX)
    Blend: AUG-CC-PVTZ-JKFIT
	 Reference Energy          =    -392.7005355929506436 [Eh]
	 Singles Energy            =      -0.0000000000000000 [Eh]
	 Same-Spin Energy          =      -0.4098025905559080 [Eh]
	 Opposite-Spin Energy      =      -1.2200231776232537 [Eh]
	 Correlation Energy        =      -1.6298257681791617 [Eh]
	 Total Energy              =    -394.3303613611298033 [Eh]

	 ================> DF-SCS-MP2 Energies <==================
	-----------------------------------------------------------
	 SCS Same-Spin Scale       =       0.3333333333333333 [-]
	 SCS Opposite-Spin Scale   =       1.2000000000000000 [-]
	 SCS Same-Spin Energy      =      -0.1366008635186360 [Eh]
	 SCS Opposite-Spin Energy  =      -1.4640278131479045 [Eh]
	 SCS Correlation Energy    =      -1.6006286766665405 [Eh]
	 SCS Total Energy          =    -394.3011642696171748 [Eh]
	-----------------------------------------------------------

  Dipole Moment: [D]
     X:     9.2967      Y:    -0.7980      Z:     0.0029     Total:     9.3309

*** Psi4 exiting successfully. Buy a developer a beer!
