                               Psi4 1.3.2 release

  ==> Input File <==

--------------------------------------------------------------------------
#psi4
#
memory 32 gb

molecule  {
0 1
  O       -2.2334690    -1.1675340     0.0001340
  N        0.0265130    -0.9084710    -0.0000270
  N        2.3544690    -0.8475160    -0.0005320
  N       -1.3973450     1.0028810     0.0002180
  C        1.3136672    -0.1555349    -0.0001446
  C        1.0385970     1.1986830    -0.0000890
  C       -1.2978830    -0.3751090     0.0001540
  C       -0.2757380     1.7018570     0.0000510
  H        0.0506260    -1.9247470    -0.0002200
  H        1.9024710     1.8518520    -0.0001620
  H       -0.4079780     2.7850560     0.0002120
  H        3.2235170    -0.3366370     0.0005700
  H        2.4001700    -1.8548790     0.0010060
units angstrom
no_reorient  #important for SAPT in psi4, default
symmetry c1  #important for SAPT in psi4, default
}

set PROPERTIES_ORIGIN ["COM"]
properties('MP2/aug-cc-pvtz', properties = ['dipole'])
--------------------------------------------------------------------------

    Molecular point group: c1
  Charge       = 0
  Multiplicity = 1
  Basis Set: AUG-CC-PVTZ
    Blend: AUG-CC-PVTZ
  Basis Set: (AUG-CC-PVTZ AUX)
    Blend: AUG-CC-PVTZ-JKFIT

    Orbital Energies [Eh]
    ---------------------

    Doubly Occupied:

       1A    -20.501245     2A    -15.648351     3A    -15.613968
       4A    -15.540501     5A    -11.386359     6A    -11.367247
       7A    -11.308200     8A    -11.231261     9A     -1.377149
      10A     -1.350222    11A     -1.241474    12A     -1.178521
      13A     -1.055291    14A     -0.914196    15A     -0.876399
      16A     -0.804267    17A     -0.754496    18A     -0.723595
      19A     -0.678346    20A     -0.638966    21A     -0.635761
      22A     -0.608173    23A     -0.564053    24A     -0.548322
      25A     -0.455241    26A     -0.440187    27A     -0.427214
      28A     -0.409402    29A     -0.323236

  @DF-RHF Final Energy:  -392.72164504782393

   => Energetics <=

    Nuclear Repulsion Energy =            354.0319159357533181
    One-Electron Energy =               -1236.3038342250192727
    Two-Electron Energy =                 489.5502732414420279
    Total Energy =                       -392.7216450478239267
  Basis Set: (AUG-CC-PVTZ AUX)
    Blend: AUG-CC-PVTZ-RI
    Molecular point group: c1

    Geometry (in Angstrom), charge = 0, multiplicity = 1:

       Center              X                  Y                   Z               Mass
    ------------   -----------------  -----------------  -----------------  -----------------
         O           -2.185005152388    -1.165220186189     0.000148029916    15.994914619570
         N            0.074976847612    -0.906157186189    -0.000012970084    14.003074004430
         N            2.402932847612    -0.845202186189    -0.000517970084    14.003074004430
         N           -1.348881152388     1.005194813811     0.000232029916    14.003074004430
         C            1.362131047612    -0.153221086189    -0.000130570084    12.000000000000
         C            1.087060847612     1.200996813811    -0.000074970084    12.000000000000
         C           -1.249419152388    -0.372795186189     0.000168029916    12.000000000000
         C           -0.227274152388     1.704170813811     0.000065029916    12.000000000000
         H            0.099089847612    -1.922433186189    -0.000205970084     1.007825032230
         H            1.950934847612     1.854165813811    -0.000147970084     1.007825032230
         H           -0.359514152388     2.787369813811     0.000226029916     1.007825032230
         H            3.271980847612    -0.334323186189     0.000584029916     1.007825032230
         H            2.448633847612    -1.852565186189     0.001020029916     1.007825032230

  Basis Set: AUG-CC-PVTZ
    Blend: AUG-CC-PVTZ
  Basis Set: (AUG-CC-PVTZ AUX)
    Blend: AUG-CC-PVTZ-JKFIT
	 Reference Energy          =    -392.7216450478239267 [Eh]
	 Singles Energy            =      -0.0000000000000000 [Eh]
	 Same-Spin Energy          =      -0.4074380185388925 [Eh]
	 Opposite-Spin Energy      =      -1.2156678577018569 [Eh]
	 Correlation Energy        =      -1.6231058762407495 [Eh]
	 Total Energy              =    -394.3447509240646696 [Eh]

	 ================> DF-SCS-MP2 Energies <==================
	-----------------------------------------------------------
	 SCS Same-Spin Scale       =       0.3333333333333333 [-]
	 SCS Opposite-Spin Scale   =       1.2000000000000000 [-]
	 SCS Same-Spin Energy      =      -0.1358126728462975 [Eh]
	 SCS Opposite-Spin Energy  =      -1.4588014292422282 [Eh]
	 SCS Correlation Energy    =      -1.5946141020885256 [Eh]
	 SCS Total Energy          =    -394.3162591499124687 [Eh]
	-----------------------------------------------------------

  Dipole Moment: [D]
     X:     9.0452      Y:    -1.0291      Z:     0.0028     Total:     9.1035

*** Psi4 exiting successfully. Buy a developer a beer!
