                               Psi4 1.4a3.dev225

  ==> Input File <==

--------------------------------------------------------------------------
#psi4
#
memory 32 gb

molecule  {
0 1
  O        2.2358750    -1.1647400    -0.0019990
  N       -0.0266920    -0.9090020    -0.0014130
  N       -2.3606070    -0.8668920    -0.0783920
  N        1.3942980     1.0030250     0.0093070
  C       -1.1689180    -0.1740660     0.0003700
  C       -1.0400980     1.1965590     0.0002140
  C        1.2955060    -0.3793770     0.0033320
  C        0.2305785     1.6859128     0.0017313
  H       -0.0608440    -1.9231390    -0.0684580
  H       -1.9045160     1.8491770     0.0118680
  H        0.4106550     2.7868440     0.0040290
  H       -3.1798030    -0.3063160     0.1264620
  H       -2.3838550    -1.7605480     0.4013470
units angstrom
no_reorient  #important for SAPT in psi4, default
symmetry c1  #important for SAPT in psi4, default
}

set PROPERTIES_ORIGIN ["COM"]
properties('MP2/aug-cc-pvtz', properties = ['dipole'])
--------------------------------------------------------------------------

    Molecular point group: c1
  Charge       = 0
  Multiplicity = 1
  Basis Set: AUG-CC-PVTZ
    Blend: AUG-CC-PVTZ
  Basis Set: (AUG-CC-PVTZ AUX)
    Blend: AUG-CC-PVTZ-JKFIT

    Orbital Energies [Eh]
    ---------------------

    Doubly Occupied:

       1A    -20.507882     2A    -15.636862     3A    -15.631705
       4A    -15.548852     5A    -11.387681     6A    -11.374134
       7A    -11.310732     8A    -11.237600     9A     -1.389444
      10A     -1.325179    11A     -1.242046    12A     -1.196165
      13A     -1.070916    14A     -0.910922    15A     -0.881941
      16A     -0.780124    17A     -0.750926    18A     -0.715932
      19A     -0.687013    20A     -0.649822    21A     -0.634175
      22A     -0.621581    23A     -0.563593    24A     -0.547339
      25A     -0.463837    26A     -0.450556    27A     -0.448072
      28A     -0.417462    29A     -0.332745

  @DF-RHF Final Energy:  -392.74613733648465

   => Energetics <=

    Nuclear Repulsion Energy =            355.3334938718558078
    One-Electron Energy =               -1238.7287868316125241
    Two-Electron Energy =                 490.6491556232720654
    Total Energy =                       -392.7461373364846509
  Basis Set: (AUG-CC-PVTZ AUX)
    Blend: AUG-CC-PVTZ-RI
    Molecular point group: c1

    Geometry (in Angstrom), charge = 0, multiplicity = 1:

       Center              X                  Y                   Z               Mass
    ------------   -----------------  -----------------  -----------------  -----------------
         O            2.177444432392    -1.157057949498     0.002255450985    15.994914619570
         N           -0.085122567608    -0.901319949498     0.002841450985    14.003074004430
         N           -2.419037567608    -0.859209949498    -0.074137549015    14.003074004430
         N            1.335867432392     1.010707050502     0.013561450985    14.003074004430
         C           -1.227348567608    -0.166383949498     0.004624450985    12.000000000000
         C           -1.098528567608     1.204241050502     0.004468450985    12.000000000000
         C            1.237075432392    -0.371694949498     0.007586450985    12.000000000000
         C            0.172147932392     1.693594850502     0.005985750985    12.000000000000
         H           -0.119274567608    -1.915456949498    -0.064203549015     1.007825032230
         H           -1.962946567608     1.856859050502     0.016122450985     1.007825032230
         H            0.352224432392     2.794526050502     0.008283450985     1.007825032230
         H           -3.238233567608    -0.298633949498     0.130716450985     1.007825032230
         H           -2.442285567608    -1.752865949498     0.405601450985     1.007825032230

  Basis Set: AUG-CC-PVTZ
    Blend: AUG-CC-PVTZ
  Basis Set: (AUG-CC-PVTZ AUX)
    Blend: AUG-CC-PVTZ-JKFIT
	 Reference Energy          =    -392.7461373364846509 [Eh]
	 Singles Energy            =      -0.0000000000000000 [Eh]
	 Same-Spin Energy          =      -0.4076157016131490 [Eh]
	 Opposite-Spin Energy      =      -1.2158549503334415 [Eh]
	 Correlation Energy        =      -1.6234706519465905 [Eh]
	 Total Energy              =    -394.3696079884312553 [Eh]

	 ================> DF-SCS-MP2 Energies <==================
	-----------------------------------------------------------
	 SCS Same-Spin Scale       =       0.3333333333333333 [-]
	 SCS Opposite-Spin Scale   =       1.2000000000000000 [-]
	 SCS Same-Spin Energy      =      -0.1358719005377163 [Eh]
	 SCS Opposite-Spin Energy  =      -1.4590259404001298 [Eh]
	 SCS Correlation Energy    =      -1.5948978409378460 [Eh]
	 SCS Total Energy          =    -394.3410351774224978 [Eh]
	-----------------------------------------------------------

  Dipole Moment: [D]
     X:    -7.9195      Y:    -0.4923      Z:     0.8607     Total:     7.9813

*** Psi4 exiting successfully. Buy a developer a beer!
