                               Psi4 1.4a3.dev225

  ==> Input File <==

--------------------------------------------------------------------------
#psi4
#
memory 32 gb

molecule  {
0 1
  O        2.2358750    -1.1647400    -0.0019990
  N       -0.0266920    -0.9090020    -0.0014130
  N       -2.3606070    -0.8668920    -0.0783920
  N        1.3942980     1.0030250     0.0093070
  C       -1.1689180    -0.1740660     0.0003700
  C       -1.0447767     1.1467784     0.0002197
  C        1.2955060    -0.3793770     0.0033320
  C        0.2772380     1.7038820     0.0017870
  H       -0.0608440    -1.9231390    -0.0684580
  H       -1.9045160     1.8491770     0.0118680
  H        0.4106550     2.7868440     0.0040290
  H       -3.1798030    -0.3063160     0.1264620
  H       -2.3838550    -1.7605480     0.4013470
units angstrom
no_reorient  #important for SAPT in psi4, default
symmetry c1  #important for SAPT in psi4, default
}

set PROPERTIES_ORIGIN ["COM"]
properties('MP2/aug-cc-pvtz', properties = ['dipole'])
--------------------------------------------------------------------------

    Molecular point group: c1
  Charge       = 0
  Multiplicity = 1
  Basis Set: AUG-CC-PVTZ
    Blend: AUG-CC-PVTZ
  Basis Set: (AUG-CC-PVTZ AUX)
    Blend: AUG-CC-PVTZ-JKFIT

    Orbital Energies [Eh]
    ---------------------

    Doubly Occupied:

       1A    -20.514008     2A    -15.629535     3A    -15.620962
       4A    -15.557026     5A    -11.380087     6A    -11.369810
       7A    -11.318468     8A    -11.236228     9A     -1.392062
      10A     -1.322154    11A     -1.243805    12A     -1.200448
      13A     -1.064740    14A     -0.911928    15A     -0.880741
      16A     -0.773786    17A     -0.747902    18A     -0.714058
      19A     -0.687183    20A     -0.646263    21A     -0.630451
      22A     -0.619041    23A     -0.577481    24A     -0.547729
      25A     -0.463485    26A     -0.452880    27A     -0.447401
      28A     -0.420409    29A     -0.336166

  @DF-RHF Final Energy:  -392.74814906154057

   => Energetics <=

    Nuclear Repulsion Energy =            355.6613425146583154
    One-Electron Energy =               -1239.4065073329668394
    Two-Electron Energy =                 490.9970157567678939
    Total Energy =                       -392.7481490615405733
  Basis Set: (AUG-CC-PVTZ AUX)
    Blend: AUG-CC-PVTZ-RI
    Molecular point group: c1

    Geometry (in Angstrom), charge = 0, multiplicity = 1:

       Center              X                  Y                   Z               Mass
    ------------   -----------------  -----------------  -----------------  -----------------
         O            2.172907735686    -1.153620219069     0.002248815734    15.994914619570
         N           -0.089659264314    -0.897882219069     0.002834815734    14.003074004430
         N           -2.423574264314    -0.855772219069    -0.074144184266    14.003074004430
         N            1.331330735686     1.014144780931     0.013554815734    14.003074004430
         C           -1.231885264314    -0.162946219069     0.004617815734    12.000000000000
         C           -1.107743964314     1.157898180931     0.004467515734    12.000000000000
         C            1.232538735686    -0.368257219069     0.007579815734    12.000000000000
         C            0.214270735686     1.715001780931     0.006034815734    12.000000000000
         H           -0.123811264314    -1.912019219069    -0.064210184266     1.007825032230
         H           -1.967483264314     1.860296780931     0.016115815734     1.007825032230
         H            0.347687735686     2.797963780931     0.008276815734     1.007825032230
         H           -3.242770264314    -0.295196219069     0.130709815734     1.007825032230
         H           -2.446822264314    -1.749428219069     0.405594815734     1.007825032230

  Basis Set: AUG-CC-PVTZ
    Blend: AUG-CC-PVTZ
  Basis Set: (AUG-CC-PVTZ AUX)
    Blend: AUG-CC-PVTZ-JKFIT
	 Reference Energy          =    -392.7481490615405733 [Eh]
	 Singles Energy            =      -0.0000000000000000 [Eh]
	 Same-Spin Energy          =      -0.4065346355967669 [Eh]
	 Opposite-Spin Energy      =      -1.2149225162513373 [Eh]
	 Correlation Energy        =      -1.6214571518481042 [Eh]
	 Total Energy              =    -394.3696062133886926 [Eh]

	 ================> DF-SCS-MP2 Energies <==================
	-----------------------------------------------------------
	 SCS Same-Spin Scale       =       0.3333333333333333 [-]
	 SCS Opposite-Spin Scale   =       1.2000000000000000 [-]
	 SCS Same-Spin Energy      =      -0.1355115451989223 [Eh]
	 SCS Opposite-Spin Energy  =      -1.4579070195016046 [Eh]
	 SCS Correlation Energy    =      -1.5934185647005270 [Eh]
	 SCS Total Energy          =    -394.3415676262411012 [Eh]
	-----------------------------------------------------------

  Dipole Moment: [D]
     X:    -7.3788      Y:    -0.2204      Z:     0.8664     Total:     7.4328

*** Psi4 exiting successfully. Buy a developer a beer!
