                               Psi4 1.3.2 release

  ==> Input File <==

--------------------------------------------------------------------------
#psi4
#
memory 32 gb

molecule  {
0 1
  O       -2.2334690    -1.1675340     0.0001340
  N        0.0265130    -0.9084710    -0.0000270
  N        2.3544690    -0.8475160    -0.0005320
  N       -1.3181378     0.8894702     0.0002131
  C        1.1706060    -0.1768690    -0.0001310
  C        1.0385970     1.1986830    -0.0000890
  C       -1.2978830    -0.3751090     0.0001540
  C       -0.2757380     1.7018570     0.0000510
  H        0.0506260    -1.9247470    -0.0002200
  H        1.9024710     1.8518520    -0.0001620
  H       -0.4079780     2.7850560     0.0002120
  H        3.2235170    -0.3366370     0.0005700
  H        2.4001700    -1.8548790     0.0010060
units angstrom
no_reorient  #important for SAPT in psi4, default
symmetry c1  #important for SAPT in psi4, default
}

set PROPERTIES_ORIGIN ["COM"]
properties('MP2/aug-cc-pvtz', properties = ['dipole'])
--------------------------------------------------------------------------

    Molecular point group: c1
  Charge       = 0
  Multiplicity = 1
  Basis Set: AUG-CC-PVTZ
    Blend: AUG-CC-PVTZ
  Basis Set: (AUG-CC-PVTZ AUX)
    Blend: AUG-CC-PVTZ-JKFIT

    Orbital Energies [Eh]
    ---------------------

    Doubly Occupied:

       1A    -20.491964     2A    -15.629209     3A    -15.624445
       4A    -15.526576     5A    -11.384952     6A    -11.357714
       7A    -11.320395     8A    -11.235937     9A     -1.388989
      10A     -1.319145    11A     -1.254039    12A     -1.199934
      13A     -1.067637    14A     -0.927638    15A     -0.881354
      16A     -0.782374    17A     -0.763377    18A     -0.718421
      19A     -0.701948    20A     -0.641510    21A     -0.638691
      22A     -0.616195    23A     -0.578914    24A     -0.552891
      25A     -0.455832    26A     -0.437916    27A     -0.429643
      28A     -0.404603    29A     -0.328060

  @DF-RHF Final Energy:  -392.73973734699177

   => Energetics <=

    Nuclear Repulsion Energy =            358.6019393273573428
    One-Electron Energy =               -1245.3627475911600868
    Two-Electron Energy =                 494.0210709168110270
    Total Energy =                       -392.7397373469917738
  Basis Set: (AUG-CC-PVTZ AUX)
    Blend: AUG-CC-PVTZ-RI
    Molecular point group: c1

    Geometry (in Angstrom), charge = 0, multiplicity = 1:

       Center              X                  Y                   Z               Mass
    ------------   -----------------  -----------------  -----------------  -----------------
         O           -2.179533500106    -1.148613063924     0.000147178132    15.994914619570
         N            0.080448499894    -0.889550063924    -0.000013821868    14.003074004430
         N            2.408404499894    -0.828595063924    -0.000518821868    14.003074004430
         N           -1.264202300106     0.908391136076     0.000226278132    14.003074004430
         C            1.224541499894    -0.157948063924    -0.000117821868    12.000000000000
         C            1.092532499894     1.217603936076    -0.000075821868    12.000000000000
         C           -1.243947500106    -0.356188063924     0.000167178132    12.000000000000
         C           -0.221802500106     1.720777936076     0.000064178132    12.000000000000
         H            0.104561499894    -1.905826063924    -0.000206821868     1.007825032230
         H            1.956406499894     1.870772936076    -0.000148821868     1.007825032230
         H           -0.354042500106     2.803976936076     0.000225178132     1.007825032230
         H            3.277452499894    -0.317716063924     0.000583178132     1.007825032230
         H            2.454105499894    -1.835958063924     0.001019178132     1.007825032230

  Basis Set: AUG-CC-PVTZ
    Blend: AUG-CC-PVTZ
  Basis Set: (AUG-CC-PVTZ AUX)
    Blend: AUG-CC-PVTZ-JKFIT
	 Reference Energy          =    -392.7397373469917738 [Eh]
	 Singles Energy            =      -0.0000000000000000 [Eh]
	 Same-Spin Energy          =      -0.4077672669721216 [Eh]
	 Opposite-Spin Energy      =      -1.2126871217746982 [Eh]
	 Correlation Energy        =      -1.6204543887468197 [Eh]
	 Total Energy              =    -394.3601917357385673 [Eh]

	 ================> DF-SCS-MP2 Energies <==================
	-----------------------------------------------------------
	 SCS Same-Spin Scale       =       0.3333333333333333 [-]
	 SCS Opposite-Spin Scale   =       1.2000000000000000 [-]
	 SCS Same-Spin Energy      =      -0.1359224223240405 [Eh]
	 SCS Opposite-Spin Energy  =      -1.4552245461296378 [Eh]
	 SCS Correlation Energy    =      -1.5911469684536783 [Eh]
	 SCS Total Energy          =    -394.3308843154454735 [Eh]
	-----------------------------------------------------------

  Dipole Moment: [D]
     X:     8.3492      Y:    -0.3258      Z:     0.0030     Total:     8.3556

*** Psi4 exiting successfully. Buy a developer a beer!
