                               Psi4 1.3.2 release

  ==> Input File <==

--------------------------------------------------------------------------
#psi4
#
memory 32 gb

molecule  {
0 1
  O       -2.2334690    -1.1675340     0.0001340
  N        0.0265130    -0.9084710    -0.0000270
  N        2.3544690    -0.8475160    -0.0005320
  N       -1.3973450     1.0028810     0.0002180
  C        1.1706060    -0.1768690    -0.0001310
  C        1.0385970     1.1986830    -0.0000890
  C       -1.3156903    -0.4216547     0.0001463
  C       -0.2757380     1.7018570     0.0000510
  H        0.0506260    -1.9247470    -0.0002200
  H        1.9024710     1.8518520    -0.0001620
  H       -0.4079780     2.7850560     0.0002120
  H        3.2235170    -0.3366370     0.0005700
  H        2.4001700    -1.8548790     0.0010060
units angstrom
no_reorient  #important for SAPT in psi4, default
symmetry c1  #important for SAPT in psi4, default
}

set PROPERTIES_ORIGIN ["COM"]
properties('MP2/aug-cc-pvtz', properties = ['dipole'])
--------------------------------------------------------------------------

    Molecular point group: c1
  Charge       = 0
  Multiplicity = 1
  Basis Set: AUG-CC-PVTZ
    Blend: AUG-CC-PVTZ
  Basis Set: (AUG-CC-PVTZ AUX)
    Blend: AUG-CC-PVTZ-JKFIT

    Orbital Energies [Eh]
    ---------------------

    Doubly Occupied:

       1A    -20.521680     2A    -15.629160     3A    -15.625992
       4A    -15.542740     5A    -11.380881     6A    -11.376458
       7A    -11.302325     8A    -11.227571     9A     -1.412875
      10A     -1.329087    11A     -1.239128    12A     -1.190063
      13A     -1.052055    14A     -0.902613    15A     -0.881107
      16A     -0.782135    17A     -0.746543    18A     -0.718560
      19A     -0.689132    20A     -0.638522    21A     -0.637971
      22A     -0.628246    23A     -0.570981    24A     -0.554706
      25A     -0.460940    26A     -0.460267    27A     -0.444758
      28A     -0.406277    29A     -0.321728

  @DF-RHF Final Energy:  -392.74926324641717

   => Energetics <=

    Nuclear Repulsion Energy =            355.0776432880844595
    One-Electron Energy =               -1238.3048168701959639
    Two-Electron Energy =                 490.4779103356943324
    Total Energy =                       -392.7492632464171720
  Basis Set: (AUG-CC-PVTZ AUX)
    Blend: AUG-CC-PVTZ-RI
    Molecular point group: c1

    Geometry (in Angstrom), charge = 0, multiplicity = 1:

       Center              X                  Y                   Z               Mass
    ------------   -----------------  -----------------  -----------------  -----------------
         O           -2.167620738702    -1.157884688413     0.000147392327    15.994914619570
         N            0.092361261298    -0.898821688413    -0.000013607673    14.003074004430
         N            2.420317261298    -0.837866688413    -0.000518607673    14.003074004430
         N           -1.331496738702     1.012530311587     0.000231392327    14.003074004430
         C            1.236454261298    -0.167219688413    -0.000117607673    12.000000000000
         C            1.104445261298     1.208332311587    -0.000075607673    12.000000000000
         C           -1.249842038702    -0.412005388413     0.000159692327    12.000000000000
         C           -0.209889738702     1.711506311587     0.000064392327    12.000000000000
         H            0.116474261298    -1.915097688413    -0.000206607673     1.007825032230
         H            1.968319261298     1.861501311587    -0.000148607673     1.007825032230
         H           -0.342129738702     2.794705311587     0.000225392327     1.007825032230
         H            3.289365261298    -0.326987688413     0.000583392327     1.007825032230
         H            2.466018261298    -1.845229688413     0.001019392327     1.007825032230

  Basis Set: AUG-CC-PVTZ
    Blend: AUG-CC-PVTZ
  Basis Set: (AUG-CC-PVTZ AUX)
    Blend: AUG-CC-PVTZ-JKFIT
	 Reference Energy          =    -392.7492632464171720 [Eh]
	 Singles Energy            =      -0.0000000000000000 [Eh]
	 Same-Spin Energy          =      -0.4061115251478483 [Eh]
	 Opposite-Spin Energy      =      -1.2133283659021148 [Eh]
	 Correlation Energy        =      -1.6194398910499630 [Eh]
	 Total Energy              =    -394.3687031374671506 [Eh]

	 ================> DF-SCS-MP2 Energies <==================
	-----------------------------------------------------------
	 SCS Same-Spin Scale       =       0.3333333333333333 [-]
	 SCS Opposite-Spin Scale   =       1.2000000000000000 [-]
	 SCS Same-Spin Energy      =      -0.1353705083826161 [Eh]
	 SCS Opposite-Spin Energy  =      -1.4559940390825377 [Eh]
	 SCS Correlation Energy    =      -1.5913645474651537 [Eh]
	 SCS Total Energy          =    -394.3406277938823337 [Eh]
	-----------------------------------------------------------

  Dipole Moment: [D]
     X:     7.7305      Y:    -1.1991      Z:     0.0030     Total:     7.8229

*** Psi4 exiting successfully. Buy a developer a beer!
