                               Psi4 1.3.2 release

  ==> Input File <==

--------------------------------------------------------------------------
#psi4
#
memory 32 gb

molecule  {
0 1
  O       -2.2334690    -1.1675340     0.0001340
  N        0.0265130    -0.9084710    -0.0000270
  N        2.3771531    -0.8057912    -0.0005398
  N       -1.3973450     1.0028810     0.0002180
  C        1.1706060    -0.1768690    -0.0001310
  C        1.0385970     1.1986830    -0.0000890
  C       -1.2978830    -0.3751090     0.0001540
  C       -0.2757380     1.7018570     0.0000510
  H        0.0506260    -1.9247470    -0.0002200
  H        1.9024710     1.8518520    -0.0001620
  H       -0.4079780     2.7850560     0.0002120
  H        3.2235170    -0.3366370     0.0005700
  H        2.4001700    -1.8548790     0.0010060
units angstrom
no_reorient  #important for SAPT in psi4, default
symmetry c1  #important for SAPT in psi4, default
}

set PROPERTIES_ORIGIN ["COM"]
properties('MP2/aug-cc-pvtz', properties = ['dipole'])
--------------------------------------------------------------------------

    Molecular point group: c1
  Charge       = 0
  Multiplicity = 1
  Basis Set: AUG-CC-PVTZ
    Blend: AUG-CC-PVTZ
  Basis Set: (AUG-CC-PVTZ AUX)
    Blend: AUG-CC-PVTZ-JKFIT

    Orbital Energies [Eh]
    ---------------------

    Doubly Occupied:

       1A    -20.509731     2A    -15.634010     3A    -15.629337
       4A    -15.545309     5A    -11.384362     6A    -11.376365
       7A    -11.308059     8A    -11.231122     9A     -1.389035
      10A     -1.323044    11A     -1.243785    12A     -1.200508
      13A     -1.056407    14A     -0.909291    15A     -0.886350
      16A     -0.778611    17A     -0.756771    18A     -0.728444
      19A     -0.688045    20A     -0.638832    21A     -0.634191
      22A     -0.620026    23A     -0.568497    24A     -0.548249
      25A     -0.459890    26A     -0.447730    27A     -0.443359
      28A     -0.415379    29A     -0.324782

  @DF-RHF Final Energy:  -392.74766009208008

   => Energetics <=

    Nuclear Repulsion Energy =            355.1271978050909865
    One-Electron Energy =               -1238.3906728344156818
    Two-Electron Energy =                 490.5158149372446132
    Total Energy =                       -392.7476600920800820
  Basis Set: (AUG-CC-PVTZ AUX)
    Blend: AUG-CC-PVTZ-RI
    Molecular point group: c1

    Geometry (in Angstrom), charge = 0, multiplicity = 1:

       Center              X                  Y                   Z               Mass
    ------------   -----------------  -----------------  -----------------  -----------------
         O           -2.172405673172    -1.168176387736     0.000147543835    15.994914619570
         N            0.087576326828    -0.909113387736    -0.000013456165    14.003074004430
         N            2.438216426828    -0.806433587736    -0.000526256165    14.003074004430
         N           -1.336281673172     1.002238612264     0.000231543835    14.003074004430
         C            1.231669326828    -0.177511387736    -0.000117456165    12.000000000000
         C            1.099660326828     1.198040612264    -0.000075456165    12.000000000000
         C           -1.236819673172    -0.375751387736     0.000167543835    12.000000000000
         C           -0.214674673172     1.701214612264     0.000064543835    12.000000000000
         H            0.111689326828    -1.925389387736    -0.000206456165     1.007825032230
         H            1.963534326828     1.851209612264    -0.000148456165     1.007825032230
         H           -0.346914673172     2.784413612264     0.000225543835     1.007825032230
         H            3.284580326828    -0.337279387736     0.000583543835     1.007825032230
         H            2.461233326828    -1.855521387736     0.001019543835     1.007825032230

  Basis Set: AUG-CC-PVTZ
    Blend: AUG-CC-PVTZ
  Basis Set: (AUG-CC-PVTZ AUX)
    Blend: AUG-CC-PVTZ-JKFIT
	 Reference Energy          =    -392.7476600920800820 [Eh]
	 Singles Energy            =      -0.0000000000000000 [Eh]
	 Same-Spin Energy          =      -0.4069167152039025 [Eh]
	 Opposite-Spin Energy      =      -1.2142399778518247 [Eh]
	 Correlation Energy        =      -1.6211566930557273 [Eh]
	 Total Energy              =    -394.3688167851358344 [Eh]

	 ================> DF-SCS-MP2 Energies <==================
	-----------------------------------------------------------
	 SCS Same-Spin Scale       =       0.3333333333333333 [-]
	 SCS Opposite-Spin Scale   =       1.2000000000000000 [-]
	 SCS Same-Spin Energy      =      -0.1356389050679675 [Eh]
	 SCS Opposite-Spin Energy  =      -1.4570879734221895 [Eh]
	 SCS Correlation Energy    =      -1.5927268784901569 [Eh]
	 SCS Total Energy          =    -394.3403869705702505 [Eh]
	-----------------------------------------------------------

  Dipole Moment: [D]
     X:     8.1254      Y:    -0.9193      Z:     0.0030     Total:     8.1772

*** Psi4 exiting successfully. Buy a developer a beer!
