                               Psi4 1.3.2 release

  ==> Input File <==

--------------------------------------------------------------------------
#psi4
#
memory 32 gb

molecule  {
0 1
  O       -2.2334690    -1.1675340     0.0001340
  N        0.0265130    -0.9084710    -0.0000270
  N        2.3544690    -0.8475160    -0.0005320
  N       -1.3973450     1.0028810     0.0002180
  C        1.1706060    -0.1768690    -0.0001310
  C        1.0471784     1.2216979    -0.0000862
  C       -1.2978830    -0.3751090     0.0001540
  C       -0.2757380     1.7018570     0.0000510
  H        0.0506260    -1.9247470    -0.0002200
  H        1.9024710     1.8518520    -0.0001620
  H       -0.4079780     2.7850560     0.0002120
  H        3.2235170    -0.3366370     0.0005700
  H        2.4001700    -1.8548790     0.0010060
units angstrom
no_reorient  #important for SAPT in psi4, default
symmetry c1  #important for SAPT in psi4, default
}

set PROPERTIES_ORIGIN ["COM"]
properties('MP2/aug-cc-pvtz', properties = ['dipole'])
--------------------------------------------------------------------------

    Molecular point group: c1
  Charge       = 0
  Multiplicity = 1
  Basis Set: AUG-CC-PVTZ
    Blend: AUG-CC-PVTZ
  Basis Set: (AUG-CC-PVTZ AUX)
    Blend: AUG-CC-PVTZ-JKFIT

    Orbital Energies [Eh]
    ---------------------

    Doubly Occupied:

       1A    -20.509279     2A    -15.633786     3A    -15.630854
       4A    -15.544398     5A    -11.388133     6A    -11.375551
       7A    -11.307662     8A    -11.233092     9A     -1.388701
      10A     -1.323635    11A     -1.242852    12A     -1.199104
      13A     -1.055035    14A     -0.908344    15A     -0.884309
      16A     -0.784945    17A     -0.754576    18A     -0.723065
      19A     -0.690235    20A     -0.638658    21A     -0.638094
      22A     -0.621060    23A     -0.568167    24A     -0.547959
      25A     -0.459769    26A     -0.447497    27A     -0.442554
      28A     -0.414621    29A     -0.324181

  @DF-RHF Final Energy:  -392.75041151000528

   => Energetics <=

    Nuclear Repulsion Energy =            354.7527765912375344
    One-Electron Energy =               -1237.6461479729448456
    Two-Electron Energy =                 490.1429598717020326
    Total Energy =                       -392.7504115100052786
  Basis Set: (AUG-CC-PVTZ AUX)
    Blend: AUG-CC-PVTZ-RI
    Molecular point group: c1

    Geometry (in Angstrom), charge = 0, multiplicity = 1:

       Center              X                  Y                   Z               Mass
    ------------   -----------------  -----------------  -----------------  -----------------
         O           -2.170472459688    -1.165401823505     0.000146257634    15.994914619570
         N            0.089509540312    -0.906338823505    -0.000014742366    14.003074004430
         N            2.417465540312    -0.845383823505    -0.000519742366    14.003074004430
         N           -1.334348459688     1.005013176495     0.000230257634    14.003074004430
         C            1.233602540312    -0.174736823505    -0.000118742366    12.000000000000
         C            1.110174940312     1.223830076495    -0.000073942366    12.000000000000
         C           -1.234886459688    -0.372976823505     0.000166257634    12.000000000000
         C           -0.212741459688     1.703989176495     0.000063257634    12.000000000000
         H            0.113622540312    -1.922614823505    -0.000207742366     1.007825032230
         H            1.965467540312     1.853984176495    -0.000149742366     1.007825032230
         H           -0.344981459688     2.787188176495     0.000224257634     1.007825032230
         H            3.286513540312    -0.334504823505     0.000582257634     1.007825032230
         H            2.463166540312    -1.852746823505     0.001018257634     1.007825032230

  Basis Set: AUG-CC-PVTZ
    Blend: AUG-CC-PVTZ
  Basis Set: (AUG-CC-PVTZ AUX)
    Blend: AUG-CC-PVTZ-JKFIT
	 Reference Energy          =    -392.7504115100052786 [Eh]
	 Singles Energy            =      -0.0000000000000000 [Eh]
	 Same-Spin Energy          =      -0.4067792341459367 [Eh]
	 Opposite-Spin Energy      =      -1.2140279195620933 [Eh]
	 Correlation Energy        =      -1.6208071537080300 [Eh]
	 Total Energy              =    -394.3712186637133073 [Eh]

	 ================> DF-SCS-MP2 Energies <==================
	-----------------------------------------------------------
	 SCS Same-Spin Scale       =       0.3333333333333333 [-]
	 SCS Opposite-Spin Scale   =       1.2000000000000000 [-]
	 SCS Same-Spin Energy      =      -0.1355930780486456 [Eh]
	 SCS Opposite-Spin Energy  =      -1.4568335034745119 [Eh]
	 SCS Correlation Energy    =      -1.5924265815231575 [Eh]
	 SCS Total Energy          =    -394.3428380915284492 [Eh]
	-----------------------------------------------------------

  Dipole Moment: [D]
     X:     8.2014      Y:    -0.9437      Z:     0.0030     Total:     8.2556

*** Psi4 exiting successfully. Buy a developer a beer!
