                               Psi4 1.3.2 release

  ==> Input File <==

--------------------------------------------------------------------------
#psi4
#
memory 32 gb

molecule  {
0 1
  O       -2.2334690    -1.1675340     0.0001340
  N        0.0265130    -0.9084710    -0.0000270
  N        2.3544690    -0.8475160    -0.0005320
  N       -1.3973450     1.0028810     0.0002180
  C        1.1706060    -0.1768690    -0.0001310
  C        1.0385970     1.1986830    -0.0000890
  C       -1.2784621    -0.3292132     0.0001615
  C       -0.2757380     1.7018570     0.0000510
  H        0.0506260    -1.9247470    -0.0002200
  H        1.9024710     1.8518520    -0.0001620
  H       -0.4079780     2.7850560     0.0002120
  H        3.2235170    -0.3366370     0.0005700
  H        2.4001700    -1.8548790     0.0010060
units angstrom
no_reorient  #important for SAPT in psi4, default
symmetry c1  #important for SAPT in psi4, default
}

set PROPERTIES_ORIGIN ["COM"]
properties('MP2/aug-cc-pvtz', properties = ['dipole'])
--------------------------------------------------------------------------

    Molecular point group: c1
  Charge       = 0
  Multiplicity = 1
  Basis Set: AUG-CC-PVTZ
    Blend: AUG-CC-PVTZ
  Basis Set: (AUG-CC-PVTZ AUX)
    Blend: AUG-CC-PVTZ-JKFIT

    Orbital Energies [Eh]
    ---------------------

    Doubly Occupied:

       1A    -20.496227     2A    -15.635184     3A    -15.632103
       4A    -15.548239     5A    -11.387633     6A    -11.373871
       7A    -11.315421     8A    -11.237903     9A     -1.376267
      10A     -1.311815    11A     -1.244597    12A     -1.206859
      13A     -1.063083    14A     -0.917512    15A     -0.884811
      16A     -0.786807    17A     -0.760264    18A     -0.725118
      19A     -0.694347    20A     -0.642206    21A     -0.640074
      22A     -0.610581    23A     -0.562178    24A     -0.544868
      25A     -0.460895    26A     -0.438465    27A     -0.435595
      28A     -0.418224    29A     -0.328706

  @DF-RHF Final Energy:  -392.74532748241074

   => Energetics <=

    Nuclear Repulsion Energy =            355.3802785997605156
    One-Electron Energy =               -1238.8915055104750991
    Two-Electron Energy =                 490.7658994283038965
    Total Energy =                       -392.7453274824107439
  Basis Set: (AUG-CC-PVTZ AUX)
    Blend: AUG-CC-PVTZ-RI
    Molecular point group: c1

    Geometry (in Angstrom), charge = 0, multiplicity = 1:

       Center              X                  Y                   Z               Mass
    ------------   -----------------  -----------------  -----------------  -----------------
         O           -2.171643840985    -1.167874470612     0.000145749724    15.994914619570
         N            0.088338159015    -0.908811470612    -0.000015250276    14.003074004430
         N            2.416294159015    -0.847856470612    -0.000520250276    14.003074004430
         N           -1.335519840985     1.002540529388     0.000229749724    14.003074004430
         C            1.232431159015    -0.177209470612    -0.000119250276    12.000000000000
         C            1.100422159015     1.198342529388    -0.000077250276    12.000000000000
         C           -1.216636940985    -0.329553670612     0.000173249724    12.000000000000
         C           -0.213912840985     1.701516529388     0.000062749724    12.000000000000
         H            0.112451159015    -1.925087470612    -0.000208250276     1.007825032230
         H            1.964296159015     1.851511529388    -0.000150250276     1.007825032230
         H           -0.346152840985     2.784715529388     0.000223749724     1.007825032230
         H            3.285342159015    -0.336977470612     0.000581749724     1.007825032230
         H            2.461995159015    -1.855219470612     0.001017749724     1.007825032230

  Basis Set: AUG-CC-PVTZ
    Blend: AUG-CC-PVTZ
  Basis Set: (AUG-CC-PVTZ AUX)
    Blend: AUG-CC-PVTZ-JKFIT
	 Reference Energy          =    -392.7453274824107439 [Eh]
	 Singles Energy            =      -0.0000000000000000 [Eh]
	 Same-Spin Energy          =      -0.4076598219615928 [Eh]
	 Opposite-Spin Energy      =      -1.2150828427914349 [Eh]
	 Correlation Energy        =      -1.6227426647530276 [Eh]
	 Total Energy              =    -394.3680701471637917 [Eh]

	 ================> DF-SCS-MP2 Energies <==================
	-----------------------------------------------------------
	 SCS Same-Spin Scale       =       0.3333333333333333 [-]
	 SCS Opposite-Spin Scale   =       1.2000000000000000 [-]
	 SCS Same-Spin Energy      =      -0.1358866073205309 [Eh]
	 SCS Opposite-Spin Energy  =      -1.4580994113497219 [Eh]
	 SCS Correlation Energy    =      -1.5939860186702528 [Eh]
	 SCS Total Energy          =    -394.3393135010809942 [Eh]
	-----------------------------------------------------------

  Dipole Moment: [D]
     X:     8.5530      Y:    -0.5433      Z:     0.0030     Total:     8.5702

*** Psi4 exiting successfully. Buy a developer a beer!
