                               Psi4 1.3.2 release

  ==> Input File <==

--------------------------------------------------------------------------
#psi4
#
memory 32 gb

molecule  {
0 1
  O       -2.2334690    -1.1675340     0.0001340
  N        0.0265130    -0.9084710    -0.0000270
  N        2.3544690    -0.8475160    -0.0005320
  N       -1.3973450     1.0028810     0.0002180
  C        1.1706060    -0.1768690    -0.0001310
  C        1.0385970     1.1986830    -0.0000890
  C       -1.3122814    -0.1756280     0.0001633
  C       -0.2757380     1.7018570     0.0000510
  H        0.0506260    -1.9247470    -0.0002200
  H        1.9024710     1.8518520    -0.0001620
  H       -0.4079780     2.7850560     0.0002120
  H        3.2235170    -0.3366370     0.0005700
  H        2.4001700    -1.8548790     0.0010060
units angstrom
no_reorient  #important for SAPT in psi4, default
symmetry c1  #important for SAPT in psi4, default
}

set PROPERTIES_ORIGIN ["COM"]
properties('MP2/aug-cc-pvtz', properties = ['dipole'])
--------------------------------------------------------------------------

    Molecular point group: c1
  Charge       = 0
  Multiplicity = 1
  Basis Set: AUG-CC-PVTZ
    Blend: AUG-CC-PVTZ
  Basis Set: (AUG-CC-PVTZ AUX)
    Blend: AUG-CC-PVTZ-JKFIT

    Orbital Energies [Eh]
    ---------------------

    Doubly Occupied:

       1A    -20.466576     2A    -15.636176     3A    -15.626285
       4A    -15.548060     5A    -11.391663     6A    -11.363784
       7A    -11.336909     8A    -11.252573     9A     -1.372929
      10A     -1.310393    11A     -1.236368    12A     -1.199561
      13A     -1.078268    14A     -0.944933    15A     -0.868516
      16A     -0.784048    17A     -0.778076    18A     -0.714641
      19A     -0.700777    20A     -0.656353    21A     -0.638910
      22A     -0.611074    23A     -0.559398    24A     -0.542883
      25A     -0.452767    26A     -0.437380    27A     -0.424029
      28A     -0.389278    29A     -0.333765

  @DF-RHF Final Energy:  -392.68687483208447

   => Energetics <=

    Nuclear Repulsion Energy =            355.6969736683525980
    One-Electron Energy =               -1239.4549564051530979
    Two-Electron Energy =                 491.0711079047160297
    Total Energy =                       -392.6868748320844702
  Basis Set: (AUG-CC-PVTZ AUX)
    Blend: AUG-CC-PVTZ-RI
    Molecular point group: c1

    Geometry (in Angstrom), charge = 0, multiplicity = 1:

       Center              X                  Y                   Z               Mass
    ------------   -----------------  -----------------  -----------------  -----------------
         O           -2.167989124855    -1.184471807273     0.000145555205    15.994914619570
         N            0.091992875145    -0.925408807273    -0.000015444795    14.003074004430
         N            2.419948875145    -0.864453807273    -0.000520444795    14.003074004430
         N           -1.331865124855     0.985943192727     0.000229555205    14.003074004430
         C            1.236085875145    -0.193806807273    -0.000119444795    12.000000000000
         C            1.104076875145     1.181745192727    -0.000077444795    12.000000000000
         C           -1.246801524855    -0.192565807273     0.000174855205    12.000000000000
         C           -0.210258124855     1.684919192727     0.000062555205    12.000000000000
         H            0.116105875145    -1.941684807273    -0.000208444795     1.007825032230
         H            1.967950875145     1.834914192727    -0.000150444795     1.007825032230
         H           -0.342498124855     2.768118192727     0.000223555205     1.007825032230
         H            3.288996875145    -0.353574807273     0.000581555205     1.007825032230
         H            2.465649875145    -1.871816807273     0.001017555205     1.007825032230

  Basis Set: AUG-CC-PVTZ
    Blend: AUG-CC-PVTZ
  Basis Set: (AUG-CC-PVTZ AUX)
    Blend: AUG-CC-PVTZ-JKFIT
	 Reference Energy          =    -392.6868748320844702 [Eh]
	 Singles Energy            =      -0.0000000000000000 [Eh]
	 Same-Spin Energy          =      -0.4094306900661921 [Eh]
	 Opposite-Spin Energy      =      -1.2178519827527328 [Eh]
	 Correlation Energy        =      -1.6272826728189249 [Eh]
	 Total Energy              =    -394.3141575049033918 [Eh]

	 ================> DF-SCS-MP2 Energies <==================
	-----------------------------------------------------------
	 SCS Same-Spin Scale       =       0.3333333333333333 [-]
	 SCS Opposite-Spin Scale   =       1.2000000000000000 [-]
	 SCS Same-Spin Energy      =      -0.1364768966887307 [Eh]
	 SCS Opposite-Spin Energy  =      -1.4614223793032792 [Eh]
	 SCS Correlation Energy    =      -1.5978992759920099 [Eh]
	 SCS Total Energy          =    -394.2847741080764763 [Eh]
	-----------------------------------------------------------

  Dipole Moment: [D]
     X:     9.2489      Y:     0.4148      Z:     0.0029     Total:     9.2582

*** Psi4 exiting successfully. Buy a developer a beer!
