                               Psi4 1.3.2 release

  ==> Input File <==

--------------------------------------------------------------------------
#psi4
#
memory 32 gb

molecule  {
0 1
  O       -2.2052438    -1.1997028     0.0001275
  N        0.0265130    -0.9084710    -0.0000270
  N        2.3544690    -0.8475160    -0.0005320
  N       -1.3973450     1.0028810     0.0002180
  C        1.1706060    -0.1768690    -0.0001310
  C        1.0385970     1.1986830    -0.0000890
  C       -1.2978830    -0.3751090     0.0001540
  C       -0.2757380     1.7018570     0.0000510
  H        0.0506260    -1.9247470    -0.0002200
  H        1.9024710     1.8518520    -0.0001620
  H       -0.4079780     2.7850560     0.0002120
  H        3.2235170    -0.3366370     0.0005700
  H        2.4001700    -1.8548790     0.0010060
units angstrom
no_reorient  #important for SAPT in psi4, default
symmetry c1  #important for SAPT in psi4, default
}

set PROPERTIES_ORIGIN ["COM"]
properties('MP2/aug-cc-pvtz', properties = ['dipole'])
--------------------------------------------------------------------------

    Molecular point group: c1
  Charge       = 0
  Multiplicity = 1
  Basis Set: AUG-CC-PVTZ
    Blend: AUG-CC-PVTZ
  Basis Set: (AUG-CC-PVTZ AUX)
    Blend: AUG-CC-PVTZ-JKFIT

    Orbital Energies [Eh]
    ---------------------

    Doubly Occupied:

       1A    -20.509242     2A    -15.630075     3A    -15.628711
       4A    -15.546817     5A    -11.383624     6A    -11.376045
       7A    -11.309969     8A    -11.232602     9A     -1.389468
      10A     -1.322435    11A     -1.243014    12A     -1.198724
      13A     -1.057593    14A     -0.909794    15A     -0.882805
      16A     -0.783865    17A     -0.752650    18A     -0.721515
      19A     -0.691409    20A     -0.638103    21A     -0.637164
      22A     -0.619885    23A     -0.569725    24A     -0.547861
      25A     -0.461061    26A     -0.449268    27A     -0.440797
      28A     -0.414819    29A     -0.326111

  @DF-RHF Final Energy:  -392.75112604314808

   => Energetics <=

    Nuclear Repulsion Energy =            355.3115900212498559
    One-Electron Energy =               -1238.7751343389284102
    Two-Electron Energy =                 490.7124182745304211
    Total Energy =                       -392.7511260431480764
  Basis Set: (AUG-CC-PVTZ AUX)
    Blend: AUG-CC-PVTZ-RI
    Molecular point group: c1

    Geometry (in Angstrom), charge = 0, multiplicity = 1:

       Center              X                  Y                   Z               Mass
    ------------   -----------------  -----------------  -----------------  -----------------
         O           -2.145385521826    -1.190449831152     0.000140996493    15.994914619570
         N            0.086371278174    -0.899218031152    -0.000013503507    14.003074004430
         N            2.414327278174    -0.838263031152    -0.000518503507    14.003074004430
         N           -1.337486721826     1.012133968848     0.000231496493    14.003074004430
         C            1.230464278174    -0.167616031152    -0.000117503507    12.000000000000
         C            1.098455278174     1.207935968848    -0.000075503507    12.000000000000
         C           -1.238024721826    -0.365856031152     0.000167496493    12.000000000000
         C           -0.215879721826     1.711109968848     0.000064496493    12.000000000000
         H            0.110484278174    -1.915494031152    -0.000206503507     1.007825032230
         H            1.962329278174     1.861104968848    -0.000148503507     1.007825032230
         H           -0.348119721826     2.794308968848     0.000225496493     1.007825032230
         H            3.283375278174    -0.327384031152     0.000583496493     1.007825032230
         H            2.460028278174    -1.845626031152     0.001019496493     1.007825032230

  Basis Set: AUG-CC-PVTZ
    Blend: AUG-CC-PVTZ
  Basis Set: (AUG-CC-PVTZ AUX)
    Blend: AUG-CC-PVTZ-JKFIT
	 Reference Energy          =    -392.7511260431480764 [Eh]
	 Singles Energy            =      -0.0000000000000000 [Eh]
	 Same-Spin Energy          =      -0.4068340378227470 [Eh]
	 Opposite-Spin Energy      =      -1.2139564608928068 [Eh]
	 Correlation Energy        =      -1.6207904987155537 [Eh]
	 Total Energy              =    -394.3719165418636408 [Eh]

	 ================> DF-SCS-MP2 Energies <==================
	-----------------------------------------------------------
	 SCS Same-Spin Scale       =       0.3333333333333333 [-]
	 SCS Opposite-Spin Scale   =       1.2000000000000000 [-]
	 SCS Same-Spin Energy      =      -0.1356113459409156 [Eh]
	 SCS Opposite-Spin Energy  =      -1.4567477530713682 [Eh]
	 SCS Correlation Energy    =      -1.5923590990122838 [Eh]
	 SCS Total Energy          =    -394.3434851421603753 [Eh]
	-----------------------------------------------------------

  Dipole Moment: [D]
     X:     8.1033      Y:    -0.8013      Z:     0.0030     Total:     8.1428

*** Psi4 exiting successfully. Buy a developer a beer!
