                               Psi4 1.3.2 release

  ==> Input File <==

--------------------------------------------------------------------------
#psi4
#
memory 32 gb

molecule  {
0 1
  O       -2.2334690    -1.1675340     0.0001340
  N        0.0265130    -0.9084710    -0.0000270
  N        2.3544690    -0.8475160    -0.0005320
  N       -1.3973450     1.0028810     0.0002180
  C        1.1706060    -0.1768690    -0.0001310
  C        1.0385970     1.1986830    -0.0000890
  C       -1.2978830    -0.3751090     0.0001540
  C       -0.1823479     1.6661039     0.0000411
  H        0.0506260    -1.9247470    -0.0002200
  H        1.9024710     1.8518520    -0.0001620
  H       -0.4079780     2.7850560     0.0002120
  H        3.2235170    -0.3366370     0.0005700
  H        2.4001700    -1.8548790     0.0010060
units angstrom
no_reorient  #important for SAPT in psi4, default
symmetry c1  #important for SAPT in psi4, default
}

set PROPERTIES_ORIGIN ["COM"]
properties('MP2/aug-cc-pvtz', properties = ['dipole'])
--------------------------------------------------------------------------

    Molecular point group: c1
  Charge       = 0
  Multiplicity = 1
  Basis Set: AUG-CC-PVTZ
    Blend: AUG-CC-PVTZ
  Basis Set: (AUG-CC-PVTZ AUX)
    Blend: AUG-CC-PVTZ-JKFIT

    Orbital Energies [Eh]
    ---------------------

    Doubly Occupied:

       1A    -20.499437     2A    -15.639473     3A    -15.636744
       4A    -15.538462     5A    -11.396555     6A    -11.365735
       7A    -11.302667     8A    -11.232746     9A     -1.384779
      10A     -1.327331    11A     -1.241186    12A     -1.186311
      13A     -1.079112    14A     -0.917581    15A     -0.876199
      16A     -0.792079    17A     -0.755332    18A     -0.723027
      19A     -0.689490    20A     -0.647989    21A     -0.642630
      22A     -0.614914    23A     -0.546953    24A     -0.545008
      25A     -0.461924    26A     -0.443015    27A     -0.442273
      28A     -0.411463    29A     -0.327719

  @DF-RHF Final Energy:  -392.73479488905099

   => Energetics <=

    Nuclear Repulsion Energy =            355.9540493268062278
    One-Electron Energy =               -1240.0414183086186313
    Two-Electron Energy =                 491.3525740927614720
    Total Energy =                       -392.7347948890509883
  Basis Set: (AUG-CC-PVTZ AUX)
    Blend: AUG-CC-PVTZ-RI
    Molecular point group: c1

    Geometry (in Angstrom), charge = 0, multiplicity = 1:

       Center              X                  Y                   Z               Mass
    ------------   -----------------  -----------------  -----------------  -----------------
         O           -2.179637395800    -1.159051001415     0.000147630072    15.994914619570
         N            0.080344604200    -0.899988001415    -0.000013369928    14.003074004430
         N            2.408300604200    -0.839033001415    -0.000518369928    14.003074004430
         N           -1.343513395800     1.011363998585     0.000231630072    14.003074004430
         C            1.224437604200    -0.168386001415    -0.000117369928    12.000000000000
         C            1.092428604200     1.207165998585    -0.000075369928    12.000000000000
         C           -1.244051395800    -0.366626001415     0.000167630072    12.000000000000
         C           -0.128516295800     1.674586898585     0.000054730072    12.000000000000
         H            0.104457604200    -1.916264001415    -0.000206369928     1.007825032230
         H            1.956302604200     1.860334998585    -0.000148369928     1.007825032230
         H           -0.354146395800     2.793538998585     0.000225630072     1.007825032230
         H            3.277348604200    -0.328154001415     0.000583630072     1.007825032230
         H            2.454001604200    -1.846396001415     0.001019630072     1.007825032230

  Basis Set: AUG-CC-PVTZ
    Blend: AUG-CC-PVTZ
  Basis Set: (AUG-CC-PVTZ AUX)
    Blend: AUG-CC-PVTZ-JKFIT
	 Reference Energy          =    -392.7347948890509883 [Eh]
	 Singles Energy            =      -0.0000000000000000 [Eh]
	 Same-Spin Energy          =      -0.4081485272811017 [Eh]
	 Opposite-Spin Energy      =      -1.2158347324801086 [Eh]
	 Correlation Energy        =      -1.6239832597612103 [Eh]
	 Total Energy              =    -394.3587781488121777 [Eh]

	 ================> DF-SCS-MP2 Energies <==================
	-----------------------------------------------------------
	 SCS Same-Spin Scale       =       0.3333333333333333 [-]
	 SCS Opposite-Spin Scale   =       1.2000000000000000 [-]
	 SCS Same-Spin Energy      =      -0.1360495090937006 [Eh]
	 SCS Opposite-Spin Energy  =      -1.4590016789761304 [Eh]
	 SCS Correlation Energy    =      -1.5950511880698310 [Eh]
	 SCS Total Energy          =    -394.3298460771208056 [Eh]
	-----------------------------------------------------------

  Dipole Moment: [D]
     X:     8.8145      Y:    -1.0263      Z:     0.0029     Total:     8.8740

*** Psi4 exiting successfully. Buy a developer a beer!
