                               Psi4 1.4a3.dev225

  ==> Input File <==

--------------------------------------------------------------------------
#psi4
#
memory 32 gb

molecule  {
0 1
  O        2.2358750    -1.1647400    -0.0019990
  N       -0.0266920    -0.9090020    -0.0014130
  N       -2.3606070    -0.8668920    -0.0783920
  N        1.3942980     1.0030250     0.0093070
  C       -1.1689180    -0.1740660     0.0003700
  C       -1.0400980     1.1965590     0.0002140
  C        1.2955060    -0.3793770     0.0033320
  C        0.2772380     1.7038820     0.0017870
  H       -0.0608440    -1.9231390    -0.0684580
  H       -1.9045160     1.8491770     0.0118680
  H        0.4131004     2.8066939     0.0040701
  H       -3.1798030    -0.3063160     0.1264620
  H       -2.3838550    -1.7605480     0.4013470
units angstrom
no_reorient  #important for SAPT in psi4, default
symmetry c1  #important for SAPT in psi4, default
}

set PROPERTIES_ORIGIN ["COM"]
properties('MP2/aug-cc-pvtz', properties = ['dipole'])
--------------------------------------------------------------------------

    Molecular point group: c1
  Charge       = 0
  Multiplicity = 1
  Basis Set: AUG-CC-PVTZ
    Blend: AUG-CC-PVTZ
  Basis Set: (AUG-CC-PVTZ AUX)
    Blend: AUG-CC-PVTZ-JKFIT

    Orbital Energies [Eh]
    ---------------------

    Doubly Occupied:

       1A    -20.512773     2A    -15.634275     3A    -15.626975
       4A    -15.552228     5A    -11.381498     6A    -11.379076
       7A    -11.315145     8A    -11.237777     9A     -1.391712
      10A     -1.323184    11A     -1.244231    12A     -1.201523
      13A     -1.060088    14A     -0.907641    15A     -0.883922
      16A     -0.775872    17A     -0.750327    18A     -0.714820
      19A     -0.687170    20A     -0.645722    21A     -0.629969
      22A     -0.623687    23A     -0.572351    24A     -0.547806
      25A     -0.464023    26A     -0.451923    27A     -0.448815
      28A     -0.418428    29A     -0.331828

  @DF-RHF Final Energy:  -392.75034867469282

   => Energetics <=

    Nuclear Repulsion Energy =            354.8727691736295355
    One-Electron Energy =               -1237.8166588524397866
    Two-Electron Energy =                 490.1935410041174350
    Total Energy =                       -392.7503486746928161
  Basis Set: (AUG-CC-PVTZ AUX)
    Blend: AUG-CC-PVTZ-RI
    Molecular point group: c1

    Geometry (in Angstrom), charge = 0, multiplicity = 1:

       Center              X                  Y                   Z               Mass
    ------------   -----------------  -----------------  -----------------  -----------------
         O            2.172379932969    -1.159179965929     0.002249058688    15.994914619570
         N           -0.090187067031    -0.903441965929     0.002835058688    14.003074004430
         N           -2.424102067031    -0.861331965929    -0.074143941312    14.003074004430
         N            1.330802932969     1.008585034071     0.013555058688    14.003074004430
         C           -1.232413067031    -0.168505965929     0.004618058688    12.000000000000
         C           -1.103593067031     1.202119034071     0.004462058688    12.000000000000
         C            1.232010932969    -0.373816965929     0.007580058688    12.000000000000
         C            0.213742932969     1.709442034071     0.006035058688    12.000000000000
         H           -0.124339067031    -1.917578965929    -0.064209941312     1.007825032230
         H           -1.968011067031     1.854737034071     0.016116058688     1.007825032230
         H            0.349605332969     2.812253934071     0.008318158688     1.007825032230
         H           -3.243298067031    -0.300755965929     0.130710058688     1.007825032230
         H           -2.447350067031    -1.754987965929     0.405595058688     1.007825032230

  Basis Set: AUG-CC-PVTZ
    Blend: AUG-CC-PVTZ
  Basis Set: (AUG-CC-PVTZ AUX)
    Blend: AUG-CC-PVTZ-JKFIT
	 Reference Energy          =    -392.7503486746928161 [Eh]
	 Singles Energy            =      -0.0000000000000000 [Eh]
	 Same-Spin Energy          =      -0.4068610291772873 [Eh]
	 Opposite-Spin Energy      =      -1.2151289690671316 [Eh]
	 Correlation Energy        =      -1.6219899982444188 [Eh]
	 Total Energy              =    -394.3723386729372464 [Eh]

	 ================> DF-SCS-MP2 Energies <==================
	-----------------------------------------------------------
	 SCS Same-Spin Scale       =       0.3333333333333333 [-]
	 SCS Opposite-Spin Scale   =       1.2000000000000000 [-]
	 SCS Same-Spin Energy      =      -0.1356203430590958 [Eh]
	 SCS Opposite-Spin Energy  =      -1.4581547628805580 [Eh]
	 SCS Correlation Energy    =      -1.5937751059396537 [Eh]
	 SCS Total Energy          =    -394.3441237806324580 [Eh]
	-----------------------------------------------------------

  Dipole Moment: [D]
     X:    -7.5970      Y:    -0.4159      Z:     0.8617     Total:     7.6570

*** Psi4 exiting successfully. Buy a developer a beer!
