                               Psi4 1.3.2 release

  ==> Input File <==

--------------------------------------------------------------------------
#psi4
#
memory 32 gb

molecule  {
0 1
  O       -2.2334690    -1.1675340     0.0001340
  N        0.0265130    -0.9084710    -0.0000270
  N        2.3544690    -0.8475160    -0.0005320
  N       -1.3973450     1.0028810     0.0002180
  C        1.2548538    -0.1229959    -0.0001387
  C        1.0385970     1.1986830    -0.0000890
  C       -1.2978830    -0.3751090     0.0001540
  C       -0.2757380     1.7018570     0.0000510
  H        0.0506260    -1.9247470    -0.0002200
  H        1.9024710     1.8518520    -0.0001620
  H       -0.4079780     2.7850560     0.0002120
  H        3.2235170    -0.3366370     0.0005700
  H        2.4001700    -1.8548790     0.0010060
units angstrom
no_reorient  #important for SAPT in psi4, default
symmetry c1  #important for SAPT in psi4, default
}

set PROPERTIES_ORIGIN ["COM"]
properties('MP2/aug-cc-pvtz', properties = ['dipole'])
--------------------------------------------------------------------------

    Molecular point group: c1
  Charge       = 0
  Multiplicity = 1
  Basis Set: AUG-CC-PVTZ
    Blend: AUG-CC-PVTZ
  Basis Set: (AUG-CC-PVTZ AUX)
    Blend: AUG-CC-PVTZ-JKFIT

    Orbital Energies [Eh]
    ---------------------

    Doubly Occupied:

       1A    -20.504974     2A    -15.633854     3A    -15.617589
       4A    -15.548417     5A    -11.381336     6A    -11.370667
       7A    -11.313235     8A    -11.231927     9A     -1.378799
      10A     -1.323232    11A     -1.243581    12A     -1.183588
      13A     -1.068138    14A     -0.913323    15A     -0.871118
      16A     -0.787811    17A     -0.746090    18A     -0.727414
      19A     -0.684859    20A     -0.640164    21A     -0.629230
      22A     -0.616255    23A     -0.561847    24A     -0.554446
      25A     -0.459929    26A     -0.445532    27A     -0.430208
      28A     -0.413862    29A     -0.331961

  @DF-RHF Final Energy:  -392.73769451021036

   => Energetics <=

    Nuclear Repulsion Energy =            354.4665456159890482
    One-Electron Energy =               -1237.1817085510729157
    Two-Electron Energy =                 489.9774684248735070
    Total Energy =                       -392.7376945102103605
  Basis Set: (AUG-CC-PVTZ AUX)
    Blend: AUG-CC-PVTZ-RI
    Molecular point group: c1

    Geometry (in Angstrom), charge = 0, multiplicity = 1:

       Center              X                  Y                   Z               Mass
    ------------   -----------------  -----------------  -----------------  -----------------
         O           -2.178649424101    -1.168736545432     0.000147392327    15.994914619570
         N            0.081332575899    -0.909673545432    -0.000013607673    14.003074004430
         N            2.409288575899    -0.848718545432    -0.000518607673    14.003074004430
         N           -1.342525424101     1.001678454568     0.000231392327    14.003074004430
         C            1.309673375899    -0.124198445432    -0.000125307673    12.000000000000
         C            1.093416575899     1.197480454568    -0.000075607673    12.000000000000
         C           -1.243063424101    -0.376311545432     0.000167392327    12.000000000000
         C           -0.220918424101     1.700654454568     0.000064392327    12.000000000000
         H            0.105445575899    -1.925949545432    -0.000206607673     1.007825032230
         H            1.957290575899     1.850649454568    -0.000148607673     1.007825032230
         H           -0.353158424101     2.783853454568     0.000225392327     1.007825032230
         H            3.278336575899    -0.337839545432     0.000583392327     1.007825032230
         H            2.454989575899    -1.856081545432     0.001019392327     1.007825032230

  Basis Set: AUG-CC-PVTZ
    Blend: AUG-CC-PVTZ
  Basis Set: (AUG-CC-PVTZ AUX)
    Blend: AUG-CC-PVTZ-JKFIT
	 Reference Energy          =    -392.7376945102103605 [Eh]
	 Singles Energy            =      -0.0000000000000000 [Eh]
	 Same-Spin Energy          =      -0.4069793506125921 [Eh]
	 Opposite-Spin Energy      =      -1.2154111045416238 [Eh]
	 Correlation Energy        =      -1.6223904551542159 [Eh]
	 Total Energy              =    -394.3600849653645923 [Eh]

	 ================> DF-SCS-MP2 Energies <==================
	-----------------------------------------------------------
	 SCS Same-Spin Scale       =       0.3333333333333333 [-]
	 SCS Opposite-Spin Scale   =       1.2000000000000000 [-]
	 SCS Same-Spin Energy      =      -0.1356597835375307 [Eh]
	 SCS Opposite-Spin Energy  =      -1.4584933254499486 [Eh]
	 SCS Correlation Energy    =      -1.5941531089874792 [Eh]
	 SCS Total Energy          =    -394.3318476191978448 [Eh]
	-----------------------------------------------------------

  Dipole Moment: [D]
     X:     8.4398      Y:    -0.6733      Z:     0.0030     Total:     8.4666

*** Psi4 exiting successfully. Buy a developer a beer!
