                               Psi4 1.3.2 release

  ==> Input File <==

--------------------------------------------------------------------------
#psi4
#
memory 32 gb

molecule  {
0 1
  O       -2.2334690    -1.1675340     0.0001340
  N        0.0265130    -0.9084710    -0.0000270
  N        2.3544690    -0.8475160    -0.0005320
  N       -1.3973450     1.0028810     0.0002180
  C        1.0878653    -0.0612865    -0.0001161
  C        1.0385970     1.1986830    -0.0000890
  C       -1.2978830    -0.3751090     0.0001540
  C       -0.2757380     1.7018570     0.0000510
  H        0.0506260    -1.9247470    -0.0002200
  H        1.9024710     1.8518520    -0.0001620
  H       -0.4079780     2.7850560     0.0002120
  H        3.2235170    -0.3366370     0.0005700
  H        2.4001700    -1.8548790     0.0010060
units angstrom
no_reorient  #important for SAPT in psi4, default
symmetry c1  #important for SAPT in psi4, default
}

set PROPERTIES_ORIGIN ["COM"]
properties('MP2/aug-cc-pvtz', properties = ['dipole'])
--------------------------------------------------------------------------

    Molecular point group: c1
  Charge       = 0
  Multiplicity = 1
  Basis Set: AUG-CC-PVTZ
    Blend: AUG-CC-PVTZ
  Basis Set: (AUG-CC-PVTZ AUX)
    Blend: AUG-CC-PVTZ-JKFIT

    Orbital Energies [Eh]
    ---------------------

    Doubly Occupied:

       1A    -20.514051     2A    -15.629953     3A    -15.601610
       4A    -15.562482     5A    -11.378806     6A    -11.371325
       7A    -11.322753     8A    -11.233536     9A     -1.392737
      10A     -1.310573    11A     -1.230641    12A     -1.181648
      13A     -1.093510    14A     -0.919832    15A     -0.872372
      16A     -0.777924    17A     -0.749489    18A     -0.708032
      19A     -0.680420    20A     -0.639369    21A     -0.639234
      22A     -0.620543    23A     -0.586038    24A     -0.533121
      25A     -0.470189    26A     -0.456525    27A     -0.431422
      28A     -0.421579    29A     -0.349007

  @DF-RHF Final Energy:  -392.72115010659132

   => Energetics <=

    Nuclear Repulsion Energy =            356.1628157490362128
    One-Electron Energy =               -1240.4104885536391976
    Two-Electron Energy =                 491.5265226980116609
    Total Energy =                       -392.7211501065913239
  Basis Set: (AUG-CC-PVTZ AUX)
    Blend: AUG-CC-PVTZ-RI
    Molecular point group: c1

    Geometry (in Angstrom), charge = 0, multiplicity = 1:

       Center              X                  Y                   Z               Mass
    ------------   -----------------  -----------------  -----------------  -----------------
         O           -2.160603646558    -1.175405232825     0.000144950036    15.994914619570
         N            0.099378353442    -0.916342232825    -0.000016049964    14.003074004430
         N            2.427334353442    -0.855387232825    -0.000521049964    14.003074004430
         N           -1.324479646558     0.995009767175     0.000228950036    14.003074004430
         C            1.160730653442    -0.069157732825    -0.000105149964    12.000000000000
         C            1.111462353442     1.190811767175    -0.000078049964    12.000000000000
         C           -1.225017646558    -0.382980232825     0.000164950036    12.000000000000
         C           -0.202872646558     1.693985767175     0.000061950036    12.000000000000
         H            0.123491353442    -1.932618232825    -0.000209049964     1.007825032230
         H            1.975336353442     1.843980767175    -0.000151049964     1.007825032230
         H           -0.335112646558     2.777184767175     0.000222950036     1.007825032230
         H            3.296382353442    -0.344508232825     0.000580950036     1.007825032230
         H            2.473035353442    -1.862750232825     0.001016950036     1.007825032230

  Basis Set: AUG-CC-PVTZ
    Blend: AUG-CC-PVTZ
  Basis Set: (AUG-CC-PVTZ AUX)
    Blend: AUG-CC-PVTZ-JKFIT
	 Reference Energy          =    -392.7211501065913239 [Eh]
	 Singles Energy            =      -0.0000000000000000 [Eh]
	 Same-Spin Energy          =      -0.4065755007491493 [Eh]
	 Opposite-Spin Energy      =      -1.2156620627542281 [Eh]
	 Correlation Energy        =      -1.6222375635033774 [Eh]
	 Total Energy              =    -394.3433876700947280 [Eh]

	 ================> DF-SCS-MP2 Energies <==================
	-----------------------------------------------------------
	 SCS Same-Spin Scale       =       0.3333333333333333 [-]
	 SCS Opposite-Spin Scale   =       1.2000000000000000 [-]
	 SCS Same-Spin Energy      =      -0.1355251669163831 [Eh]
	 SCS Opposite-Spin Energy  =      -1.4587944753050737 [Eh]
	 SCS Correlation Energy    =      -1.5943196422214567 [Eh]
	 SCS Total Energy          =    -394.3154697488128022 [Eh]
	-----------------------------------------------------------

  Dipole Moment: [D]
     X:     7.0266      Y:     0.0128      Z:     0.0033     Total:     7.0266

*** Psi4 exiting successfully. Buy a developer a beer!
