                               Psi4 1.3.2 release

  ==> Input File <==

--------------------------------------------------------------------------
#psi4
#
memory 32 gb

molecule  {
0 1
  O       -2.2334690    -1.1675340     0.0001340
  N        0.0265130    -0.9084710    -0.0000270
  N        2.3425843    -0.8680751    -0.0005279
  N       -1.3973450     1.0028810     0.0002180
  C        1.1706060    -0.1768690    -0.0001310
  C        1.0385970     1.1986830    -0.0000890
  C       -1.2978830    -0.3751090     0.0001540
  C       -0.2757380     1.7018570     0.0000510
  H        0.0506260    -1.9247470    -0.0002200
  H        1.9024710     1.8518520    -0.0001620
  H       -0.4079780     2.7850560     0.0002120
  H        3.2235170    -0.3366370     0.0005700
  H        2.4001700    -1.8548790     0.0010060
units angstrom
no_reorient  #important for SAPT in psi4, default
symmetry c1  #important for SAPT in psi4, default
}

set PROPERTIES_ORIGIN ["COM"]
properties('MP2/aug-cc-pvtz', properties = ['dipole'])
--------------------------------------------------------------------------

    Molecular point group: c1
  Charge       = 0
  Multiplicity = 1
  Basis Set: AUG-CC-PVTZ
    Blend: AUG-CC-PVTZ
  Basis Set: (AUG-CC-PVTZ AUX)
    Blend: AUG-CC-PVTZ-JKFIT

    Orbital Energies [Eh]
    ---------------------

    Doubly Occupied:

       1A    -20.509072     2A    -15.631123     3A    -15.628811
       4A    -15.545899     5A    -11.384315     6A    -11.375331
       7A    -11.309316     8A    -11.233349     9A     -1.388532
      10A     -1.323641    11A     -1.242551    12A     -1.198304
      13A     -1.058340    14A     -0.910221    15A     -0.882362
      16A     -0.788314    17A     -0.750874    18A     -0.718890
      19A     -0.691072    20A     -0.638424    21A     -0.637786
      22A     -0.620292    23A     -0.569656    24A     -0.547690
      25A     -0.460395    26A     -0.447505    27A     -0.441351
      28A     -0.415340    29A     -0.326090

  @DF-RHF Final Energy:  -392.75035533378832

   => Energetics <=

    Nuclear Repulsion Energy =            355.2373295461944736
    One-Electron Energy =               -1238.6256765960947632
    Two-Electron Energy =                 490.6379917161119693
    Total Energy =                       -392.7503553337883204
  Basis Set: (AUG-CC-PVTZ AUX)
    Blend: AUG-CC-PVTZ-RI
    Molecular point group: c1

    Geometry (in Angstrom), charge = 0, multiplicity = 1:

       Center              X                  Y                   Z               Mass
    ------------   -----------------  -----------------  -----------------  -----------------
         O           -2.168046386019    -1.160322097012     0.000146043190    15.994914619570
         N            0.091935613981    -0.901259097012    -0.000014956810    14.003074004430
         N            2.408006913981    -0.860863197012    -0.000515856810    14.003074004430
         N           -1.331922386019     1.010092902988     0.000230043190    14.003074004430
         C            1.236028613981    -0.169657097012    -0.000118956810    12.000000000000
         C            1.104019613981     1.205894902988    -0.000076956810    12.000000000000
         C           -1.232460386019    -0.367897097012     0.000166043190    12.000000000000
         C           -0.210315386019     1.709068902988     0.000063043190    12.000000000000
         H            0.116048613981    -1.917535097012    -0.000207956810     1.007825032230
         H            1.967893613981     1.859063902988    -0.000149956810     1.007825032230
         H           -0.342555386019     2.792267902988     0.000224043190     1.007825032230
         H            3.288939613981    -0.329425097012     0.000582043190     1.007825032230
         H            2.465592613981    -1.847667097012     0.001018043190     1.007825032230

  Basis Set: AUG-CC-PVTZ
    Blend: AUG-CC-PVTZ
  Basis Set: (AUG-CC-PVTZ AUX)
    Blend: AUG-CC-PVTZ-JKFIT
	 Reference Energy          =    -392.7503553337883204 [Eh]
	 Singles Energy            =      -0.0000000000000000 [Eh]
	 Same-Spin Energy          =      -0.4068538633230560 [Eh]
	 Opposite-Spin Energy      =      -1.2141442888862799 [Eh]
	 Correlation Energy        =      -1.6209981522093360 [Eh]
	 Total Energy              =    -394.3713534859976448 [Eh]

	 ================> DF-SCS-MP2 Energies <==================
	-----------------------------------------------------------
	 SCS Same-Spin Scale       =       0.3333333333333333 [-]
	 SCS Opposite-Spin Scale   =       1.2000000000000000 [-]
	 SCS Same-Spin Energy      =      -0.1356179544410187 [Eh]
	 SCS Opposite-Spin Energy  =      -1.4569731466635358 [Eh]
	 SCS Correlation Energy    =      -1.5925911011045546 [Eh]
	 SCS Total Energy          =    -394.3429464348928946 [Eh]
	-----------------------------------------------------------

  Dipole Moment: [D]
     X:     8.1416      Y:    -0.8407      Z:     0.0030     Total:     8.1849

*** Psi4 exiting successfully. Buy a developer a beer!
