                               Psi4 1.4a3.dev225

  ==> Input File <==

--------------------------------------------------------------------------
#psi4
#
memory 32 gb

molecule  {
0 1
  O        2.2358750    -1.1647400    -0.0019990
  N       -0.0266920    -0.9090020    -0.0014130
  N       -2.3606070    -0.8668920    -0.0783920
  N        1.3942980     1.0030250     0.0093070
  C       -1.1689180    -0.1740660     0.0003700
  C       -1.0400980     1.1965590     0.0002140
  C        1.3338821    -0.4114274     0.0031144
  C        0.2772380     1.7038820     0.0017870
  H       -0.0608440    -1.9231390    -0.0684580
  H       -1.9045160     1.8491770     0.0118680
  H        0.4106550     2.7868440     0.0040290
  H       -3.1798030    -0.3063160     0.1264620
  H       -2.3838550    -1.7605480     0.4013470
units angstrom
no_reorient  #important for SAPT in psi4, default
symmetry c1  #important for SAPT in psi4, default
}

set PROPERTIES_ORIGIN ["COM"]
properties('MP2/aug-cc-pvtz', properties = ['dipole'])
--------------------------------------------------------------------------

    Molecular point group: c1
  Charge       = 0
  Multiplicity = 1
  Basis Set: AUG-CC-PVTZ
    Blend: AUG-CC-PVTZ
  Basis Set: (AUG-CC-PVTZ AUX)
    Blend: AUG-CC-PVTZ-JKFIT

    Orbital Energies [Eh]
    ---------------------

    Doubly Occupied:

       1A    -20.526658     2A    -15.627421     3A    -15.623046
       4A    -15.547950     5A    -11.380156     6A    -11.376894
       7A    -11.307921     8A    -11.231980     9A     -1.419778
      10A     -1.326419    11A     -1.239268    12A     -1.192014
      13A     -1.054366    14A     -0.902194    15A     -0.877517
      16A     -0.770798    17A     -0.743729    18A     -0.711449
      19A     -0.685892    20A     -0.646083    21A     -0.636673
      22A     -0.626146    23A     -0.577341    24A     -0.555547
      25A     -0.467240    26A     -0.465603    27A     -0.448729
      28A     -0.409177    29A     -0.328473

  @DF-RHF Final Energy:  -392.74909569166522

   => Energetics <=

    Nuclear Repulsion Energy =            354.7653809771258011
    One-Electron Energy =               -1237.6160355147380869
    Two-Electron Energy =                 490.1015588459470678
    Total Energy =                       -392.7490956916652181
  Basis Set: (AUG-CC-PVTZ AUX)
    Blend: AUG-CC-PVTZ-RI
    Molecular point group: c1

    Geometry (in Angstrom), charge = 0, multiplicity = 1:

       Center              X                  Y                   Z               Mass
    ------------   -----------------  -----------------  -----------------  -----------------
         O            2.168254976107    -1.155536250682     0.002272946869    15.994914619570
         N           -0.094312023893    -0.899798250682     0.002858946869    14.003074004430
         N           -2.428227023893    -0.857688250682    -0.074120053131    14.003074004430
         N            1.326677976107     1.012228749318     0.013578946869    14.003074004430
         C           -1.236538023893    -0.164862250682     0.004641946869    12.000000000000
         C           -1.107718023893     1.205762749318     0.004485946869    12.000000000000
         C            1.266262076107    -0.402223650682     0.007386346869    12.000000000000
         C            0.209617976107     1.713085749318     0.006058946869    12.000000000000
         H           -0.128464023893    -1.913935250682    -0.064186053131     1.007825032230
         H           -1.972136023893     1.858380749318     0.016139946869     1.007825032230
         H            0.343034976107     2.796047749318     0.008300946869     1.007825032230
         H           -3.247423023893    -0.297112250682     0.130733946869     1.007825032230
         H           -2.451475023893    -1.751344250682     0.405618946869     1.007825032230

  Basis Set: AUG-CC-PVTZ
    Blend: AUG-CC-PVTZ
  Basis Set: (AUG-CC-PVTZ AUX)
    Blend: AUG-CC-PVTZ-JKFIT
	 Reference Energy          =    -392.7490956916652181 [Eh]
	 Singles Energy            =      -0.0000000000000000 [Eh]
	 Same-Spin Energy          =      -0.4059581140176846 [Eh]
	 Opposite-Spin Energy      =      -1.2137563390700388 [Eh]
	 Correlation Energy        =      -1.6197144530877234 [Eh]
	 Total Energy              =    -394.3688101447529561 [Eh]

	 ================> DF-SCS-MP2 Energies <==================
	-----------------------------------------------------------
	 SCS Same-Spin Scale       =       0.3333333333333333 [-]
	 SCS Opposite-Spin Scale   =       1.2000000000000000 [-]
	 SCS Same-Spin Energy      =      -0.1353193713392282 [Eh]
	 SCS Opposite-Spin Energy  =      -1.4565076068840466 [Eh]
	 SCS Correlation Energy    =      -1.5918269782232748 [Eh]
	 SCS Total Energy          =    -394.3409226698884709 [Eh]
	-----------------------------------------------------------

  Dipole Moment: [D]
     X:    -7.0889      Y:    -0.7158      Z:     0.8607     Total:     7.1768

*** Psi4 exiting successfully. Buy a developer a beer!
