                               Psi4 1.3.2 release

  ==> Input File <==

--------------------------------------------------------------------------
#psi4
#
memory 32 gb

molecule  {
0 1
  O       -2.2334690    -1.1675340     0.0001340
  N        0.0265130    -0.9084710    -0.0000270
  N        2.3544690    -0.8475160    -0.0005320
  N       -1.3973450     1.0028810     0.0002180
  C        1.2408118    -0.3004671    -0.0001685
  C        1.0385970     1.1986830    -0.0000890
  C       -1.2978830    -0.3751090     0.0001540
  C       -0.2757380     1.7018570     0.0000510
  H        0.0506260    -1.9247470    -0.0002200
  H        1.9024710     1.8518520    -0.0001620
  H       -0.4079780     2.7850560     0.0002120
  H        3.2235170    -0.3366370     0.0005700
  H        2.4001700    -1.8548790     0.0010060
units angstrom
no_reorient  #important for SAPT in psi4, default
symmetry c1  #important for SAPT in psi4, default
}

set PROPERTIES_ORIGIN ["COM"]
properties('MP2/aug-cc-pvtz', properties = ['dipole'])
--------------------------------------------------------------------------

    Molecular point group: c1
  Charge       = 0
  Multiplicity = 1
  Basis Set: AUG-CC-PVTZ
    Blend: AUG-CC-PVTZ
  Basis Set: (AUG-CC-PVTZ AUX)
    Blend: AUG-CC-PVTZ-JKFIT

    Orbital Energies [Eh]
    ---------------------

    Doubly Occupied:

       1A    -20.504666     2A    -15.657043     3A    -15.634376
       4A    -15.527619     5A    -11.393356     6A    -11.372101
       7A    -11.294566     8A    -11.230513     9A     -1.392660
      10A     -1.359441    11A     -1.258084    12A     -1.196081
      13A     -1.025568    14A     -0.915214    15A     -0.886659
      16A     -0.812241    17A     -0.778301    18A     -0.731368
      19A     -0.670793    20A     -0.652601    21A     -0.630886
      22A     -0.605297    23A     -0.566938    24A     -0.541389
      25A     -0.450550    26A     -0.445940    27A     -0.439754
      28A     -0.405435    29A     -0.304667

  @DF-RHF Final Energy:  -392.72187811957207

   => Energetics <=

    Nuclear Repulsion Energy =            354.6697382309558293
    One-Electron Energy =               -1237.4150220020246707
    Two-Electron Energy =                 490.0234056514968302
    Total Energy =                       -392.7218781195720680
  Basis Set: (AUG-CC-PVTZ AUX)
    Blend: AUG-CC-PVTZ-RI
    Molecular point group: c1

    Geometry (in Angstrom), charge = 0, multiplicity = 1:

       Center              X                  Y                   Z               Mass
    ------------   -----------------  -----------------  -----------------  -----------------
         O           -2.177131961472    -1.149557944538     0.000150612694    15.994914619570
         N            0.082850038528    -0.890494944538    -0.000010387306    14.003074004430
         N            2.410806038528    -0.829539944538    -0.000515387306    14.003074004430
         N           -1.341007961472     1.020857055462     0.000234612694    14.003074004430
         C            1.297148838528    -0.282491044538    -0.000151887306    12.000000000000
         C            1.094934038528     1.216659055462    -0.000072387306    12.000000000000
         C           -1.241545961472    -0.357132944538     0.000170612694    12.000000000000
         C           -0.219400961472     1.719833055462     0.000067612694    12.000000000000
         H            0.106963038528    -1.906770944538    -0.000203387306     1.007825032230
         H            1.958808038528     1.869828055462    -0.000145387306     1.007825032230
         H           -0.351640961472     2.803032055462     0.000228612694     1.007825032230
         H            3.279854038528    -0.318660944538     0.000586612694     1.007825032230
         H            2.456507038528    -1.836902944538     0.001022612694     1.007825032230

  Basis Set: AUG-CC-PVTZ
    Blend: AUG-CC-PVTZ
  Basis Set: (AUG-CC-PVTZ AUX)
    Blend: AUG-CC-PVTZ-JKFIT
	 Reference Energy          =    -392.7218781195720680 [Eh]
	 Singles Energy            =      -0.0000000000000000 [Eh]
	 Same-Spin Energy          =      -0.4071802329852069 [Eh]
	 Opposite-Spin Energy      =      -1.2139208969319564 [Eh]
	 Correlation Energy        =      -1.6211011299171632 [Eh]
	 Total Energy              =    -394.3429792494892467 [Eh]

	 ================> DF-SCS-MP2 Energies <==================
	-----------------------------------------------------------
	 SCS Same-Spin Scale       =       0.3333333333333333 [-]
	 SCS Opposite-Spin Scale   =       1.2000000000000000 [-]
	 SCS Same-Spin Energy      =      -0.1357267443284023 [Eh]
	 SCS Opposite-Spin Energy  =      -1.4567050763183476 [Eh]
	 SCS Correlation Energy    =      -1.5924318206467498 [Eh]
	 SCS Total Energy          =    -394.3143099402188341 [Eh]
	-----------------------------------------------------------

  Dipole Moment: [D]
     X:     9.2906      Y:    -1.7929      Z:     0.0027     Total:     9.4620

*** Psi4 exiting successfully. Buy a developer a beer!
