                               Psi4 1.3.2 release

  ==> Input File <==

--------------------------------------------------------------------------
#psi4
#
memory 32 gb

molecule  {
0 1
  O       -2.2334690    -1.1675340     0.0001340
  N        0.0265130    -0.9084710    -0.0000270
  N        2.3544690    -0.8475160    -0.0005320
  N       -1.3973450     1.0028810     0.0002180
  C        1.1706060    -0.1768690    -0.0001310
  C        1.0385970     1.1986830    -0.0000890
  C       -1.2978830    -0.3751090     0.0001540
  C       -0.2843194     1.6788421     0.0000514
  H        0.0506260    -1.9247470    -0.0002200
  H        1.9024710     1.8518520    -0.0001620
  H       -0.4079780     2.7850560     0.0002120
  H        3.2235170    -0.3366370     0.0005700
  H        2.4001700    -1.8548790     0.0010060
units angstrom
no_reorient  #important for SAPT in psi4, default
symmetry c1  #important for SAPT in psi4, default
}

set PROPERTIES_ORIGIN ["COM"]
properties('MP2/aug-cc-pvtz', properties = ['dipole'])
--------------------------------------------------------------------------

    Molecular point group: c1
  Charge       = 0
  Multiplicity = 1
  Basis Set: AUG-CC-PVTZ
    Blend: AUG-CC-PVTZ
  Basis Set: (AUG-CC-PVTZ AUX)
    Blend: AUG-CC-PVTZ-JKFIT

    Orbital Energies [Eh]
    ---------------------

    Doubly Occupied:

       1A    -20.510832     2A    -15.632022     3A    -15.628184
       4A    -15.546003     5A    -11.383007     6A    -11.376878
       7A    -11.307543     8A    -11.231539     9A     -1.390226
      10A     -1.323524    11A     -1.246615    12A     -1.202752
      13A     -1.057653    14A     -0.906828    15A     -0.884697
      16A     -0.784746    17A     -0.753566    18A     -0.720861
      19A     -0.690434    20A     -0.639351    21A     -0.635625
      22A     -0.621087    23A     -0.566380    24A     -0.548635
      25A     -0.463879    26A     -0.449954    27A     -0.442300
      28A     -0.415509    29A     -0.326402

  @DF-RHF Final Energy:  -392.75132153972851

   => Energetics <=

    Nuclear Repulsion Energy =            355.6563495421698917
    One-Electron Energy =               -1239.4412748560876025
    Two-Electron Energy =                 491.0336037741892028
    Total Energy =                       -392.7513215397285080
  Basis Set: (AUG-CC-PVTZ AUX)
    Blend: AUG-CC-PVTZ-RI
    Molecular point group: c1

    Geometry (in Angstrom), charge = 0, multiplicity = 1:

       Center              X                  Y                   Z               Mass
    ------------   -----------------  -----------------  -----------------  -----------------
         O           -2.168617744718    -1.160427567606     0.000146516993    15.994914619570
         N            0.091364255282    -0.901364567606    -0.000014483007    14.003074004430
         N            2.419320255282    -0.840409567606    -0.000519483007    14.003074004430
         N           -1.332493744718     1.009987432394     0.000230516993    14.003074004430
         C            1.235457255282    -0.169762567606    -0.000118483007    12.000000000000
         C            1.103448255282     1.205789432394    -0.000076483007    12.000000000000
         C           -1.233031744718    -0.368002567606     0.000166516993    12.000000000000
         C           -0.219468144718     1.685948532394     0.000063916993    12.000000000000
         H            0.115477255282    -1.917640567606    -0.000207483007     1.007825032230
         H            1.967322255282     1.858958432394    -0.000149483007     1.007825032230
         H           -0.343126744718     2.792162432394     0.000224516993     1.007825032230
         H            3.288368255282    -0.329530567606     0.000582516993     1.007825032230
         H            2.465021255282    -1.847772567606     0.001018516993     1.007825032230

  Basis Set: AUG-CC-PVTZ
    Blend: AUG-CC-PVTZ
  Basis Set: (AUG-CC-PVTZ AUX)
    Blend: AUG-CC-PVTZ-JKFIT
	 Reference Energy          =    -392.7513215397285080 [Eh]
	 Singles Energy            =      -0.0000000000000000 [Eh]
	 Same-Spin Energy          =      -0.4066241359641130 [Eh]
	 Opposite-Spin Energy      =      -1.2136651605315125 [Eh]
	 Correlation Energy        =      -1.6202892964956255 [Eh]
	 Total Energy              =    -394.3716108362241357 [Eh]

	 ================> DF-SCS-MP2 Energies <==================
	-----------------------------------------------------------
	 SCS Same-Spin Scale       =       0.3333333333333333 [-]
	 SCS Opposite-Spin Scale   =       1.2000000000000000 [-]
	 SCS Same-Spin Energy      =      -0.1355413786547043 [Eh]
	 SCS Opposite-Spin Energy  =      -1.4563981926378149 [Eh]
	 SCS Correlation Energy    =      -1.5919395712925193 [Eh]
	 SCS Total Energy          =    -394.3432611110210360 [Eh]
	-----------------------------------------------------------

  Dipole Moment: [D]
     X:     8.0709      Y:    -0.9192      Z:     0.0030     Total:     8.1230

*** Psi4 exiting successfully. Buy a developer a beer!
