                               Psi4 1.4a3.dev225

  ==> Input File <==

--------------------------------------------------------------------------
#psi4
#
memory 32 gb

molecule  {
0 1
  O        2.2358750    -1.1647400    -0.0019990
  N       -0.0266920    -0.9090020    -0.0014130
  N       -2.3606070    -0.8668920    -0.0783920
  N        1.3942980     1.0030250     0.0093070
  C       -1.1520988    -0.1848879     0.0003437
  C       -1.0400980     1.1965590     0.0002140
  C        1.2955060    -0.3793770     0.0033320
  C        0.2772380     1.7038820     0.0017870
  H       -0.0608440    -1.9231390    -0.0684580
  H       -1.9045160     1.8491770     0.0118680
  H        0.4106550     2.7868440     0.0040290
  H       -3.1798030    -0.3063160     0.1264620
  H       -2.3838550    -1.7605480     0.4013470
units angstrom
no_reorient  #important for SAPT in psi4, default
symmetry c1  #important for SAPT in psi4, default
}

set PROPERTIES_ORIGIN ["COM"]
properties('MP2/aug-cc-pvtz', properties = ['dipole'])
--------------------------------------------------------------------------

    Molecular point group: c1
  Charge       = 0
  Multiplicity = 1
  Basis Set: AUG-CC-PVTZ
    Blend: AUG-CC-PVTZ
  Basis Set: (AUG-CC-PVTZ AUX)
    Blend: AUG-CC-PVTZ-JKFIT

    Orbital Energies [Eh]
    ---------------------

    Doubly Occupied:

       1A    -20.513603     2A    -15.637173     3A    -15.626204
       4A    -15.551281     5A    -11.381994     6A    -11.379880
       7A    -11.311876     8A    -11.237543     9A     -1.394210
      10A     -1.325405    11A     -1.243161    12A     -1.203946
      13A     -1.057840    14A     -0.908892    15A     -0.887728
      16A     -0.776993    17A     -0.751130    18A     -0.714039
      19A     -0.688942    20A     -0.647630    21A     -0.631210
      22A     -0.623455    23A     -0.574576    24A     -0.546470
      25A     -0.463902    26A     -0.452877    27A     -0.450529
      28A     -0.418639    29A     -0.330191

  @DF-RHF Final Energy:  -392.75079883035767

   => Energetics <=

    Nuclear Repulsion Energy =            355.1386520222172294
    One-Electron Energy =               -1238.3162593715846924
    Two-Electron Energy =                 490.4268085190097963
    Total Energy =                       -392.7507988303576667
  Basis Set: (AUG-CC-PVTZ AUX)
    Blend: AUG-CC-PVTZ-RI
    Molecular point group: c1

    Geometry (in Angstrom), charge = 0, multiplicity = 1:

       Center              X                  Y                   Z               Mass
    ------------   -----------------  -----------------  -----------------  -----------------
         O            2.170584543843    -1.157830329547     0.002252273845    15.994914619570
         N           -0.091982456157    -0.902092329547     0.002838273845    14.003074004430
         N           -2.425897456157    -0.859982329547    -0.074140726155    14.003074004430
         N            1.329007543843     1.009934670453     0.013558273845    14.003074004430
         C           -1.217389256157    -0.177978229547     0.004594973845    12.000000000000
         C           -1.105388456157     1.203468670453     0.004465273845    12.000000000000
         C            1.230215543843    -0.372467329547     0.007583273845    12.000000000000
         C            0.211947543843     1.710791670453     0.006038273845    12.000000000000
         H           -0.126134456157    -1.916229329547    -0.064206726155     1.007825032230
         H           -1.969806456157     1.856086670453     0.016119273845     1.007825032230
         H            0.345364543843     2.793753670453     0.008280273845     1.007825032230
         H           -3.245093456157    -0.299406329547     0.130713273845     1.007825032230
         H           -2.449145456157    -1.753638329547     0.405598273845     1.007825032230

  Basis Set: AUG-CC-PVTZ
    Blend: AUG-CC-PVTZ
  Basis Set: (AUG-CC-PVTZ AUX)
    Blend: AUG-CC-PVTZ-JKFIT

		-----------------------------------------------------------		 ==================> DF-MP2 Energies <==================== 		-----------------------------------------------------------		 Reference Energy          =    -392.7507988303567004 [Eh]		 Singles Energy            =      -0.0000000000000000 [Eh]		 Same-Spin Energy          =      -0.4068306670121415 [Eh]		 Opposite-Spin Energy      =      -1.2148102647534091 [Eh]		 Correlation Energy        =      -1.6216409317655507 [Eh]		 Total Energy              =    -394.3724397621222693 [Eh]		-----------------------------------------------------------		 ================> DF-SCS-MP2 Energies <================== 		-----------------------------------------------------------		 SCS Same-Spin Scale       =       0.3333333333333333 [-]		 SCS Opposite-Spin Scale   =       1.2000000000000000 [-]		 SCS Same-Spin Energy      =      -0.1356102223373805 [Eh]		 SCS Opposite-Spin Energy  =      -1.4577723177040909 [Eh]		 SCS Correlation Energy    =      -1.5933825400414714 [Eh]		 SCS Total Energy          =    -394.3441813703981893 [Eh]		-----------------------------------------------------------

Properties will be evaluated at  -0.000000,  -0.000000,  -0.000000 [a0]

Properties computed using the MP2 density matrix
  Nuclear Dipole Moment: [e a0]
     X:    -6.9654      Y:     0.6346      Z:     0.4656

  Electronic Dipole Moment: [e a0]
     X:     3.9972      Y:    -0.8143      Z:    -0.1262

  Dipole Moment: [e a0]
     X:    -2.9682      Y:    -0.1796      Z:     0.3394     Total:     2.9930

  Dipole Moment: [D]
     X:    -7.5445      Y:    -0.4566      Z:     0.8627     Total:     7.6073

*** tstop() called on c469-083.stampede2.tacc.utexas.edu at Fri Mar 19 09:32:53 2021
Module time:
	user time   =     809.62 seconds =      13.49 minutes
	system time =      35.22 seconds =       0.59 minutes
	total time  =        215 seconds =       3.58 minutes
Total time:
	user time   =    1142.50 seconds =      19.04 minutes
	system time =      60.20 seconds =       1.00 minutes
	total time  =        360 seconds =       6.00 minutes

    Psi4 stopped on: Friday, 19 March 2021 09:32AM
    Psi4 wall time for execution: 0:06:00.65

*** Psi4 exiting successfully. Buy a developer a beer!
