                               Psi4 1.3.2 release

  ==> Input File <==

--------------------------------------------------------------------------
#psi4
#
memory 32 gb

molecule  {
0 1
  O       -2.2334690    -1.1675340     0.0001340
  N        0.0265130    -0.9084710    -0.0000270
  N        2.3544690    -0.8475160    -0.0005320
  N       -1.3973450     1.0028810     0.0002180
  C        1.1706060    -0.1768690    -0.0001310
  C        1.0385970     1.1986830    -0.0000890
  C       -1.2738489    -0.3731633     0.0001500
  C       -0.2757380     1.7018570     0.0000510
  H        0.0506260    -1.9247470    -0.0002200
  H        1.9024710     1.8518520    -0.0001620
  H       -0.4079780     2.7850560     0.0002120
  H        3.2235170    -0.3366370     0.0005700
  H        2.4001700    -1.8548790     0.0010060
units angstrom
no_reorient  #important for SAPT in psi4, default
symmetry c1  #important for SAPT in psi4, default
}

set PROPERTIES_ORIGIN ["COM"]
properties('MP2/aug-cc-pvtz', properties = ['dipole'])
--------------------------------------------------------------------------

    Molecular point group: c1
  Charge       = 0
  Multiplicity = 1
  Basis Set: AUG-CC-PVTZ
    Blend: AUG-CC-PVTZ
  Basis Set: (AUG-CC-PVTZ AUX)
    Blend: AUG-CC-PVTZ-JKFIT

    Orbital Energies [Eh]
    ---------------------

    Doubly Occupied:

       1A    -20.504018     2A    -15.636123     3A    -15.630682
       4A    -15.547774     5A    -11.386112     6A    -11.374799
       7A    -11.309475     8A    -11.234654     9A     -1.384034
      10A     -1.319594    11A     -1.243066    12A     -1.202916
      13A     -1.059245    14A     -0.911336    15A     -0.888313
      16A     -0.787175    17A     -0.754489    18A     -0.725887
      19A     -0.691962    20A     -0.641499    21A     -0.638145
      22A     -0.615843    23A     -0.565566    24A     -0.545237
      25A     -0.461058    26A     -0.442669    27A     -0.439880
      28A     -0.417615    29A     -0.326232

  @DF-RHF Final Energy:  -392.74940248205132

   => Energetics <=

    Nuclear Repulsion Energy =            355.3383048688542658
    One-Electron Energy =               -1238.8046244330723766
    Two-Electron Energy =                 490.7169170821667876
    Total Energy =                       -392.7494024820513232
  Basis Set: (AUG-CC-PVTZ AUX)
    Blend: AUG-CC-PVTZ-RI
    Molecular point group: c1

    Geometry (in Angstrom), charge = 0, multiplicity = 1:

       Center              X                  Y                   Z               Mass
    ------------   -----------------  -----------------  -----------------  -----------------
         O           -2.172142371009    -1.163124959552     0.000146992483    15.994914619570
         N            0.087839628991    -0.904061959552    -0.000014007517    14.003074004430
         N            2.415795628991    -0.843106959552    -0.000519007517    14.003074004430
         N           -1.336018371009     1.007290040448     0.000230992483    14.003074004430
         C            1.231932628991    -0.172459959552    -0.000118007517    12.000000000000
         C            1.099923628991     1.203092040448    -0.000076007517    12.000000000000
         C           -1.212522271009    -0.368754259552     0.000162992483    12.000000000000
         C           -0.214411371009     1.706266040448     0.000063992483    12.000000000000
         H            0.111952628991    -1.920337959552    -0.000207007517     1.007825032230
         H            1.963797628991     1.856261040448    -0.000149007517     1.007825032230
         H           -0.346651371009     2.789465040448     0.000224992483     1.007825032230
         H            3.284843628991    -0.332227959552     0.000582992483     1.007825032230
         H            2.461496628991    -1.850469959552     0.001018992483     1.007825032230

  Basis Set: AUG-CC-PVTZ
    Blend: AUG-CC-PVTZ
  Basis Set: (AUG-CC-PVTZ AUX)
    Blend: AUG-CC-PVTZ-JKFIT
	 Reference Energy          =    -392.7494024820513232 [Eh]
	 Singles Energy            =      -0.0000000000000000 [Eh]
	 Same-Spin Energy          =      -0.4071832622240754 [Eh]
	 Opposite-Spin Energy      =      -1.2147462104084945 [Eh]
	 Correlation Energy        =      -1.6219294726325699 [Eh]
	 Total Energy              =    -394.3713319546839102 [Eh]

	 ================> DF-SCS-MP2 Energies <==================
	-----------------------------------------------------------
	 SCS Same-Spin Scale       =       0.3333333333333333 [-]
	 SCS Opposite-Spin Scale   =       1.2000000000000000 [-]
	 SCS Same-Spin Energy      =      -0.1357277540746918 [Eh]
	 SCS Opposite-Spin Energy  =      -1.4576954524901933 [Eh]
	 SCS Correlation Energy    =      -1.5934232065648850 [Eh]
	 SCS Total Energy          =    -394.3428256886161876 [Eh]
	-----------------------------------------------------------

  Dipole Moment: [D]
     X:     8.3485      Y:    -0.7832      Z:     0.0030     Total:     8.3852

*** Psi4 exiting successfully. Buy a developer a beer!
