                               Psi4 1.3.2 release

  ==> Input File <==

--------------------------------------------------------------------------
#psi4
#
memory 32 gb

molecule  {
0 1
  O       -2.2334690    -1.1675340     0.0001340
  N        0.0265130    -0.9084710    -0.0000270
  N        2.3544690    -0.8475160    -0.0005320
  N       -1.3973450     1.0028810     0.0002180
  C        1.1706060    -0.1768690    -0.0001310
  C        1.0385970     1.1986830    -0.0000890
  C       -1.2020016    -0.3648142     0.0001380
  C       -0.2757380     1.7018570     0.0000510
  H        0.0506260    -1.9247470    -0.0002200
  H        1.9024710     1.8518520    -0.0001620
  H       -0.4079780     2.7850560     0.0002120
  H        3.2235170    -0.3366370     0.0005700
  H        2.4001700    -1.8548790     0.0010060
units angstrom
no_reorient  #important for SAPT in psi4, default
symmetry c1  #important for SAPT in psi4, default
}

set PROPERTIES_ORIGIN ["COM"]
properties('MP2/aug-cc-pvtz', properties = ['dipole'])
--------------------------------------------------------------------------

    Molecular point group: c1
  Charge       = 0
  Multiplicity = 1
  Basis Set: AUG-CC-PVTZ
    Blend: AUG-CC-PVTZ
  Basis Set: (AUG-CC-PVTZ AUX)
    Blend: AUG-CC-PVTZ-JKFIT

    Orbital Energies [Eh]
    ---------------------

    Doubly Occupied:

       1A    -20.488273     2A    -15.647096     3A    -15.635458
       4A    -15.554742     5A    -11.391389     6A    -11.371817
       7A    -11.311553     8A    -11.241061     9A     -1.386762
      10A     -1.302342    11A     -1.236665    12A     -1.214692
      13A     -1.063936    14A     -0.918575    15A     -0.901718
      16A     -0.795687    17A     -0.760503    18A     -0.736714
      19A     -0.694267    20A     -0.651878    21A     -0.644257
      22A     -0.607212    23A     -0.546198    24A     -0.541521
      25A     -0.466992    26A     -0.440087    27A     -0.427698
      28A     -0.411497    29A     -0.327387

  @DF-RHF Final Energy:  -392.73457945255336

   => Energetics <=

    Nuclear Repulsion Energy =            355.8502706594735514
    One-Electron Energy =               -1239.7337496965603805
    Two-Electron Energy =                 491.1488995845334102
    Total Energy =                       -392.7345794525533620
  Basis Set: (AUG-CC-PVTZ AUX)
    Blend: AUG-CC-PVTZ-RI
    Molecular point group: c1

    Geometry (in Angstrom), charge = 0, multiplicity = 1:

       Center              X                  Y                   Z               Mass
    ------------   -----------------  -----------------  -----------------  -----------------
         O           -2.179906620601    -1.164027213308     0.000148289275    15.994914619570
         N            0.080075379399    -0.904964213308    -0.000012710725    14.003074004430
         N            2.408031379399    -0.844009213308    -0.000517710725    14.003074004430
         N           -1.343782620601     1.006387786692     0.000232289275    14.003074004430
         C            1.224168379399    -0.173362213308    -0.000116710725    12.000000000000
         C            1.092159379399     1.202189786692    -0.000074710725    12.000000000000
         C           -1.148439220601    -0.361307413308     0.000152289275    12.000000000000
         C           -0.222175620601     1.705363786692     0.000065289275    12.000000000000
         H            0.104188379399    -1.921240213308    -0.000205710725     1.007825032230
         H            1.956033379399     1.855358786692    -0.000147710725     1.007825032230
         H           -0.354415620601     2.788562786692     0.000226289275     1.007825032230
         H            3.277079379399    -0.333130213308     0.000584289275     1.007825032230
         H            2.453732379399    -1.851372213308     0.001020289275     1.007825032230

  Basis Set: AUG-CC-PVTZ
    Blend: AUG-CC-PVTZ
  Basis Set: (AUG-CC-PVTZ AUX)
    Blend: AUG-CC-PVTZ-JKFIT
	 Reference Energy          =    -392.7345794525533620 [Eh]
	 Singles Energy            =      -0.0000000000000000 [Eh]
	 Same-Spin Energy          =      -0.4083657747042835 [Eh]
	 Opposite-Spin Energy      =      -1.2170121066096771 [Eh]
	 Correlation Energy        =      -1.6253778813139605 [Eh]
	 Total Energy              =    -394.3599573338673281 [Eh]

	 ================> DF-SCS-MP2 Energies <==================
	-----------------------------------------------------------
	 SCS Same-Spin Scale       =       0.3333333333333333 [-]
	 SCS Opposite-Spin Scale   =       1.2000000000000000 [-]
	 SCS Same-Spin Energy      =      -0.1361219249014278 [Eh]
	 SCS Opposite-Spin Energy  =      -1.4604145279316125 [Eh]
	 SCS Correlation Energy    =      -1.5965364528330404 [Eh]
	 SCS Total Energy          =    -394.3311159053864117 [Eh]
	-----------------------------------------------------------

  Dipole Moment: [D]
     X:     8.9458      Y:    -0.5147      Z:     0.0030     Total:     8.9606

*** Psi4 exiting successfully. Buy a developer a beer!
