                               Psi4 1.3.2 release

  ==> Input File <==

--------------------------------------------------------------------------
#psi4
#
memory 32 gb

molecule  {
0 1
  O       -2.2334690    -1.1675340     0.0001340
  N       -0.0364937    -1.0439863    -0.0000245
  N        2.3544690    -0.8475160    -0.0005320
  N       -1.3973450     1.0028810     0.0002180
  C        1.1706060    -0.1768690    -0.0001310
  C        1.0385970     1.1986830    -0.0000890
  C       -1.2978830    -0.3751090     0.0001540
  C       -0.2757380     1.7018570     0.0000510
  H        0.0506260    -1.9247470    -0.0002200
  H        1.9024710     1.8518520    -0.0001620
  H       -0.4079780     2.7850560     0.0002120
  H        3.2235170    -0.3366370     0.0005700
  H        2.4001700    -1.8548790     0.0010060
units angstrom
no_reorient  #important for SAPT in psi4, default
symmetry c1  #important for SAPT in psi4, default
}

set PROPERTIES_ORIGIN ["COM"]
properties('MP2/aug-cc-pvtz', properties = ['dipole'])
--------------------------------------------------------------------------

    Molecular point group: c1
  Charge       = 0
  Multiplicity = 1
  Basis Set: AUG-CC-PVTZ
    Blend: AUG-CC-PVTZ
  Basis Set: (AUG-CC-PVTZ AUX)
    Blend: AUG-CC-PVTZ-JKFIT

    Orbital Energies [Eh]
    ---------------------

    Doubly Occupied:

       1A    -20.499645     2A    -15.631481     3A    -15.616560
       4A    -15.552293     5A    -11.393851     6A    -11.371869
       7A    -11.315812     8A    -11.240141     9A     -1.382153
      10A     -1.307080    11A     -1.238524    12A     -1.203122
      13A     -1.060800    14A     -0.921390    15A     -0.865029
      16A     -0.788105    17A     -0.765674    18A     -0.731107
      19A     -0.683811    20A     -0.640450    21A     -0.622490
      22A     -0.620287    23A     -0.565253    24A     -0.546891
      25A     -0.465148    26A     -0.445056    27A     -0.430551
      28A     -0.415265    29A     -0.330388

  @DF-RHF Final Energy:  -392.71696909916631

   => Energetics <=

    Nuclear Repulsion Energy =            353.0225200285570963
    One-Electron Energy =               -1234.1785282049756916
    Two-Electron Energy =                 488.4390390772522892
    Total Energy =                       -392.7169690991663060
  Basis Set: (AUG-CC-PVTZ AUX)
    Blend: AUG-CC-PVTZ-RI
    Molecular point group: c1

    Geometry (in Angstrom), charge = 0, multiplicity = 1:

       Center              X                  Y                   Z               Mass
    ------------   -----------------  -----------------  -----------------  -----------------
         O           -2.161599663024    -1.145825583223     0.000146244957    15.994914619570
         N            0.035375636976    -1.022277883223    -0.000012255043    14.003074004430
         N            2.426338336976    -0.825807583223    -0.000519755043    14.003074004430
         N           -1.325475663024     1.024589416777     0.000230244957    14.003074004430
         C            1.242475336976    -0.155160583223    -0.000118755043    12.000000000000
         C            1.110466336976     1.220391416777    -0.000076755043    12.000000000000
         C           -1.226013663024    -0.353400583223     0.000166244957    12.000000000000
         C           -0.203868663024     1.723565416777     0.000063244957    12.000000000000
         H            0.122495336976    -1.903038583223    -0.000207755043     1.007825032230
         H            1.974340336976     1.873560416777    -0.000149755043     1.007825032230
         H           -0.336108663024     2.806764416777     0.000224244957     1.007825032230
         H            3.295386336976    -0.314928583223     0.000582244957     1.007825032230
         H            2.472039336976    -1.833170583223     0.001018244957     1.007825032230

  Basis Set: AUG-CC-PVTZ
    Blend: AUG-CC-PVTZ
  Basis Set: (AUG-CC-PVTZ AUX)
    Blend: AUG-CC-PVTZ-JKFIT
	 Reference Energy          =    -392.7169690991663060 [Eh]
	 Singles Energy            =      -0.0000000000000000 [Eh]
	 Same-Spin Energy          =      -0.4052444582813336 [Eh]
	 Opposite-Spin Energy      =      -1.2140162828649386 [Eh]
	 Correlation Energy        =      -1.6192607411462721 [Eh]
	 Total Energy              =    -394.3362298403125692 [Eh]

	 ================> DF-SCS-MP2 Energies <==================
	-----------------------------------------------------------
	 SCS Same-Spin Scale       =       0.3333333333333333 [-]
	 SCS Opposite-Spin Scale   =       1.2000000000000000 [-]
	 SCS Same-Spin Energy      =      -0.1350814860937778 [Eh]
	 SCS Opposite-Spin Energy  =      -1.4568195394379262 [Eh]
	 SCS Correlation Energy    =      -1.5919010255317041 [Eh]
	 SCS Total Energy          =    -394.3088701246979895 [Eh]
	-----------------------------------------------------------

  Dipole Moment: [D]
     X:     8.3092      Y:    -0.4457      Z:     0.0029     Total:     8.3211

*** Psi4 exiting successfully. Buy a developer a beer!
