                               Psi4 1.3.2 release

  ==> Input File <==

--------------------------------------------------------------------------
#psi4
#
memory 32 gb

molecule  {
0 1
  O       -2.2334690    -1.1675340     0.0001340
  N        0.0265130    -0.9084710    -0.0000270
  N        2.3544690    -0.8475160    -0.0005320
  N       -1.3973450     1.0028810     0.0002180
  C        1.1706060    -0.1768690    -0.0001310
  C        1.0385970     1.1986830    -0.0000890
  C       -1.2978830    -0.3751090     0.0001540
  C       -0.2667562     1.7247187     0.0000506
  H        0.0506260    -1.9247470    -0.0002200
  H        1.9024710     1.8518520    -0.0001620
  H       -0.4079780     2.7850560     0.0002120
  H        3.2235170    -0.3366370     0.0005700
  H        2.4001700    -1.8548790     0.0010060
units angstrom
no_reorient  #important for SAPT in psi4, default
symmetry c1  #important for SAPT in psi4, default
}

set PROPERTIES_ORIGIN ["COM"]
properties('MP2/aug-cc-pvtz', properties = ['dipole'])
--------------------------------------------------------------------------

    Molecular point group: c1
  Charge       = 0
  Multiplicity = 1
  Basis Set: AUG-CC-PVTZ
    Blend: AUG-CC-PVTZ
  Basis Set: (AUG-CC-PVTZ AUX)
    Blend: AUG-CC-PVTZ-JKFIT

    Orbital Energies [Eh]
    ---------------------

    Doubly Occupied:

       1A    -20.507714     2A    -15.632151     3A    -15.629869
       4A    -15.545324     5A    -11.385453     6A    -11.374449
       7A    -11.310273     8A    -11.233767     9A     -1.387210
      10A     -1.323248    11A     -1.239792    12A     -1.194712
      13A     -1.057559    14A     -0.912402    15A     -0.882449
      16A     -0.784183    17A     -0.752204    18A     -0.723392
      19A     -0.691879    20A     -0.638347    21A     -0.637799
      22A     -0.619297    23A     -0.571765    24A     -0.547102
      25A     -0.456696    26A     -0.445053    27A     -0.441702
      28A     -0.414745    29A     -0.324843

  @DF-RHF Final Energy:  -392.74953035345175

   => Energetics <=

    Nuclear Repulsion Energy =            354.7376336840102908
    One-Electron Energy =               -1237.6435692252066474
    Two-Electron Energy =                 490.1564051877446673
    Total Energy =                       -392.7495303534517461
  Basis Set: (AUG-CC-PVTZ AUX)
    Blend: AUG-CC-PVTZ-RI
    Molecular point group: c1

    Geometry (in Angstrom), charge = 0, multiplicity = 1:

       Center              X                  Y                   Z               Mass
    ------------   -----------------  -----------------  -----------------  -----------------
         O           -2.170515729311    -1.165385267795     0.000146603445    15.994914619570
         N            0.089466270689    -0.906322267795    -0.000014396555    14.003074004430
         N            2.417422270689    -0.845367267795    -0.000519396555    14.003074004430
         N           -1.334391729311     1.005029732205     0.000230603445    14.003074004430
         C            1.233559270689    -0.174720267795    -0.000118396555    12.000000000000
         C            1.101550270689     1.200831732205    -0.000076396555    12.000000000000
         C           -1.234929729311    -0.372960267795     0.000166603445    12.000000000000
         C           -0.203802929311     1.726867432205     0.000063203445    12.000000000000
         H            0.113579270689    -1.922598267795    -0.000207396555     1.007825032230
         H            1.965424270689     1.854000732205    -0.000149396555     1.007825032230
         H           -0.345024729311     2.787204732205     0.000224603445     1.007825032230
         H            3.286470270689    -0.334488267795     0.000582603445     1.007825032230
         H            2.463123270689    -1.852730267795     0.001018603445     1.007825032230

  Basis Set: AUG-CC-PVTZ
    Blend: AUG-CC-PVTZ
  Basis Set: (AUG-CC-PVTZ AUX)
    Blend: AUG-CC-PVTZ-JKFIT
	 Reference Energy          =    -392.7495303534517461 [Eh]
	 Singles Energy            =      -0.0000000000000000 [Eh]
	 Same-Spin Energy          =      -0.4071098202849769 [Eh]
	 Opposite-Spin Energy      =      -1.2146151584396376 [Eh]
	 Correlation Energy        =      -1.6217249787246146 [Eh]
	 Total Energy              =    -394.3712553321763608 [Eh]

	 ================> DF-SCS-MP2 Energies <==================
	-----------------------------------------------------------
	 SCS Same-Spin Scale       =       0.3333333333333333 [-]
	 SCS Opposite-Spin Scale   =       1.2000000000000000 [-]
	 SCS Same-Spin Energy      =      -0.1357032734283256 [Eh]
	 SCS Opposite-Spin Energy  =      -1.4575381901275650 [Eh]
	 SCS Correlation Energy    =      -1.5932414635558907 [Eh]
	 SCS Total Energy          =    -394.3427718170076446 [Eh]
	-----------------------------------------------------------

  Dipole Moment: [D]
     X:     8.2078      Y:    -0.8247      Z:     0.0030     Total:     8.2492

*** Psi4 exiting successfully. Buy a developer a beer!
