                               Psi4 1.3.2 release

  ==> Input File <==

--------------------------------------------------------------------------
#psi4
#
memory 32 gb

molecule  {
0 1
  O       -2.2334690    -1.1675340     0.0001340
  N        0.0265130    -0.9084710    -0.0000270
  N        2.3544690    -0.8475160    -0.0005320
  N       -1.3973450     1.0028810     0.0002180
  C        1.0021104    -0.2846152    -0.0001157
  C        1.0385970     1.1986830    -0.0000890
  C       -1.2978830    -0.3751090     0.0001540
  C       -0.2757380     1.7018570     0.0000510
  H        0.0506260    -1.9247470    -0.0002200
  H        1.9024710     1.8518520    -0.0001620
  H       -0.4079780     2.7850560     0.0002120
  H        3.2235170    -0.3366370     0.0005700
  H        2.4001700    -1.8548790     0.0010060
units angstrom
no_reorient  #important for SAPT in psi4, default
symmetry c1  #important for SAPT in psi4, default
}

set PROPERTIES_ORIGIN ["COM"]
properties('MP2/aug-cc-pvtz', properties = ['dipole'])
--------------------------------------------------------------------------

    Molecular point group: c1
  Charge       = 0
  Multiplicity = 1
  Basis Set: AUG-CC-PVTZ
    Blend: AUG-CC-PVTZ
  Basis Set: (AUG-CC-PVTZ AUX)
    Blend: AUG-CC-PVTZ-JKFIT

    Orbital Energies [Eh]
    ---------------------

    Doubly Occupied:

       1A    -20.521577     2A    -15.660552     3A    -15.617705
       4A    -15.540557     5A    -11.387098     6A    -11.386933
       7A    -11.298239     8A    -11.234925     9A     -1.439652
      10A     -1.358595    11A     -1.227925    12A     -1.208891
      13A     -1.037098    14A     -0.932353    15A     -0.904559
      16A     -0.804035    17A     -0.750008    18A     -0.721836
      19A     -0.681805    20A     -0.680408    21A     -0.632741
      22A     -0.612251    23A     -0.559633    24A     -0.543492
      25A     -0.465927    26A     -0.455538    27A     -0.452012
      28A     -0.413695    29A     -0.313499

  @DF-RHF Final Energy:  -392.68637919873004

   => Energetics <=

    Nuclear Repulsion Energy =            357.1379993235825623
    One-Electron Energy =               -1241.9616825441389665
    Two-Electron Energy =                 492.1373040218263668
    Total Energy =                       -392.6863791987300374
  Basis Set: (AUG-CC-PVTZ AUX)
    Blend: AUG-CC-PVTZ-RI
    Molecular point group: c1

    Geometry (in Angstrom), charge = 0, multiplicity = 1:

       Center              X                  Y                   Z               Mass
    ------------   -----------------  -----------------  -----------------  -----------------
         O           -2.151336458407    -1.151270995802     0.000144906809    15.994914619570
         N            0.108645541593    -0.892207995802    -0.000016093191    14.003074004430
         N            2.436601541593    -0.831252995802    -0.000521093191    14.003074004430
         N           -1.315212458407     1.019144004198     0.000228906809    14.003074004430
         C            1.084242941593    -0.268352195802    -0.000104793191    12.000000000000
         C            1.120729541593     1.214946004198    -0.000078093191    12.000000000000
         C           -1.215750458407    -0.358845995802     0.000164906809    12.000000000000
         C           -0.193605458407     1.718120004198     0.000061906809    12.000000000000
         H            0.132758541593    -1.908483995802    -0.000209093191     1.007825032230
         H            1.984603541593     1.868115004198    -0.000151093191     1.007825032230
         H           -0.325845458407     2.801319004198     0.000222906809     1.007825032230
         H            3.305649541593    -0.320373995802     0.000580906809     1.007825032230
         H            2.482302541593    -1.838615995802     0.001016906809     1.007825032230

  Basis Set: AUG-CC-PVTZ
    Blend: AUG-CC-PVTZ
  Basis Set: (AUG-CC-PVTZ AUX)
    Blend: AUG-CC-PVTZ-JKFIT
	 Reference Energy          =    -392.6863791987300374 [Eh]
	 Singles Energy            =      -0.0000000000000000 [Eh]
	 Same-Spin Energy          =      -0.4073917244953973 [Eh]
	 Opposite-Spin Energy      =      -1.2147796345669830 [Eh]
	 Correlation Energy        =      -1.6221713590623803 [Eh]
	 Total Energy              =    -394.3085505577924437 [Eh]

	 ================> DF-SCS-MP2 Energies <==================
	-----------------------------------------------------------
	 SCS Same-Spin Scale       =       0.3333333333333333 [-]
	 SCS Opposite-Spin Scale   =       1.2000000000000000 [-]
	 SCS Same-Spin Energy      =      -0.1357972414984658 [Eh]
	 SCS Opposite-Spin Energy  =      -1.4577355614803795 [Eh]
	 SCS Correlation Energy    =      -1.5935328029788454 [Eh]
	 SCS Total Energy          =    -394.2799120017089081 [Eh]
	-----------------------------------------------------------

  Dipole Moment: [D]
     X:     7.4663      Y:    -1.3820      Z:     0.0032     Total:     7.5932

*** Psi4 exiting successfully. Buy a developer a beer!
