                               Psi4 1.4a3.dev225

  ==> Input File <==

--------------------------------------------------------------------------
#psi4
#
memory 32 gb

molecule  {
0 1
  O        2.2358750    -1.1647400    -0.0019990
  N       -0.0266920    -0.9090020    -0.0014130
  N       -2.3606070    -0.8668920    -0.0783920
  N        1.3942980     1.0030250     0.0093070
  C       -1.1689180    -0.1740660     0.0003700
  C       -1.0400980     1.1965590     0.0002140
  C        1.2919419    -0.4292493     0.0031164
  C        0.2772380     1.7038820     0.0017870
  H       -0.0608440    -1.9231390    -0.0684580
  H       -1.9045160     1.8491770     0.0118680
  H        0.4106550     2.7868440     0.0040290
  H       -3.1798030    -0.3063160     0.1264620
  H       -2.3838550    -1.7605480     0.4013470
units angstrom
no_reorient  #important for SAPT in psi4, default
symmetry c1  #important for SAPT in psi4, default
}

set PROPERTIES_ORIGIN ["COM"]
properties('MP2/aug-cc-pvtz', properties = ['dipole'])
--------------------------------------------------------------------------

    Molecular point group: c1
  Charge       = 0
  Multiplicity = 1
  Basis Set: AUG-CC-PVTZ
    Blend: AUG-CC-PVTZ
  Basis Set: (AUG-CC-PVTZ AUX)
    Blend: AUG-CC-PVTZ-JKFIT

    Orbital Energies [Eh]
    ---------------------

    Doubly Occupied:

       1A    -20.520880     2A    -15.634743     3A    -15.625344
       4A    -15.550903     5A    -11.379433     6A    -11.379019
       7A    -11.306171     8A    -11.234651     9A     -1.407727
      10A     -1.329449    11A     -1.241226    12A     -1.195930
      13A     -1.055927    14A     -0.903095    15A     -0.886965
      16A     -0.775704    17A     -0.743569    18A     -0.715703
      19A     -0.686423    20A     -0.646145    21A     -0.633429
      22A     -0.629040    23A     -0.574399    24A     -0.550760
      25A     -0.465150    26A     -0.459360    27A     -0.451410
      28A     -0.412069    29A     -0.328853

  @DF-RHF Final Energy:  -392.74899616121604

   => Energetics <=

    Nuclear Repulsion Energy =            354.9641169441809438
    One-Electron Energy =               -1237.9792722205584141
    Two-Electron Energy =                 490.2661591151614857
    Total Energy =                       -392.7489961612160414
  Basis Set: (AUG-CC-PVTZ AUX)
    Blend: AUG-CC-PVTZ-RI
    Molecular point group: c1

    Geometry (in Angstrom), charge = 0, multiplicity = 1:

       Center              X                  Y                   Z               Mass
    ------------   -----------------  -----------------  -----------------  -----------------
         O            2.172787285334    -1.153610309417     0.002272730737    15.994914619570
         N           -0.089779714666    -0.897872309417     0.002858730737    14.003074004430
         N           -2.423694714666    -0.855762309417    -0.074120269263    14.003074004430
         N            1.331210285334     1.014154690583     0.013578730737    14.003074004430
         C           -1.232005714666    -0.162936309417     0.004641730737    12.000000000000
         C           -1.103185714666     1.207688690583     0.004485730737    12.000000000000
         C            1.228854185334    -0.418119609417     0.007388130737    12.000000000000
         C            0.214150285334     1.715011690583     0.006058730737    12.000000000000
         H           -0.123931714666    -1.912009309417    -0.064186269263     1.007825032230
         H           -1.967603714666     1.860306690583     0.016139730737     1.007825032230
         H            0.347567285334     2.797973690583     0.008300730737     1.007825032230
         H           -3.242890714666    -0.295186309417     0.130733730737     1.007825032230
         H           -2.446942714666    -1.749418309417     0.405618730737     1.007825032230

  Basis Set: AUG-CC-PVTZ
    Blend: AUG-CC-PVTZ
  Basis Set: (AUG-CC-PVTZ AUX)
    Blend: AUG-CC-PVTZ-JKFIT
	 Reference Energy          =    -392.7489961612160414 [Eh]
	 Singles Energy            =      -0.0000000000000000 [Eh]
	 Same-Spin Energy          =      -0.4063174904812221 [Eh]
	 Opposite-Spin Energy      =      -1.2148597657096407 [Eh]
	 Correlation Energy        =      -1.6211772561908628 [Eh]
	 Total Energy              =    -394.3701734174069315 [Eh]

	 ================> DF-SCS-MP2 Energies <==================
	-----------------------------------------------------------
	 SCS Same-Spin Scale       =       0.3333333333333333 [-]
	 SCS Opposite-Spin Scale   =       1.2000000000000000 [-]
	 SCS Same-Spin Energy      =      -0.1354391634937407 [Eh]
	 SCS Opposite-Spin Energy  =      -1.4578317188515688 [Eh]
	 SCS Correlation Energy    =      -1.5932708823453094 [Eh]
	 SCS Total Energy          =    -394.3422670435613782 [Eh]
	-----------------------------------------------------------

  Dipole Moment: [D]
     X:    -7.3760      Y:    -0.6703      Z:     0.8623     Total:     7.4564

*** Psi4 exiting successfully. Buy a developer a beer!
