                               Psi4 1.4a3.dev225

  ==> Input File <==

--------------------------------------------------------------------------
#psi4
#
memory 32 gb

molecule  {
0 1
  O        2.2358750    -1.1647400    -0.0019990
  N       -0.0266920    -0.9090020    -0.0014130
  N       -2.3606070    -0.8668920    -0.0783920
  N        1.3942980     1.0030250     0.0093070
  C       -1.1689180    -0.1740660     0.0003700
  C       -1.0400980     1.1965590     0.0002140
  C        1.2955060    -0.3793770     0.0033320
  C        0.3195912     1.6773091     0.0020721
  H       -0.0608440    -1.9231390    -0.0684580
  H       -1.9045160     1.8491770     0.0118680
  H        0.4106550     2.7868440     0.0040290
  H       -3.1798030    -0.3063160     0.1264620
  H       -2.3838550    -1.7605480     0.4013470
units angstrom
no_reorient  #important for SAPT in psi4, default
symmetry c1  #important for SAPT in psi4, default
}

set PROPERTIES_ORIGIN ["COM"]
properties('MP2/aug-cc-pvtz', properties = ['dipole'])
--------------------------------------------------------------------------

    Molecular point group: c1
  Charge       = 0
  Multiplicity = 1
  Basis Set: AUG-CC-PVTZ
    Blend: AUG-CC-PVTZ
  Basis Set: (AUG-CC-PVTZ AUX)
    Blend: AUG-CC-PVTZ-JKFIT

    Orbital Energies [Eh]
    ---------------------

    Doubly Occupied:

       1A    -20.517966     2A    -15.632608     3A    -15.622960
       4A    -15.553735     5A    -11.383597     6A    -11.375934
       7A    -11.311158     8A    -11.235847     9A     -1.395727
      10A     -1.322373    11A     -1.255286    12A     -1.208307
      13A     -1.053676    14A     -0.905923    15A     -0.885763
      16A     -0.774143    17A     -0.751577    18A     -0.712995
      19A     -0.687624    20A     -0.644779    21A     -0.629407
      22A     -0.624871    23A     -0.575091    24A     -0.548945
      25A     -0.471778    26A     -0.456200    27A     -0.449213
      28A     -0.418197    29A     -0.331891

  @DF-RHF Final Energy:  -392.75000249476682

   => Energetics <=

    Nuclear Repulsion Energy =            355.5482548347021634
    One-Electron Energy =               -1239.1213707371341570
    Two-Electron Energy =                 490.8231134076651188
    Total Energy =                       -392.7500024947668180
  Basis Set: (AUG-CC-PVTZ AUX)
    Blend: AUG-CC-PVTZ-RI
    Molecular point group: c1

    Geometry (in Angstrom), charge = 0, multiplicity = 1:

       Center              X                  Y                   Z               Mass
    ------------   -----------------  -----------------  -----------------  -----------------
         O            2.167825186859    -1.156128182141     0.002218622096    15.994914619570
         N           -0.094741813141    -0.900390182141     0.002804622096    14.003074004430
         N           -2.428656813141    -0.858280182141    -0.074174377904    14.003074004430
         N            1.326248186859     1.011636817859     0.013524622096    14.003074004430
         C           -1.236967813141    -0.165454182141     0.004587622096    12.000000000000
         C           -1.108147813141     1.205170817859     0.004431622096    12.000000000000
         C            1.227456186859    -0.370765182141     0.007549622096    12.000000000000
         C            0.251541386859     1.685920917859     0.006289722096    12.000000000000
         H           -0.128893813141    -1.914527182141    -0.064240377904     1.007825032230
         H           -1.972565813141     1.857788817859     0.016085622096     1.007825032230
         H            0.342605186859     2.795455817859     0.008246622096     1.007825032230
         H           -3.247852813141    -0.297704182141     0.130679622096     1.007825032230
         H           -2.451904813141    -1.751936182141     0.405564622096     1.007825032230

  Basis Set: AUG-CC-PVTZ
    Blend: AUG-CC-PVTZ
  Basis Set: (AUG-CC-PVTZ AUX)
    Blend: AUG-CC-PVTZ-JKFIT
	 Reference Energy          =    -392.7500024947668180 [Eh]
	 Singles Energy            =      -0.0000000000000000 [Eh]
	 Same-Spin Energy          =      -0.4059029318894725 [Eh]
	 Opposite-Spin Energy      =      -1.2137828066717662 [Eh]
	 Correlation Energy        =      -1.6196857385612387 [Eh]
	 Total Energy              =    -394.3696882333280769 [Eh]

	 ================> DF-SCS-MP2 Energies <==================
	-----------------------------------------------------------
	 SCS Same-Spin Scale       =       0.3333333333333333 [-]
	 SCS Opposite-Spin Scale   =       1.2000000000000000 [-]
	 SCS Same-Spin Energy      =      -0.1353009772964908 [Eh]
	 SCS Opposite-Spin Energy  =      -1.4565393680061194 [Eh]
	 SCS Correlation Energy    =      -1.5918403453026102 [Eh]
	 SCS Total Energy          =    -394.3418428400694324 [Eh]
	-----------------------------------------------------------

  Dipole Moment: [D]
     X:    -7.2973      Y:    -0.4352      Z:     0.8624     Total:     7.3610

*** Psi4 exiting successfully. Buy a developer a beer!
