                               Psi4 1.3.2 release

  ==> Input File <==

--------------------------------------------------------------------------
#psi4
#
memory 32 gb

molecule  {
0 1
  O       -2.2334690    -1.1675340     0.0001340
  N        0.0265130    -0.9084710    -0.0000270
  N        2.3544690    -0.8475160    -0.0005320
  N       -1.3973450     1.0028810     0.0002180
  C        1.1465792    -0.1789634    -0.0001287
  C        1.0385970     1.1986830    -0.0000890
  C       -1.2978830    -0.3751090     0.0001540
  C       -0.2757380     1.7018570     0.0000510
  H        0.0506260    -1.9247470    -0.0002200
  H        1.9024710     1.8518520    -0.0001620
  H       -0.4079780     2.7850560     0.0002120
  H        3.2235170    -0.3366370     0.0005700
  H        2.4001700    -1.8548790     0.0010060
units angstrom
no_reorient  #important for SAPT in psi4, default
symmetry c1  #important for SAPT in psi4, default
}

set PROPERTIES_ORIGIN ["COM"]
properties('MP2/aug-cc-pvtz', properties = ['dipole'])
--------------------------------------------------------------------------

    Molecular point group: c1
  Charge       = 0
  Multiplicity = 1
  Basis Set: AUG-CC-PVTZ
    Blend: AUG-CC-PVTZ
  Basis Set: (AUG-CC-PVTZ AUX)
    Blend: AUG-CC-PVTZ-JKFIT

    Orbital Energies [Eh]
    ---------------------

    Doubly Occupied:

       1A    -20.510692     2A    -15.634968     3A    -15.625743
       4A    -15.546448     5A    -11.383927     6A    -11.377035
       7A    -11.308961     8A    -11.232899     9A     -1.391759
      10A     -1.323715    11A     -1.240243    12A     -1.201133
      13A     -1.058019    14A     -0.909641    15A     -0.886227
      16A     -0.783457    17A     -0.753457    18A     -0.718426
      19A     -0.692778    20A     -0.641130    21A     -0.635890
      22A     -0.621473    23A     -0.571615    24A     -0.545083
      25A     -0.461269    26A     -0.448797    27A     -0.443511
      28A     -0.416104    29A     -0.326024

  @DF-RHF Final Energy:  -392.75077546851242

   => Energetics <=

    Nuclear Repulsion Energy =            355.4237416642221206
    One-Electron Energy =               -1238.9681837206655928
    Two-Electron Energy =                 490.7936665879310567
    Total Energy =                       -392.7507754685124155
  Basis Set: (AUG-CC-PVTZ AUX)
    Blend: AUG-CC-PVTZ-RI
    Molecular point group: c1

    Geometry (in Angstrom), charge = 0, multiplicity = 1:

       Center              X                  Y                   Z               Mass
    ------------   -----------------  -----------------  -----------------  -----------------
         O           -2.166948622279    -1.162688362147     0.000146311667    15.994914619570
         N            0.093033377721    -0.903625362147    -0.000014688333    14.003074004430
         N            2.420989377721    -0.842670362147    -0.000519688333    14.003074004430
         N           -1.330824622279     1.007726637853     0.000230311667    14.003074004430
         C            1.213099577721    -0.174117762147    -0.000116388333    12.000000000000
         C            1.105117377721     1.203528637853    -0.000076688333    12.000000000000
         C           -1.231362622279    -0.370263362147     0.000166311667    12.000000000000
         C           -0.209217622279     1.706702637853     0.000063311667    12.000000000000
         H            0.117146377721    -1.919901362147    -0.000207688333     1.007825032230
         H            1.968991377721     1.856697637853    -0.000149688333     1.007825032230
         H           -0.341457622279     2.789901637853     0.000224311667     1.007825032230
         H            3.290037377721    -0.331791362147     0.000582311667     1.007825032230
         H            2.466690377721    -1.850033362147     0.001018311667     1.007825032230

  Basis Set: AUG-CC-PVTZ
    Blend: AUG-CC-PVTZ
  Basis Set: (AUG-CC-PVTZ AUX)
    Blend: AUG-CC-PVTZ-JKFIT
	 Reference Energy          =    -392.7507754685124155 [Eh]
	 Singles Energy            =      -0.0000000000000000 [Eh]
	 Same-Spin Energy          =      -0.4068481128989350 [Eh]
	 Opposite-Spin Energy      =      -1.2140348909820888 [Eh]
	 Correlation Energy        =      -1.6208830038810238 [Eh]
	 Total Energy              =    -394.3716584723934488 [Eh]

	 ================> DF-SCS-MP2 Energies <==================
	-----------------------------------------------------------
	 SCS Same-Spin Scale       =       0.3333333333333333 [-]
	 SCS Opposite-Spin Scale   =       1.2000000000000000 [-]
	 SCS Same-Spin Energy      =      -0.1356160376329783 [Eh]
	 SCS Opposite-Spin Energy  =      -1.4568418691785066 [Eh]
	 SCS Correlation Energy    =      -1.5924579068114848 [Eh]
	 SCS Total Energy          =    -394.3432333753239050 [Eh]
	-----------------------------------------------------------

  Dipole Moment: [D]
     X:     7.9833      Y:    -0.8453      Z:     0.0031     Total:     8.0279

*** Psi4 exiting successfully. Buy a developer a beer!
