                               Psi4 1.3.2 release

  ==> Input File <==

--------------------------------------------------------------------------
#psi4
#
memory 32 gb

molecule  {
0 1
  O       -2.2334690    -1.1675340     0.0001340
  N        0.0265130    -0.9084710    -0.0000270
  N        2.3544690    -0.8475160    -0.0005320
  N       -1.3973450     1.0028810     0.0002180
  C        1.1706060    -0.1768690    -0.0001310
  C        1.0385970     1.1986830    -0.0000890
  C       -1.2574514    -0.2840230     0.0001687
  C       -0.2757380     1.7018570     0.0000510
  H        0.0506260    -1.9247470    -0.0002200
  H        1.9024710     1.8518520    -0.0001620
  H       -0.4079780     2.7850560     0.0002120
  H        3.2235170    -0.3366370     0.0005700
  H        2.4001700    -1.8548790     0.0010060
units angstrom
no_reorient  #important for SAPT in psi4, default
symmetry c1  #important for SAPT in psi4, default
}

set PROPERTIES_ORIGIN ["COM"]
properties('MP2/aug-cc-pvtz', properties = ['dipole'])
--------------------------------------------------------------------------

    Molecular point group: c1
  Charge       = 0
  Multiplicity = 1
  Basis Set: AUG-CC-PVTZ
    Blend: AUG-CC-PVTZ
  Basis Set: (AUG-CC-PVTZ AUX)
    Blend: AUG-CC-PVTZ-JKFIT

    Orbital Energies [Eh]
    ---------------------

    Doubly Occupied:

       1A    -20.482644     2A    -15.638436     3A    -15.635271
       4A    -15.550581     5A    -11.391151     6A    -11.370913
       7A    -11.321962     8A    -11.243539     9A     -1.373718
      10A     -1.302413    11A     -1.240387    12A     -1.212157
      13A     -1.068416    14A     -0.925756    15A     -0.885627
      16A     -0.789322    17A     -0.768456    18A     -0.727861
      19A     -0.697807    20A     -0.648274    21A     -0.642706
      22A     -0.607753    23A     -0.548264    24A     -0.545517
      25A     -0.462497    26A     -0.440174    27A     -0.427526
      28A     -0.407840    29A     -0.330474

  @DF-RHF Final Energy:  -392.73184110338104

   => Energetics <=

    Nuclear Repulsion Energy =            355.6419394659864679
    One-Electron Energy =               -1239.3726769975519346
    Two-Electron Energy =                 490.9988964281843664
    Total Energy =                       -392.7318411033810435
  Basis Set: (AUG-CC-PVTZ AUX)
    Blend: AUG-CC-PVTZ-RI
    Molecular point group: c1

    Geometry (in Angstrom), charge = 0, multiplicity = 1:

       Center              X                  Y                   Z               Mass
    ------------   -----------------  -----------------  -----------------  -----------------
         O           -2.173914383078    -1.172757994306     0.000144971649    15.994914619570
         N            0.086067616922    -0.913694994306    -0.000016028351    14.003074004430
         N            2.414023616922    -0.852739994306    -0.000521028351    14.003074004430
         N           -1.337790383078     0.997657005694     0.000228971649    14.003074004430
         C            1.230160616922    -0.182092994306    -0.000120028351    12.000000000000
         C            1.098151616922     1.193459005694    -0.000078028351    12.000000000000
         C           -1.197896783078    -0.289246994306     0.000179671649    12.000000000000
         C           -0.216183383078     1.696633005694     0.000061971649    12.000000000000
         H            0.110180616922    -1.929970994306    -0.000209028351     1.007825032230
         H            1.962025616922     1.846628005694    -0.000151028351     1.007825032230
         H           -0.348423383078     2.779832005694     0.000222971649     1.007825032230
         H            3.283071616922    -0.341860994306     0.000580971649     1.007825032230
         H            2.459724616922    -1.860102994306     0.001016971649     1.007825032230

  Basis Set: AUG-CC-PVTZ
    Blend: AUG-CC-PVTZ
  Basis Set: (AUG-CC-PVTZ AUX)
    Blend: AUG-CC-PVTZ-JKFIT
	 Reference Energy          =    -392.7318411033810435 [Eh]
	 Singles Energy            =      -0.0000000000000000 [Eh]
	 Same-Spin Energy          =      -0.4084718282335301 [Eh]
	 Opposite-Spin Energy      =      -1.2162216855876227 [Eh]
	 Correlation Energy        =      -1.6246935138211529 [Eh]
	 Total Energy              =    -394.3565346172022146 [Eh]

	 ================> DF-SCS-MP2 Energies <==================
	-----------------------------------------------------------
	 SCS Same-Spin Scale       =       0.3333333333333333 [-]
	 SCS Opposite-Spin Scale   =       1.2000000000000000 [-]
	 SCS Same-Spin Energy      =      -0.1361572760778434 [Eh]
	 SCS Opposite-Spin Energy  =      -1.4594660227051472 [Eh]
	 SCS Correlation Energy    =      -1.5956232987829906 [Eh]
	 SCS Total Energy          =    -394.3274644021640256 [Eh]
	-----------------------------------------------------------

  Dipole Moment: [D]
     X:     8.9731      Y:    -0.2185      Z:     0.0030     Total:     8.9758

*** Psi4 exiting successfully. Buy a developer a beer!
