                               Psi4 1.3.2 release

  ==> Input File <==

--------------------------------------------------------------------------
#psi4
#
memory 32 gb

molecule  {
0 1
  O       -2.2334690    -1.1675340     0.0001340
  N        0.0265130    -0.9084710    -0.0000270
  N        2.3544690    -0.8475160    -0.0005320
  N       -1.3973450     1.0028810     0.0002180
  C        1.1267079    -0.2610847    -0.0002680
  C        1.0385970     1.1986830    -0.0000890
  C       -1.2978830    -0.3751090     0.0001540
  C       -0.2757380     1.7018570     0.0000510
  H        0.0506260    -1.9247470    -0.0002200
  H        1.9024710     1.8518520    -0.0001620
  H       -0.4079780     2.7850560     0.0002120
  H        3.2235170    -0.3366370     0.0005700
  H        2.4001700    -1.8548790     0.0010060
units angstrom
no_reorient  #important for SAPT in psi4, default
symmetry c1  #important for SAPT in psi4, default
}

set PROPERTIES_ORIGIN ["COM"]
properties('MP2/aug-cc-pvtz', properties = ['dipole'])
--------------------------------------------------------------------------

    Molecular point group: c1
  Charge       = 0
  Multiplicity = 1
  Basis Set: AUG-CC-PVTZ
    Blend: AUG-CC-PVTZ
  Basis Set: (AUG-CC-PVTZ AUX)
    Blend: AUG-CC-PVTZ-JKFIT

    Orbital Energies [Eh]
    ---------------------

    Doubly Occupied:

       1A    -20.512282     2A    -15.644721     3A    -15.633590
       4A    -15.538072     5A    -11.389418     6A    -11.379013
       7A    -11.300223     8A    -11.232710     9A     -1.401673
      10A     -1.338692    11A     -1.248271    12A     -1.207599
      13A     -1.038742    14A     -0.911777    15A     -0.894263
      16A     -0.795573    17A     -0.759263    18A     -0.731973
      19A     -0.683099    20A     -0.653190    21A     -0.632066
      22A     -0.615489    23A     -0.561376    24A     -0.549412
      25A     -0.459546    26A     -0.451096    27A     -0.448002
      28A     -0.412416    29A     -0.313851

  @DF-RHF Final Energy:  -392.74008541052251

   => Energetics <=

    Nuclear Repulsion Energy =            355.6355037671969512
    One-Electron Energy =               -1239.2763840758359493
    Two-Electron Energy =                 490.9007948981164873
    Total Energy =                       -392.7400854105225108
  Basis Set: (AUG-CC-PVTZ AUX)
    Blend: AUG-CC-PVTZ-RI
    Molecular point group: c1

    Geometry (in Angstrom), charge = 0, multiplicity = 1:

       Center              X                  Y                   Z               Mass
    ------------   -----------------  -----------------  -----------------  -----------------
         O           -2.164801210575    -1.153813842576     0.000161365260    15.994914619570
         N            0.095180789425    -0.894750842576     0.000000365260    14.003074004430
         N            2.423136789425    -0.833795842576    -0.000504634740    14.003074004430
         N           -1.328677210575     1.016601157424     0.000245365260    14.003074004430
         C            1.195375689425    -0.247364542576    -0.000240634740    12.000000000000
         C            1.107264789425     1.212403157424    -0.000061634740    12.000000000000
         C           -1.229215210575    -0.361388842576     0.000181365260    12.000000000000
         C           -0.207070210575     1.715577157424     0.000078365260    12.000000000000
         H            0.119293789425    -1.911026842576    -0.000192634740     1.007825032230
         H            1.971138789425     1.865572157424    -0.000134634740     1.007825032230
         H           -0.339310210575     2.798776157424     0.000239365260     1.007825032230
         H            3.292184789425    -0.322916842576     0.000597365260     1.007825032230
         H            2.468837789425    -1.841158842576     0.001033365260     1.007825032230

  Basis Set: AUG-CC-PVTZ
    Blend: AUG-CC-PVTZ
  Basis Set: (AUG-CC-PVTZ AUX)
    Blend: AUG-CC-PVTZ-JKFIT
	 Reference Energy          =    -392.7400854105225108 [Eh]
	 Singles Energy            =      -0.0000000000000000 [Eh]
	 Same-Spin Energy          =      -0.4070518919410893 [Eh]
	 Opposite-Spin Energy      =      -1.2137887168713366 [Eh]
	 Correlation Energy        =      -1.6208406088124259 [Eh]
	 Total Energy              =    -394.3609260193349542 [Eh]

	 ================> DF-SCS-MP2 Energies <==================
	-----------------------------------------------------------
	 SCS Same-Spin Scale       =       0.3333333333333333 [-]
	 SCS Opposite-Spin Scale   =       1.2000000000000000 [-]
	 SCS Same-Spin Energy      =      -0.1356839639803631 [Eh]
	 SCS Opposite-Spin Energy  =      -1.4565464602456040 [Eh]
	 SCS Correlation Energy    =      -1.5922304242259671 [Eh]
	 SCS Total Energy          =    -394.3323158347484991 [Eh]
	-----------------------------------------------------------

  Dipole Moment: [D]
     X:     8.2431      Y:    -1.3471      Z:     0.0029     Total:     8.3524

*** Psi4 exiting successfully. Buy a developer a beer!
