                               Psi4 1.3.2 release

  ==> Input File <==

--------------------------------------------------------------------------
#psi4
#
memory 32 gb

molecule  {
0 1
  O       -2.2334690    -1.1675340     0.0001340
  N        0.0604923    -0.8147866    -0.0000276
  N        2.3544690    -0.8475160    -0.0005320
  N       -1.3973450     1.0028810     0.0002180
  C        1.1706060    -0.1768690    -0.0001310
  C        1.0385970     1.1986830    -0.0000890
  C       -1.2978830    -0.3751090     0.0001540
  C       -0.2757380     1.7018570     0.0000510
  H        0.0506260    -1.9247470    -0.0002200
  H        1.9024710     1.8518520    -0.0001620
  H       -0.4079780     2.7850560     0.0002120
  H        3.2235170    -0.3366370     0.0005700
  H        2.4001700    -1.8548790     0.0010060
units angstrom
no_reorient  #important for SAPT in psi4, default
symmetry c1  #important for SAPT in psi4, default
}

set PROPERTIES_ORIGIN ["COM"]
properties('MP2/aug-cc-pvtz', properties = ['dipole'])
--------------------------------------------------------------------------

    Molecular point group: c1
  Charge       = 0
  Multiplicity = 1
  Basis Set: AUG-CC-PVTZ
    Blend: AUG-CC-PVTZ
  Basis Set: (AUG-CC-PVTZ AUX)
    Blend: AUG-CC-PVTZ-JKFIT

    Orbital Energies [Eh]
    ---------------------

    Doubly Occupied:

       1A    -20.516563     2A    -15.641687     3A    -15.627477
       4A    -15.541920     5A    -11.380459     6A    -11.376402
       7A    -11.304122     8A    -11.227700     9A     -1.397029
      10A     -1.338125    11A     -1.246775    12A     -1.198887
      13A     -1.056150    14A     -0.907422    15A     -0.894799
      16A     -0.788237    17A     -0.753348    18A     -0.704999
      19A     -0.688793    20A     -0.652413    21A     -0.634684
      22A     -0.617491    23A     -0.566206    24A     -0.549695
      25A     -0.457723    26A     -0.451953    27A     -0.449332
      28A     -0.412280    29A     -0.322443

  @DF-RHF Final Energy:  -392.73340893992247

   => Energetics <=

    Nuclear Repulsion Energy =            356.8247908847607732
    One-Electron Energy =               -1241.7061760332246649
    Two-Electron Energy =                 492.1479762085414222
    Total Energy =                       -392.7334089399224695
  Basis Set: (AUG-CC-PVTZ AUX)
    Blend: AUG-CC-PVTZ-RI
    Molecular point group: c1

    Geometry (in Angstrom), charge = 0, multiplicity = 1:

       Center              X                  Y                   Z               Mass
    ------------   -----------------  -----------------  -----------------  -----------------
         O           -2.173830050653    -1.174728736003     0.000146635882    15.994914619570
         N            0.120131249347    -0.821981336003    -0.000014964118    14.003074004430
         N            2.414107949347    -0.854710736003    -0.000519364118    14.003074004430
         N           -1.337706050653     0.995686263997     0.000230635882    14.003074004430
         C            1.230244949347    -0.184063736003    -0.000118364118    12.000000000000
         C            1.098235949347     1.191488263997    -0.000076364118    12.000000000000
         C           -1.238244050653    -0.382303736003     0.000166635882    12.000000000000
         C           -0.216099050653     1.694662263997     0.000063635882    12.000000000000
         H            0.110264949347    -1.931941736003    -0.000207364118     1.007825032230
         H            1.962109949347     1.844657263997    -0.000149364118     1.007825032230
         H           -0.348339050653     2.777861263997     0.000224635882     1.007825032230
         H            3.283155949347    -0.343831736003     0.000582635882     1.007825032230
         H            2.459808949347    -1.862073736003     0.001018635882     1.007825032230

  Basis Set: AUG-CC-PVTZ
    Blend: AUG-CC-PVTZ
  Basis Set: (AUG-CC-PVTZ AUX)
    Blend: AUG-CC-PVTZ-JKFIT
	 Reference Energy          =    -392.7334089399224695 [Eh]
	 Singles Energy            =      -0.0000000000000000 [Eh]
	 Same-Spin Energy          =      -0.4087747552649540 [Eh]
	 Opposite-Spin Energy      =      -1.2165569535294076 [Eh]
	 Correlation Energy        =      -1.6253317087943615 [Eh]
	 Total Energy              =    -394.3587406487168323 [Eh]

	 ================> DF-SCS-MP2 Energies <==================
	-----------------------------------------------------------
	 SCS Same-Spin Scale       =       0.3333333333333333 [-]
	 SCS Opposite-Spin Scale   =       1.2000000000000000 [-]
	 SCS Same-Spin Energy      =      -0.1362582517549847 [Eh]
	 SCS Opposite-Spin Energy  =      -1.4598683442352891 [Eh]
	 SCS Correlation Energy    =      -1.5961265959902737 [Eh]
	 SCS Total Energy          =    -394.3295355359127257 [Eh]
	-----------------------------------------------------------

  Dipole Moment: [D]
     X:     8.0156      Y:    -1.1120      Z:     0.0031     Total:     8.0924

*** Psi4 exiting successfully. Buy a developer a beer!
