                               Psi4 1.4a3.dev225

  ==> Input File <==

--------------------------------------------------------------------------
#psi4
#
memory 32 gb

molecule  {
0 1
  O        2.2358750    -1.1647400    -0.0019990
  N       -0.0266920    -0.9090020    -0.0014130
  N       -2.3606070    -0.8668920    -0.0783920
  N        1.3942980     1.0030250     0.0093070
  C       -1.1689180    -0.1740660     0.0003700
  C       -1.0382265     1.2164712     0.0002117
  C        1.2955060    -0.3793770     0.0033320
  C        0.2772380     1.7038820     0.0017870
  H       -0.0608440    -1.9231390    -0.0684580
  H       -1.9045160     1.8491770     0.0118680
  H        0.4106550     2.7868440     0.0040290
  H       -3.1798030    -0.3063160     0.1264620
  H       -2.3838550    -1.7605480     0.4013470
units angstrom
no_reorient  #important for SAPT in psi4, default
symmetry c1  #important for SAPT in psi4, default
}

set PROPERTIES_ORIGIN ["COM"]
properties('MP2/aug-cc-pvtz', properties = ['dipole'])
--------------------------------------------------------------------------

    Molecular point group: c1
  Charge       = 0
  Multiplicity = 1
  Basis Set: AUG-CC-PVTZ
    Blend: AUG-CC-PVTZ
  Basis Set: (AUG-CC-PVTZ AUX)
    Blend: AUG-CC-PVTZ-JKFIT

    Orbital Energies [Eh]
    ---------------------

    Doubly Occupied:

       1A    -20.512155     2A    -15.636005     3A    -15.629204
       4A    -15.550067     5A    -11.385657     6A    -11.378400
       7A    -11.310676     8A    -11.238141     9A     -1.391447
      10A     -1.323541    11A     -1.244418    12A     -1.201857
      13A     -1.058558    14A     -0.908556    15A     -0.884926
      16A     -0.776667    17A     -0.751207    18A     -0.716593
      19A     -0.688146    20A     -0.647563    21A     -0.632173
      22A     -0.622889    23A     -0.571907    24A     -0.547736
      25A     -0.464137    26A     -0.451555    27A     -0.449070
      28A     -0.417875    29A     -0.330131

  @DF-RHF Final Energy:  -392.75026455899410

   => Energetics <=

    Nuclear Repulsion Energy =            354.7114091504938074
    One-Electron Energy =               -1237.4808298478239976
    Two-Electron Energy =                 490.0191561383360295
    Total Energy =                       -392.7502645589941039
  Basis Set: (AUG-CC-PVTZ AUX)
    Blend: AUG-CC-PVTZ-RI
    Molecular point group: c1

    Geometry (in Angstrom), charge = 0, multiplicity = 1:

       Center              X                  Y                   Z               Mass
    ------------   -----------------  -----------------  -----------------  -----------------
         O            2.172199881840    -1.161151640485     0.002249680262    15.994914619570
         N           -0.090367118160    -0.905413640485     0.002835680262    14.003074004430
         N           -2.424282118160    -0.863303640485    -0.074143319738    14.003074004430
         N            1.330622881840     1.006613359515     0.013555680262    14.003074004430
         C           -1.232593118160    -0.170477640485     0.004618680262    12.000000000000
         C           -1.101901618160     1.220059559515     0.004460380262    12.000000000000
         C            1.231830881840    -0.375788640485     0.007580680262    12.000000000000
         C            0.213562881840     1.707470359515     0.006035680262    12.000000000000
         H           -0.124519118160    -1.919550640485    -0.064209319738     1.007825032230
         H           -1.968191118160     1.852765359515     0.016116680262     1.007825032230
         H            0.346979881840     2.790432359515     0.008277680262     1.007825032230
         H           -3.243478118160    -0.302727640485     0.130710680262     1.007825032230
         H           -2.447530118160    -1.756959640485     0.405595680262     1.007825032230

  Basis Set: AUG-CC-PVTZ
    Blend: AUG-CC-PVTZ
  Basis Set: (AUG-CC-PVTZ AUX)
    Blend: AUG-CC-PVTZ-JKFIT
	 Reference Energy          =    -392.7502645589941039 [Eh]
	 Singles Energy            =      -0.0000000000000000 [Eh]
	 Same-Spin Energy          =      -0.4068982007173036 [Eh]
	 Opposite-Spin Energy      =      -1.2150089565757547 [Eh]
	 Correlation Energy        =      -1.6219071572930583 [Eh]
	 Total Energy              =    -394.3721717162871414 [Eh]

	 ================> DF-SCS-MP2 Energies <==================
	-----------------------------------------------------------
	 SCS Same-Spin Scale       =       0.3333333333333333 [-]
	 SCS Opposite-Spin Scale   =       1.2000000000000000 [-]
	 SCS Same-Spin Energy      =      -0.1356327335724345 [Eh]
	 SCS Opposite-Spin Energy  =      -1.4580107478909057 [Eh]
	 SCS Correlation Energy    =      -1.5936434814633402 [Eh]
	 SCS Total Energy          =    -394.3439080404574497 [Eh]
	-----------------------------------------------------------

  Dipole Moment: [D]
     X:    -7.6851      Y:    -0.4775      Z:     0.8600     Total:     7.7478

*** Psi4 exiting successfully. Buy a developer a beer!
