                               Psi4 1.4a3.dev225

  ==> Input File <==
---------------------------------------------------------------------------##psi4
#
memory 32 gb

molecule  {
0 1
  O        2.2358750    -1.1647400    -0.0019990
  N       -0.0266920    -0.9090020    -0.0014130
  N       -2.3606070    -0.8668920    -0.0783920
  N        1.3942980     1.0030250     0.0093070
  C       -1.1257628    -0.1489763     0.0032222
  C       -1.0400980     1.1965590     0.0002140
  C        1.2955060    -0.3793770     0.0033320
  C        0.2772380     1.7038820     0.0017870
  H       -0.0608440    -1.9231390    -0.0684580
  H       -1.9045160     1.8491770     0.0118680
  H        0.4106550     2.7868440     0.0040290
  H       -3.1798030    -0.3063160     0.1264620
  H       -2.3838550    -1.7605480     0.4013470
units angstrom
no_reorient  #important for SAPT in psi4, default
symmetry c1  #important for SAPT in psi4, default
}

set PROPERTIES_ORIGIN ["COM"]
properties('MP2/aug-cc-pvtz', properties = ['dipole'])---------------------------------------------------------------------------

  Memory set to  29.802 GiB by Python driver.     SCF Algorithm Type (re)set to DF.

*** tstart() called on c444-063.stampede2.tacc.utexas.edu
*** at Fri Mar 19 11:48:19 2021
    => Loading Basis Set <=

    Name: AUG-CC-PVTZ
    Role: ORBITAL
    Keyword: BASIS
    atoms 1    entry O          line   331 file /home1/07844/xy3866/miniconda3/envs/p4env/share/psi4/basis/aug-cc-pvtz.gbs
    atoms 2-4  entry N          line   285 file /home1/07844/xy3866/miniconda3/envs/p4env/share/psi4/basis/aug-cc-pvtz.gbs
    atoms 5-8  entry C          line   239 file /home1/07844/xy3866/miniconda3/envs/p4env/share/psi4/basis/aug-cc-pvtz.gbs
    atoms 9-13 entry H          line    40 file /home1/07844/xy3866/miniconda3/envs/p4env/share/psi4/basis/aug-cc-pvtz.gbs

         ---------------------------------------------------------
                                   SCF
               by Justin Turney, Rob Parrish, Andy Simmonett
                          and Daniel G. A. Smith
                              RHF Reference
                       32 Threads,  30517 MiB Core
         ---------------------------------------------------------

  ==> Geometry <==

    Molecular point group: c1
    Full point group: C1

    Geometry (in Angstrom), charge = 0, multiplicity = 1:

       Center              X                  Y                   Z               Mass
    ------------   -----------------  -----------------  -----------------  -----------------
         O            2.167738517935    -1.161711152147     0.001941205894    15.994914619570
         N           -0.094828482065    -0.905973152147     0.002527205894    14.003074004430
         N           -2.428743482065    -0.863863152147    -0.074451794106    14.003074004430
         N            1.326161517935     1.006053847853     0.013247205894    14.003074004430
         C           -1.193899282065    -0.145947452147     0.007162405894    12.000000000000
         C           -1.108234482065     1.199587847853     0.004154205894    12.000000000000
         C            1.227369517935    -0.376348152147     0.007272205894    12.000000000000
         C            0.209101517935     1.706910847853     0.005727205894    12.000000000000
         H           -0.128980482065    -1.920110152147    -0.064517794106     1.007825032230
         H           -1.972652482065     1.852205847853     0.015808205894     1.007825032230
         H            0.342518517935     2.789872847853     0.007969205894     1.007825032230
         H           -3.247939482065    -0.303287152147     0.130402205894     1.007825032230
         H           -2.451991482065    -1.757519152147     0.405287205894     1.007825032230

  Running in c1 symmetry.

  Rotational constants: A =      0.12939  B =      0.06635  C =      0.04392 [cm^-1]
  Rotational constants: A =   3878.94400  B =   1989.19920  C =   1316.67192 [MHz]
  Nuclear repulsion =  355.424335012904351

  Charge       = 0
  Multiplicity = 1
  Electrons    = 58
  Nalpha       = 29
  Nbeta        = 29

  ==> Algorithm <==

  SCF Algorithm Type is DF.
  DIIS enabled.
  MOM disabled.
  Fractional occupation disabled.
  Guess Type is SAD.
  Energy threshold   = 1.00e-10
  Density threshold  = 1.00e-10
  Integral threshold = 1.00e-12

  ==> Primary Basis <==

  Basis Set: AUG-CC-PVTZ
    Blend: AUG-CC-PVTZ
    Number of shells: 157
    Number of basis functions: 483
    Number of Cartesian functions: 565
    Spherical Harmonics?: true
    Max angular momentum: 3
    => Loading Basis Set <=

    Name: (AUG-CC-PVTZ AUX)
    Role: JKFIT
    Keyword: DF_BASIS_SCF
    atoms 1    entry O          line   286 file /home1/07844/xy3866/miniconda3/envs/p4env/share/psi4/basis/aug-cc-pvtz-jkfit.gbs
    atoms 2-4  entry N          line   224 file /home1/07844/xy3866/miniconda3/envs/p4env/share/psi4/basis/aug-cc-pvtz-jkfit.gbs
    atoms 5-8  entry C          line   162 file /home1/07844/xy3866/miniconda3/envs/p4env/share/psi4/basis/aug-cc-pvtz-jkfit.gbs
    atoms 9-13 entry H          line    70 file /home1/07844/xy3866/miniconda3/envs/p4env/share/psi4/basis/aug-cc-pvtz-jkfit.gbs
   ==> Integral Setup <==

  DFHelper Memory: AOs need 1.866 GiB; user supplied 22.352 GiB. Using in-core AOs.
   ==> MemDFJK: Density-Fitted J/K Matrices <==

    J tasked:                   Yes
    K tasked:                   Yes
    wK tasked:                   No
    OpenMP threads:              32
    Memory [MiB]:             22888
    Algorithm:                 Core
    Schwarz Cutoff:           1E-12
    Mask sparsity (%):       4.9012
    Fitting Condition:        1E-10

   => Auxiliary Basis Set <=

  Basis Set: (AUG-CC-PVTZ AUX)
    Blend: AUG-CC-PVTZ-JKFIT
    Number of shells: 310
    Number of basis functions: 1062
    Number of Cartesian functions: 1323
    Spherical Harmonics?: true
    Max angular momentum: 4
  Minimum eigenvalue in the overlap matrix is 3.2804314735E-06.
  Reciprocal condition number of the overlap matrix is 1.9984464416E-07.
    Using symmetric orthogonalization.

  ==> Pre-Iterations <==

  SCF Guess: Superposition of Atomic Densities via on-the-fly atomic UHF (no occupation information).

   -------------------------
    Irrep   Nso     Nmo
   -------------------------
     A        483     483
   -------------------------
    Total     483     483
   -------------------------

  ==> Iterations <==

                           Total Energy        Delta E     RMS |[F,P]|

   @DF-RHF iter SAD:  -392.08077982252973   -3.92081e+02   0.00000e+00
   @DF-RHF iter   1:  -392.49421380815056   -4.13434e-01   1.50580e-03 DIIS
   @DF-RHF iter   2:  -392.68477443041508   -1.90561e-01   8.59461e-04 DIIS
   @DF-RHF iter   3:  -392.74341845330480   -5.86440e-02   1.67813e-04 DIIS
   @DF-RHF iter   4:  -392.74720115903301   -3.78271e-03   7.35093e-05 DIIS
   @DF-RHF iter   5:  -392.74803511521714   -8.33956e-04   1.65016e-05 DIIS
   @DF-RHF iter   6:  -392.74815279460739   -1.17679e-04   8.79671e-06 DIIS
   @DF-RHF iter   7:  -392.74818324588250   -3.04513e-05   3.92459e-06 DIIS
   @DF-RHF iter   8:  -392.74819013664734   -6.89076e-06   1.27812e-06 DIIS
   @DF-RHF iter   9:  -392.74819088810921   -7.51462e-07   5.94410e-07 DIIS
   @DF-RHF iter  10:  -392.74819101625502   -1.28146e-07   1.97943e-07 DIIS
   @DF-RHF iter  11:  -392.74819103785603   -2.16010e-08   7.01381e-08 DIIS
   @DF-RHF iter  12:  -392.74819103976222   -1.90619e-09   2.49427e-08 DIIS
   @DF-RHF iter  13:  -392.74819104001051   -2.48292e-10   1.18154e-08 DIIS
   @DF-RHF iter  14:  -392.74819104005894   -4.84306e-11   4.51548e-09 DIIS
   @DF-RHF iter  15:  -392.74819104006735   -8.41283e-12   1.41768e-09 DIIS
   @DF-RHF iter  16:  -392.74819104006707    2.84217e-13   4.08364e-10 DIIS
   @DF-RHF iter  17:  -392.74819104006696    1.13687e-13   1.68898e-10 DIIS
   @DF-RHF iter  18:  -392.74819104006690    5.68434e-14   7.08086e-11 DIIS
  Energy and wave function converged.

  ==> Post-Iterations <==

    Orbital Energies [Eh]
    ---------------------

    Doubly Occupied:

       1A    -20.514877     2A    -15.636319     3A    -15.618983
       4A    -15.556069     5A    -11.380659     6A    -11.377447
       7A    -11.315709     8A    -11.237691     9A     -1.395257
      10A     -1.320768    11A     -1.237535    12A     -1.200264
      13A     -1.068409    14A     -0.912042    15A     -0.884990
      16A     -0.775182    17A     -0.750001    18A     -0.704667
      19A     -0.688370    20A     -0.647236    21A     -0.632062
      22A     -0.625292    23A     -0.580260    24A     -0.541107
      25A     -0.467011    26A     -0.454393    27A     -0.449513
      28A     -0.420472    29A     -0.337159

    Virtual:

      30A      0.011308    31A      0.025690    32A      0.035708
      33A      0.048443    34A      0.056384    35A      0.069645
      36A      0.081834    37A      0.085947    38A      0.095216
      39A      0.097000    40A      0.101252    41A      0.103570
      42A      0.107672    43A      0.115470    44A      0.120302
      45A      0.131183    46A      0.134414    47A      0.137641
      48A      0.146388    49A      0.152238    50A      0.153557
      51A      0.163980    52A      0.167011    53A      0.179088
      54A      0.181049    55A      0.198582    56A      0.211402
      57A      0.222004    58A      0.227929    59A      0.235004
      60A      0.241216    61A      0.252370    62A      0.256554
      63A      0.262166    64A      0.268427    65A      0.270306
      66A      0.273560    67A      0.279407    68A      0.282777
      69A      0.294301    70A      0.298378    71A      0.306965
      72A      0.314712    73A      0.324767    74A      0.328376
      75A      0.334984    76A      0.340245    77A      0.350243
      78A      0.361447    79A      0.367534    80A      0.373047
      81A      0.374493    82A      0.386678    83A      0.394732
      84A      0.408943    85A      0.411542    86A      0.416281
      87A      0.418131    88A      0.428093    89A      0.437318
      90A      0.440611    91A      0.447480    92A      0.457700
      93A      0.463578    94A      0.466521    95A      0.471263
      96A      0.488385    97A      0.493536    98A      0.496011
      99A      0.507980   100A      0.508584   101A      0.517096
     102A      0.528173   103A      0.533946   104A      0.537586
     105A      0.543147   106A      0.566206   107A      0.568121
     108A      0.577433   109A      0.584063   110A      0.593185
     111A      0.612419   112A      0.629207   113A      0.638082
     114A      0.641984   115A      0.651774   116A      0.660433
     117A      0.663262   118A      0.668181   119A      0.679694
     120A      0.690874   121A      0.699484   122A      0.710697
     123A      0.716941   124A      0.725160   125A      0.732340
     126A      0.743870   127A      0.752211   128A      0.760775
     129A      0.765020   130A      0.777728   131A      0.780944
     132A      0.804690   133A      0.823621   134A      0.828792
     135A      0.838891   136A      0.844072   137A      0.849419
     138A      0.861849   139A      0.871763   140A      0.877206
     141A      0.886041   142A      0.896811   143A      0.904087
     144A      0.916327   145A      0.922029   146A      0.924174
     147A      0.931262   148A      0.940627   149A      0.958396
     150A      0.967636   151A      0.972361   152A      0.975882
     153A      0.984089   154A      0.996112   155A      0.999323
     156A      1.006004   157A      1.017215   158A      1.021673
     159A      1.028324   160A      1.034806   161A      1.051933
     162A      1.056646   163A      1.062587   164A      1.071569
     165A      1.080641   166A      1.086773   167A      1.087892
     168A      1.099850   169A      1.115713   170A      1.119454
     171A      1.128786   172A      1.139986   173A      1.151154
     174A      1.159913   175A      1.168791   176A      1.176296
     177A      1.185158   178A      1.200535   179A      1.205508
     180A      1.219870   181A      1.227625   182A      1.228269
     183A      1.236772   184A      1.247650   185A      1.256944
     186A      1.265343   187A      1.272509   188A      1.287682
     189A      1.307898   190A      1.316245   191A      1.330329
     192A      1.340088   193A      1.344410   194A      1.351532
     195A      1.382659   196A      1.398244   197A      1.408078
     198A      1.416372   199A      1.423978   200A      1.441860
     201A      1.447728   202A      1.456189   203A      1.460982
     204A      1.468856   205A      1.472944   206A      1.495014
     207A      1.505007   208A      1.529140   209A      1.531238
     210A      1.539097   211A      1.560352   212A      1.574854
     213A      1.586866   214A      1.598290   215A      1.611036
     216A      1.623374   217A      1.633964   218A      1.654396
     219A      1.664749   220A      1.678891   221A      1.690707
     222A      1.708281   223A      1.726596   224A      1.736347
     225A      1.749746   226A      1.760788   227A      1.778263
     228A      1.784095   229A      1.800608   230A      1.827096
     231A      1.841971   232A      1.861987   233A      1.869158
     234A      1.878957   235A      1.891581   236A      1.920080
     237A      1.941166   238A      1.957193   239A      1.966468
     240A      1.990976   241A      1.993536   242A      2.024213
     243A      2.026958   244A      2.035066   245A      2.045330
     246A      2.054984   247A      2.071379   248A      2.091361
     249A      2.108419   250A      2.121248   251A      2.128383
     252A      2.141867   253A      2.170179   254A      2.182082
     255A      2.189359   256A      2.208082   257A      2.217492
     258A      2.235667   259A      2.261388   260A      2.278647
     261A      2.291103   262A      2.307126   263A      2.319093
     264A      2.334631   265A      2.342318   266A      2.350754
     267A      2.353712   268A      2.380462   269A      2.407654
     270A      2.433686   271A      2.445433   272A      2.457956
     273A      2.473277   274A      2.494502   275A      2.509115
     276A      2.510112   277A      2.529673   278A      2.532545
     279A      2.542238   280A      2.560266   281A      2.581458
     282A      2.595994   283A      2.606881   284A      2.636975
     285A      2.650189   286A      2.659925   287A      2.699565
     288A      2.714360   289A      2.724631   290A      2.744493
     291A      2.755187   292A      2.788640   293A      2.805821
     294A      2.834557   295A      2.870492   296A      2.930698
     297A      2.977309   298A      2.982852   299A      3.006878
     300A      3.009954   301A      3.026588   302A      3.043928
     303A      3.053321   304A      3.085543   305A      3.180351
     306A      3.182722   307A      3.207945   308A      3.244748
     309A      3.260243   310A      3.278406   311A      3.318730
     312A      3.324137   313A      3.358615   314A      3.374133
     315A      3.402832   316A      3.423098   317A      3.449268
     318A      3.459039   319A      3.470105   320A      3.496381
     321A      3.505681   322A      3.558592   323A      3.571428
     324A      3.621513   325A      3.636142   326A      3.647084
     327A      3.664581   328A      3.676091   329A      3.717705
     330A      3.722186   331A      3.731889   332A      3.755975
     333A      3.758679   334A      3.781586   335A      3.804096
     336A      3.810702   337A      3.832080   338A      3.861480
     339A      3.882561   340A      3.908010   341A      3.931846
     342A      3.952148   343A      3.970188   344A      3.976302
     345A      3.995604   346A      4.007885   347A      4.024050
     348A      4.064991   349A      4.079065   350A      4.108905
     351A      4.111208   352A      4.130309   353A      4.151610
     354A      4.162134   355A      4.162926   356A      4.196134
     357A      4.212172   358A      4.243354   359A      4.258349
     360A      4.262757   361A      4.282334   362A      4.293809
     363A      4.303769   364A      4.310017   365A      4.339649
     366A      4.351515   367A      4.374450   368A      4.386939
     369A      4.407933   370A      4.447234   371A      4.451718
     372A      4.489920   373A      4.496716   374A      4.540032
     375A      4.556423   376A      4.561913   377A      4.595360
     378A      4.621128   379A      4.621898   380A      4.642111
     381A      4.669348   382A      4.706905   383A      4.719586
     384A      4.743785   385A      4.753761   386A      4.782702
     387A      4.813831   388A      4.841008   389A      4.859739
     390A      4.871857   391A      4.889248   392A      4.920018
     393A      4.927049   394A      4.950811   395A      4.980423
     396A      5.007750   397A      5.018507   398A      5.053945
     399A      5.076631   400A      5.100135   401A      5.111448
     402A      5.135485   403A      5.153324   404A      5.172975
     405A      5.202628   406A      5.226919   407A      5.252415
     408A      5.269877   409A      5.303550   410A      5.332269
     411A      5.341953   412A      5.368532   413A      5.383036
     414A      5.412452   415A      5.435476   416A      5.459307
     417A      5.486244   418A      5.533091   419A      5.546762
     420A      5.558890   421A      5.599691   422A      5.620945
     423A      5.641844   424A      5.676895   425A      5.733050
     426A      5.756486   427A      5.790096   428A      5.809333
     429A      5.818176   430A      5.848583   431A      5.885374
     432A      5.918639   433A      5.967567   434A      5.982613
     435A      5.990139   436A      6.025176   437A      6.058167
     438A      6.063641   439A      6.073760   440A      6.091829
     441A      6.160398   442A      6.174137   443A      6.225620
     444A      6.281335   445A      6.348039   446A      6.478285
     447A      6.492754   448A      6.579965   449A      6.623721
     450A      6.637942   451A      6.686173   452A      6.694698
     453A      6.739006   454A      6.748196   455A      6.766252
     456A      6.789526   457A      6.844037   458A      6.900785
     459A      7.004847   460A      7.036460   461A      7.070924
     462A      7.105459   463A      7.180490   464A      7.207319
     465A      7.258834   466A      7.354336   467A      7.394351
     468A      7.416863   469A      7.663628   470A      7.672170
     471A      7.734413   472A      7.802045   473A      7.899121
     474A      7.908956   475A      8.018256   476A     15.603849
     477A     16.029331   478A     16.244984   479A     17.566993
     480A     18.522762   481A     18.842083   482A     19.877932
     483A     20.096229

    Final Occupation by Irrep:
              A
    DOCC [    29 ]

  @DF-RHF Final Energy:  -392.74819104006690

   => Energetics <=

    Nuclear Repulsion Energy =            355.4243350129043506
    One-Electron Energy =               -1238.8855654300220976
    Two-Electron Energy =                 490.7130393770509045
    Total Energy =                       -392.7481910400668994

Computation Completed

*** tstop() called on c469-083.stampede2.tacc.utexas.edu at Fri Mar 19 11:48:49 2021
Module time:
	user time   =     340.32 seconds =       5.67 minutes
	system time =      28.58 seconds =       0.48 minutes
	total time  =         30 seconds =       0.50 minutes
Total time:
	user time   =     340.32 seconds =       5.67 minutes
	system time =      28.58 seconds =       0.48 minutes
	total time  =         30 seconds =       0.50 minutes
   => Loading Basis Set <=

    Name: (AUG-CC-PVTZ AUX)
    Role: RIFIT
    Keyword: DF_BASIS_MP2
    atoms 1    entry O          line   264 file /home1/07844/xy3866/miniconda3/envs/p4env/share/psi4/basis/aug-cc-pvtz-ri.gbs
    atoms 2-4  entry N          line   206 file /home1/07844/xy3866/miniconda3/envs/p4env/share/psi4/basis/aug-cc-pvtz-ri.gbs
    atoms 5-8  entry C          line   148 file /home1/07844/xy3866/miniconda3/envs/p4env/share/psi4/basis/aug-cc-pvtz-ri.gbs
    atoms 9-13 entry H          line    30 file /home1/07844/xy3866/miniconda3/envs/p4env/share/psi4/basis/aug-cc-pvtz-ri.gbs

*** tstart() called on c469-083.stampede2.tacc.utexas.edu
*** at Fri Mar 19 11:48:50 2021

  //>>>>>>>>>>>>>>>>>>>>>>>>>>>>>>>>>>>//
  //               DFMP2               //
  //<<<<<<<<<<<<<<<<<<<<<<<<<<<<<<<<<<<//

	 --------------------------------------------------------
	                          DF-MP2
	      2nd-Order Density-Fitted Moller-Plesset Theory
	              RMP2 Wavefunction,  32 Threads

	        Rob Parrish, Justin Turney, Andy Simmonett,
	           Ed Hohenstein, and C. David Sherrill
	 --------------------------------------------------------

   => Auxiliary Basis Set <=

  Basis Set: (AUG-CC-PVTZ AUX)
    Blend: AUG-CC-PVTZ-RI
    Number of shells: 294
    Number of basis functions: 1078
    Number of Cartesian functions: 1363
    Spherical Harmonics?: true
    Max angular momentum: 4

	 --------------------------------------------------------
	                 NBF =   483, NAUX =  1078
	 --------------------------------------------------------
	   CLASS    FOCC     OCC    AOCC    AVIR     VIR    FVIR
	   PAIRS       0      29      29     454     454       0
	 --------------------------------------------------------

   DFHelper Memory: AOs need 1.904 GiB; user supplied 22.352 GiB. Using in-core AOs.

         ------------------------------------------------------------
                                     CPHF
                                  Rob Parrish
         ------------------------------------------------------------

  ==> Geometry <==

    Molecular point group: c1
    Full point group: C1

    Geometry (in Angstrom), charge = 0, multiplicity = 1:

       Center              X                  Y                   Z               Mass
    ------------   -----------------  -----------------  -----------------  -----------------
         O            2.167738517935    -1.161711152147     0.001941205894    15.994914619570
         N           -0.094828482065    -0.905973152147     0.002527205894    14.003074004430
         N           -2.428743482065    -0.863863152147    -0.074451794106    14.003074004430
         N            1.326161517935     1.006053847853     0.013247205894    14.003074004430
         C           -1.193899282065    -0.145947452147     0.007162405894    12.000000000000
         C           -1.108234482065     1.199587847853     0.004154205894    12.000000000000
         C            1.227369517935    -0.376348152147     0.007272205894    12.000000000000
         C            0.209101517935     1.706910847853     0.005727205894    12.000000000000
         H           -0.128980482065    -1.920110152147    -0.064517794106     1.007825032230
         H           -1.972652482065     1.852205847853     0.015808205894     1.007825032230
         H            0.342518517935     2.789872847853     0.007969205894     1.007825032230
         H           -3.247939482065    -0.303287152147     0.130402205894     1.007825032230
         H           -2.451991482065    -1.757519152147     0.405287205894     1.007825032230

  Nuclear repulsion =  355.424335012904351
  Reference energy  = -392.748191040067297

  ==> Basis Set <==

  Basis Set: AUG-CC-PVTZ
    Blend: AUG-CC-PVTZ
    Number of shells: 157
    Number of basis functions: 483
    Number of Cartesian functions: 565
    Spherical Harmonics?: true
    Max angular momentum: 3

  ==> CGRSolver (by Rob Parrish) <==

   Number of roots    =         1
   Preconditioning    =    JACOBI
   Convergence cutoff =     1E-06
   Maximum iterations =       100

  ==> CPHFRHamiltonian (by Rob Parrish) <==

  ==> MemDFJK: Density-Fitted J/K Matrices <==

    J tasked:                   Yes
    K tasked:                   Yes
    wK tasked:                   No
    OpenMP threads:              32
    Memory [MiB]:             22888
    Algorithm:                 Core
    Schwarz Cutoff:           1E-12
    Mask sparsity (%):       2.8823
    Fitting Condition:        1E-10

   => Auxiliary Basis Set <=

  Basis Set: (AUG-CC-PVTZ AUX)
    Blend: AUG-CC-PVTZ-JKFIT
    Number of shells: 310
    Number of basis functions: 1062
    Number of Cartesian functions: 1323
    Spherical Harmonics?: true
    Max angular momentum: 4

  ==> CPHF Iterations <==

  => Iterations <=

             Iter  Converged  Remaining    Residual   CGR           1          0          1   1.491E-01
  CGR           2          0          1   4.980E-02
  CGR           3          0          1   2.333E-02
  CGR           4          0          1   6.427E-03
  CGR           5          0          1   2.879E-03
  CGR           6          0          1   1.194E-03
  CGR           7          0          1   4.246E-04
  CGR           8          0          1   1.802E-04
  CGR           9          0          1   6.995E-05
  CGR          10          0          1   2.292E-05
  CGR          11          0          1   7.549E-06   CGR          12          0          1   3.344E-06   CGR          13          0          1   1.045E-06   CGR          14          1          0   3.757E-07

    CGRSolver converged.

	-----------------------------------------------------------
	 ==================> DF-MP2 Energies <====================
	-----------------------------------------------------------
	 Reference Energy          =    -392.7481910400672973 [Eh]
	 Singles Energy            =      -0.0000000000000000 [Eh]
	 Same-Spin Energy          =      -0.4065772335928052 [Eh]
	 Opposite-Spin Energy      =      -1.2149917812361402 [Eh]
	 Correlation Energy        =      -1.6215690148289452 [Eh]
	 Total Energy              =    -394.3697600548962328 [Eh]
	-----------------------------------------------------------
	 ================> DF-SCS-MP2 Energies <==================
	-----------------------------------------------------------
	 SCS Same-Spin Scale       =       0.3333333333333333 [-]
	 SCS Opposite-Spin Scale   =       1.2000000000000000 [-]
	 SCS Same-Spin Energy      =      -0.1355257445309350 [Eh]
	 SCS Opposite-Spin Energy  =      -1.4579901374833681 [Eh]
	 SCS Correlation Energy    =      -1.5935158820143032 [Eh]
	 SCS Total Energy          =    -394.3417069220815847 [Eh]
	-----------------------------------------------------------

Properties will be evaluated at  -0.000000,   0.000000,   0.000000 [a0]

Properties computed using the MP2 density matrix

  Nuclear Dipole Moment: [e a0]
     X:    -6.9787      Y:     0.6165      Z:     0.4642

  Electronic Dipole Moment: [e a0]
     X:     4.1345      Y:    -0.6980      Z:    -0.1202

  Dipole Moment: [e a0]
     X:    -2.8442      Y:    -0.0815      Z:     0.3440     Total:     2.8661

  Dipole Moment: [D]
     X:    -7.2293      Y:    -0.2073      Z:     0.8743     Total:     7.2849

*** tstop() called on c444-063.stampede2.tacc.utexas.edu at Fri Mar 19 11:50:41 2021
Module time:
	user time   =     804.10 seconds =      13.40 minutes
	system time =      24.73 seconds =       0.41 minutes
	total time  =        112 seconds =       1.87 minutes
Total time:
	user time   =    1138.78 seconds =      18.98 minutes
	system time =      49.01 seconds =       0.82 minutes
	total time  =        142 seconds =       2.37 minutes

    Psi4 stopped on: Friday, 19 March 2021 11:50AM
    Psi4 wall time for execution: 0:02:22.30

*** Psi4 exiting successfully. Buy a developer a beer!
