                               Psi4 1.3.2 release

  ==> Input File <==

--------------------------------------------------------------------------
#psi4
#
memory 32 gb

molecule  {
0 1
  O       -2.2334690    -1.1675340     0.0001340
  N        0.1092537    -1.0240535    -0.0000691
  N        2.3544690    -0.8475160    -0.0005320
  N       -1.3973450     1.0028810     0.0002180
  C        1.1706060    -0.1768690    -0.0001310
  C        1.0385970     1.1986830    -0.0000890
  C       -1.2978830    -0.3751090     0.0001540
  C       -0.2757380     1.7018570     0.0000510
  H        0.0506260    -1.9247470    -0.0002200
  H        1.9024710     1.8518520    -0.0001620
  H       -0.4079780     2.7850560     0.0002120
  H        3.2235170    -0.3366370     0.0005700
  H        2.4001700    -1.8548790     0.0010060
units angstrom
no_reorient  #important for SAPT in psi4, default
symmetry c1  #important for SAPT in psi4, default
}

set PROPERTIES_ORIGIN ["COM"]
properties('MP2/aug-cc-pvtz', properties = ['dipole'])
--------------------------------------------------------------------------

    Molecular point group: c1
  Charge       = 0
  Multiplicity = 1
  Basis Set: AUG-CC-PVTZ
    Blend: AUG-CC-PVTZ
  Basis Set: (AUG-CC-PVTZ AUX)
    Blend: AUG-CC-PVTZ-JKFIT

    Orbital Energies [Eh]
    ---------------------

    Doubly Occupied:

       1A    -20.520227     2A    -15.620609     3A    -15.616777
       4A    -15.551446     5A    -11.386536     6A    -11.384617
       7A    -11.314166     8A    -11.233760     9A     -1.384208
      10A     -1.324809    11A     -1.236728    12A     -1.201002
      13A     -1.057599    14A     -0.921149    15A     -0.864761
      16A     -0.795943    17A     -0.754426    18A     -0.716080
      19A     -0.684238    20A     -0.641555    21A     -0.627429
      22A     -0.620754    23A     -0.577740    24A     -0.547139
      25A     -0.462599    26A     -0.452452    27A     -0.439560
      28A     -0.416151    29A     -0.327508

  @DF-RHF Final Energy:  -392.72435865603973

   => Energetics <=

    Nuclear Repulsion Energy =            353.1687842991740922
    One-Electron Energy =               -1234.4223484828612527
    Two-Electron Energy =                 488.5292055276473775
    Total Energy =                       -392.7243586560397262
  Basis Set: (AUG-CC-PVTZ AUX)
    Blend: AUG-CC-PVTZ-RI
    Molecular point group: c1

    Geometry (in Angstrom), charge = 0, multiplicity = 1:

       Center              X                  Y                   Z               Mass
    ------------   -----------------  -----------------  -----------------  -----------------
         O           -2.179979090962    -1.148339202410     0.000151869226    15.994914619570
         N            0.162743609038    -1.004858702410    -0.000051230774    14.003074004430
         N            2.407958909038    -0.828321202410    -0.000514130774    14.003074004430
         N           -1.343855090962     1.022075797590     0.000235869226    14.003074004430
         C            1.224095909038    -0.157674202410    -0.000113130774    12.000000000000
         C            1.092086909038     1.217877797590    -0.000071130774    12.000000000000
         C           -1.244393090962    -0.355914202410     0.000171869226    12.000000000000
         C           -0.222248090962     1.721051797590     0.000068869226    12.000000000000
         H            0.104115909038    -1.905552202410    -0.000202130774     1.007825032230
         H            1.955960909038     1.871046797590    -0.000144130774     1.007825032230
         H           -0.354488090962     2.804250797590     0.000229869226     1.007825032230
         H            3.277006909038    -0.317442202410     0.000587869226     1.007825032230
         H            2.453659909038    -1.835684202410     0.001023869226     1.007825032230

  Basis Set: AUG-CC-PVTZ
    Blend: AUG-CC-PVTZ
  Basis Set: (AUG-CC-PVTZ AUX)
    Blend: AUG-CC-PVTZ-JKFIT
	 Reference Energy          =    -392.7243586560397262 [Eh]
	 Singles Energy            =      -0.0000000000000000 [Eh]
	 Same-Spin Energy          =      -0.4064365004002127 [Eh]
	 Opposite-Spin Energy      =      -1.2151022534751488 [Eh]
	 Correlation Energy        =      -1.6215387538753614 [Eh]
	 Total Energy              =    -394.3458974099150964 [Eh]

	 ================> DF-SCS-MP2 Energies <==================
	-----------------------------------------------------------
	 SCS Same-Spin Scale       =       0.3333333333333333 [-]
	 SCS Opposite-Spin Scale   =       1.2000000000000000 [-]
	 SCS Same-Spin Energy      =      -0.1354788334667376 [Eh]
	 SCS Opposite-Spin Energy  =      -1.4581227041701785 [Eh]
	 SCS Correlation Energy    =      -1.5936015376369161 [Eh]
	 SCS Total Energy          =    -394.3179601936766403 [Eh]
	-----------------------------------------------------------

  Dipole Moment: [D]
     X:     7.6351      Y:    -0.6926      Z:     0.0031     Total:     7.6665

*** Psi4 exiting successfully. Buy a developer a beer!
