                               Psi4 1.3.2 release

  ==> Input File <==

--------------------------------------------------------------------------
#psi4
#
memory 32 gb

molecule  {
0 1
  O       -2.2334690    -1.1675340     0.0001340
  N        0.0265130    -0.9084710    -0.0000270
  N        2.3544690    -0.8475160    -0.0005320
  N       -1.3973450     1.0028810     0.0002180
  C        1.1706060    -0.1768690    -0.0001310
  C        1.0385970     1.1986830    -0.0000890
  C       -1.2978830    -0.3751090     0.0001540
  C       -0.1908693     1.7547465     0.0000384
  H        0.0506260    -1.9247470    -0.0002200
  H        1.9024710     1.8518520    -0.0001620
  H       -0.4079780     2.7850560     0.0002120
  H        3.2235170    -0.3366370     0.0005700
  H        2.4001700    -1.8548790     0.0010060
units angstrom
no_reorient  #important for SAPT in psi4, default
symmetry c1  #important for SAPT in psi4, default
}

set PROPERTIES_ORIGIN ["COM"]
properties('MP2/aug-cc-pvtz', properties = ['dipole'])
--------------------------------------------------------------------------

    Molecular point group: c1
  Charge       = 0
  Multiplicity = 1
  Basis Set: AUG-CC-PVTZ
    Blend: AUG-CC-PVTZ
  Basis Set: (AUG-CC-PVTZ AUX)
    Blend: AUG-CC-PVTZ-JKFIT

    Orbital Energies [Eh]
    ---------------------

    Doubly Occupied:

       1A    -20.498650     2A    -15.638060     3A    -15.635328
       4A    -15.539401     5A    -11.395633     6A    -11.365996
       7A    -11.309180     8A    -11.237189     9A     -1.382212
      10A     -1.325527    11A     -1.236536    12A     -1.176501
      13A     -1.068604    14A     -0.921422    15A     -0.878344
      16A     -0.789081    17A     -0.753730    18A     -0.726051
      19A     -0.688335    20A     -0.650561    21A     -0.639116
      22A     -0.616142    23A     -0.563087    24A     -0.545301
      25A     -0.452304    26A     -0.440982    27A     -0.434863
      28A     -0.410190    29A     -0.323743

  @DF-RHF Final Energy:  -392.73502512891719

   => Energetics <=

    Nuclear Repulsion Energy =            354.2000593884027353
    One-Electron Energy =               -1236.5860305806452288
    Two-Electron Energy =                 489.6509460633253639
    Total Energy =                       -392.7350251289171865
  Basis Set: (AUG-CC-PVTZ AUX)
    Blend: AUG-CC-PVTZ-RI
    Molecular point group: c1

    Geometry (in Angstrom), charge = 0, multiplicity = 1:

       Center              X                  Y                   Z               Mass
    ------------   -----------------  -----------------  -----------------  -----------------
         O           -2.178716522274    -1.168630251725     0.000147921850    15.994914619570
         N            0.081265477726    -0.909567251725    -0.000013078150    14.003074004430
         N            2.409221477726    -0.848612251725    -0.000518078150    14.003074004430
         N           -1.342592522274     1.001784748275     0.000231921850    14.003074004430
         C            1.225358477726    -0.177965251725    -0.000117078150    12.000000000000
         C            1.093349477726     1.197586748275    -0.000075078150    12.000000000000
         C           -1.243130522274    -0.376205251725     0.000167921850    12.000000000000
         C           -0.136116822274     1.753650248275     0.000052321850    12.000000000000
         H            0.105378477726    -1.925843251725    -0.000206078150     1.007825032230
         H            1.957223477726     1.850755748275    -0.000148078150     1.007825032230
         H           -0.353225522274     2.783959748275     0.000225921850     1.007825032230
         H            3.278269477726    -0.337733251725     0.000583921850     1.007825032230
         H            2.454922477726    -1.855975251725     0.001019921850     1.007825032230

  Basis Set: AUG-CC-PVTZ
    Blend: AUG-CC-PVTZ
  Basis Set: (AUG-CC-PVTZ AUX)
    Blend: AUG-CC-PVTZ-JKFIT
	 Reference Energy          =    -392.7350251289171865 [Eh]
	 Singles Energy            =      -0.0000000000000000 [Eh]
	 Same-Spin Energy          =      -0.4084189265624022 [Eh]
	 Opposite-Spin Energy      =      -1.2167841040798770 [Eh]
	 Correlation Energy        =      -1.6252030306422793 [Eh]
	 Total Energy              =    -394.3602281595594832 [Eh]

	 ================> DF-SCS-MP2 Energies <==================
	-----------------------------------------------------------
	 SCS Same-Spin Scale       =       0.3333333333333333 [-]
	 SCS Opposite-Spin Scale   =       1.2000000000000000 [-]
	 SCS Same-Spin Energy      =      -0.1361396421874674 [Eh]
	 SCS Opposite-Spin Energy  =      -1.4601409248958523 [Eh]
	 SCS Correlation Energy    =      -1.5962805670833198 [Eh]
	 SCS Total Energy          =    -394.3313056960005270 [Eh]
	-----------------------------------------------------------

  Dipole Moment: [D]
     X:     8.7431      Y:    -0.8286      Z:     0.0030     Total:     8.7822

*** Psi4 exiting successfully. Buy a developer a beer!
