                               Psi4 1.3.2 release

  ==> Input File <==

--------------------------------------------------------------------------
#psi4
#
memory 32 gb

molecule  {
0 1
  O       -2.2334690    -1.1675340     0.0001340
  N        0.0265130    -0.9084710    -0.0000270
  N        2.3544690    -0.8475160    -0.0005320
  N       -1.3973450     1.0028810     0.0002180
  C        1.1706060    -0.1768690    -0.0001310
  C        1.0385970     1.1986830    -0.0000890
  C       -1.2978830    -0.3751090     0.0001540
  C       -0.2573768     1.7474201     0.0000501
  H        0.0506260    -1.9247470    -0.0002200
  H        1.9024710     1.8518520    -0.0001620
  H       -0.4079780     2.7850560     0.0002120
  H        3.2235170    -0.3366370     0.0005700
  H        2.4001700    -1.8548790     0.0010060
units angstrom
no_reorient  #important for SAPT in psi4, default
symmetry c1  #important for SAPT in psi4, default
}

set PROPERTIES_ORIGIN ["COM"]
properties('MP2/aug-cc-pvtz', properties = ['dipole'])
--------------------------------------------------------------------------

    Molecular point group: c1
  Charge       = 0
  Multiplicity = 1
  Basis Set: AUG-CC-PVTZ
    Blend: AUG-CC-PVTZ
  Basis Set: (AUG-CC-PVTZ AUX)
    Blend: AUG-CC-PVTZ-JKFIT

    Orbital Energies [Eh]
    ---------------------

    Doubly Occupied:

       1A    -20.506162     2A    -15.632305     3A    -15.630797
       4A    -15.544951     5A    -11.386793     6A    -11.373250
       7A    -11.311729     8A    -11.235147     9A     -1.385847
      10A     -1.323216    11A     -1.237471    12A     -1.190048
      13A     -1.057616    14A     -0.915432    15A     -0.881555
      16A     -0.784131    17A     -0.751732    18A     -0.725016
      19A     -0.692167    20A     -0.640569    21A     -0.637211
      22A     -0.618380    23A     -0.573575    24A     -0.546440
      25A     -0.453422    26A     -0.442485    27A     -0.441387
      28A     -0.413772    29A     -0.324056

  @DF-RHF Final Energy:  -392.74604139292131

   => Energetics <=

    Nuclear Repulsion Energy =            354.2923782339354943
    One-Electron Energy =               -1236.7635148895249131
    Two-Electron Energy =                 489.7250952626680487
    Total Energy =                       -392.7460413929213132
  Basis Set: (AUG-CC-PVTZ AUX)
    Blend: AUG-CC-PVTZ-RI
    Molecular point group: c1

    Geometry (in Angstrom), charge = 0, multiplicity = 1:

       Center              X                  Y                   Z               Mass
    ------------   -----------------  -----------------  -----------------  -----------------
         O           -2.171529323456    -1.167838517057     0.000146657478    15.994914619570
         N            0.088452676544    -0.908775517057    -0.000014342522    14.003074004430
         N            2.416408676544    -0.847820517057    -0.000519342522    14.003074004430
         N           -1.335405323456     1.002576482943     0.000230657478    14.003074004430
         C            1.232545676544    -0.177173517057    -0.000118342522    12.000000000000
         C            1.100536676544     1.198378482943    -0.000076342522    12.000000000000
         C           -1.235943323456    -0.375413517057     0.000166657478    12.000000000000
         C           -0.195437123456     1.747115582943     0.000062757478    12.000000000000
         H            0.112565676544    -1.925051517057    -0.000207342522     1.007825032230
         H            1.964410676544     1.851547482943    -0.000149342522     1.007825032230
         H           -0.346038323456     2.784751482943     0.000224657478     1.007825032230
         H            3.285456676544    -0.336941517057     0.000582657478     1.007825032230
         H            2.462109676544    -1.855183517057     0.001018657478     1.007825032230

  Basis Set: AUG-CC-PVTZ
    Blend: AUG-CC-PVTZ
  Basis Set: (AUG-CC-PVTZ AUX)
    Blend: AUG-CC-PVTZ-JKFIT
	 Reference Energy          =    -392.7460413929213132 [Eh]
	 Singles Energy            =      -0.0000000000000000 [Eh]
	 Same-Spin Energy          =      -0.4074080136500738 [Eh]
	 Opposite-Spin Energy      =      -1.2152392216884338 [Eh]
	 Correlation Energy        =      -1.6226472353385075 [Eh]
	 Total Energy              =    -394.3686886282598039 [Eh]

	 ================> DF-SCS-MP2 Energies <==================
	-----------------------------------------------------------
	 SCS Same-Spin Scale       =       0.3333333333333333 [-]
	 SCS Opposite-Spin Scale   =       1.2000000000000000 [-]
	 SCS Same-Spin Energy      =      -0.1358026712166913 [Eh]
	 SCS Opposite-Spin Energy  =      -1.4582870660261205 [Eh]
	 SCS Correlation Energy    =      -1.5940897372428118 [Eh]
	 SCS Total Energy          =    -394.3401311301641385 [Eh]
	-----------------------------------------------------------

  Dipole Moment: [D]
     X:     8.2769      Y:    -0.7866      Z:     0.0030     Total:     8.3142

*** Psi4 exiting successfully. Buy a developer a beer!
