                               Psi4 1.3.2 release

  ==> Input File <==

--------------------------------------------------------------------------
#psi4
#
memory 32 gb

molecule  {
0 1
  O       -2.2334690    -1.1675340     0.0001340
  N        0.0265130    -0.9084710    -0.0000270
  N        2.3544690    -0.8475160    -0.0005320
  N       -1.3973450     1.0028810     0.0002180
  C        1.2576148    -0.2261586    -0.0001605
  C        1.0385970     1.1986830    -0.0000890
  C       -1.2978830    -0.3751090     0.0001540
  C       -0.2757380     1.7018570     0.0000510
  H        0.0506260    -1.9247470    -0.0002200
  H        1.9024710     1.8518520    -0.0001620
  H       -0.4079780     2.7850560     0.0002120
  H        3.2235170    -0.3366370     0.0005700
  H        2.4001700    -1.8548790     0.0010060
units angstrom
no_reorient  #important for SAPT in psi4, default
symmetry c1  #important for SAPT in psi4, default
}

set PROPERTIES_ORIGIN ["COM"]
properties('MP2/aug-cc-pvtz', properties = ['dipole'])
--------------------------------------------------------------------------

    Molecular point group: c1
  Charge       = 0
  Multiplicity = 1
  Basis Set: AUG-CC-PVTZ
    Blend: AUG-CC-PVTZ
  Basis Set: (AUG-CC-PVTZ AUX)
    Blend: AUG-CC-PVTZ-JKFIT

    Orbital Energies [Eh]
    ---------------------

    Doubly Occupied:

       1A    -20.503774     2A    -15.649747     3A    -15.626500
       4A    -15.534934     5A    -11.389781     6A    -11.370718
       7A    -11.301879     8A    -11.230993     9A     -1.383833
      10A     -1.350091    11A     -1.248323    12A     -1.191884
      13A     -1.040778    14A     -0.911466    15A     -0.883145
      16A     -0.803666    17A     -0.763154    18A     -0.728561
      19A     -0.678711    20A     -0.641918    21A     -0.635842
      22A     -0.609028    23A     -0.563456    24A     -0.551221
      25A     -0.453030    26A     -0.440531    27A     -0.439075
      28A     -0.408929    29A     -0.314285

  @DF-RHF Final Energy:  -392.73490856740364

   => Energetics <=

    Nuclear Repulsion Energy =            354.4798636861595469
    One-Electron Energy =               -1237.1310382129565824
    Two-Electron Energy =                 489.9162659593933995
    Total Energy =                       -392.7349085674036360
  Basis Set: (AUG-CC-PVTZ AUX)
    Blend: AUG-CC-PVTZ-RI
    Molecular point group: c1

    Geometry (in Angstrom), charge = 0, multiplicity = 1:

       Center              X                  Y                   Z               Mass
    ------------   -----------------  -----------------  -----------------  -----------------
         O           -2.178947794299    -1.157588166143     0.000149748166    15.994914619570
         N            0.081034205701    -0.898525166143    -0.000011251834    14.003074004430
         N            2.408990205701    -0.837570166143    -0.000516251834    14.003074004430
         N           -1.342823794299     1.012826833857     0.000233748166    14.003074004430
         C            1.312136005701    -0.216212766143    -0.000144751834    12.000000000000
         C            1.093118205701     1.208628833857    -0.000073251834    12.000000000000
         C           -1.243361794299    -0.365163166143     0.000169748166    12.000000000000
         C           -0.221216794299     1.711802833857     0.000066748166    12.000000000000
         H            0.105147205701    -1.914801166143    -0.000204251834     1.007825032230
         H            1.956992205701     1.861797833857    -0.000146251834     1.007825032230
         H           -0.353456794299     2.795001833857     0.000227748166     1.007825032230
         H            3.278038205701    -0.326691166143     0.000585748166     1.007825032230
         H            2.454691205701    -1.844933166143     0.001021748166     1.007825032230

  Basis Set: AUG-CC-PVTZ
    Blend: AUG-CC-PVTZ
  Basis Set: (AUG-CC-PVTZ AUX)
    Blend: AUG-CC-PVTZ-JKFIT
	 Reference Energy          =    -392.7349085674036360 [Eh]
	 Singles Energy            =      -0.0000000000000000 [Eh]
	 Same-Spin Energy          =      -0.4071369862079403 [Eh]
	 Opposite-Spin Energy      =      -1.2141308108361635 [Eh]
	 Correlation Energy        =      -1.6212677970441036 [Eh]
	 Total Energy              =    -394.3561763644477196 [Eh]

	 ================> DF-SCS-MP2 Energies <==================
	-----------------------------------------------------------
	 SCS Same-Spin Scale       =       0.3333333333333333 [-]
	 SCS Opposite-Spin Scale   =       1.2000000000000000 [-]
	 SCS Same-Spin Energy      =      -0.1357123287359801 [Eh]
	 SCS Opposite-Spin Energy  =      -1.4569569730033962 [Eh]
	 SCS Correlation Energy    =      -1.5926693017393763 [Eh]
	 SCS Total Energy          =    -394.3275778691429991 [Eh]
	-----------------------------------------------------------

  Dipole Moment: [D]
     X:     9.0304      Y:    -1.3605      Z:     0.0028     Total:     9.1324

*** Psi4 exiting successfully. Buy a developer a beer!
