                               Psi4 1.4a3.dev225

  ==> Input File <==

--------------------------------------------------------------------------
#psi4
#
memory 32 gb

molecule  {
0 1
  O        2.2358750    -1.1647400    -0.0019990
  N       -0.0266920    -0.9090020    -0.0014130
  N       -2.3606070    -0.8668920    -0.0783920
  N        1.3942980     1.0030250     0.0093070
  C       -1.1689180    -0.1740660     0.0003700
  C       -1.0400980     1.1965590     0.0002140
  C        1.2955060    -0.3793770     0.0033320
  C        0.2772380     1.7038820     0.0017870
  H       -0.0591648    -1.8732761    -0.0651615
  H       -1.9045160     1.8491770     0.0118680
  H        0.4106550     2.7868440     0.0040290
  H       -3.1798030    -0.3063160     0.1264620
  H       -2.3838550    -1.7605480     0.4013470
units angstrom
no_reorient  #important for SAPT in psi4, default
symmetry c1  #important for SAPT in psi4, default
}

set PROPERTIES_ORIGIN ["COM"]
properties('MP2/aug-cc-pvtz', properties = ['dipole'])
--------------------------------------------------------------------------

    Molecular point group: c1
  Charge       = 0
  Multiplicity = 1
  Basis Set: AUG-CC-PVTZ
    Blend: AUG-CC-PVTZ
  Basis Set: (AUG-CC-PVTZ AUX)
    Blend: AUG-CC-PVTZ-JKFIT

    Orbital Energies [Eh]
    ---------------------

    Doubly Occupied:

       1A    -20.513177     2A    -15.629887     3A    -15.627262
       4A    -15.552153     5A    -11.381703     6A    -11.379193
       7A    -11.313215     8A    -11.237829     9A     -1.393379
      10A     -1.324863    11A     -1.244787    12A     -1.205551
      13A     -1.061240    14A     -0.913309    15A     -0.884674
      16A     -0.782164    17A     -0.753102    18A     -0.719468
      19A     -0.688417    20A     -0.647385    21A     -0.631233
      22A     -0.624543    23A     -0.574845    24A     -0.548126
      25A     -0.464294    26A     -0.452417    27A     -0.449507
      28A     -0.418969    29A     -0.332055

  @DF-RHF Final Energy:  -392.75074150215562

   => Energetics <=

    Nuclear Repulsion Energy =            355.2932750293942377
    One-Electron Energy =               -1238.5905360899769221
    Two-Electron Energy =                 490.5465195584271214
    Total Energy =                       -392.7507415021556199
  Basis Set: (AUG-CC-PVTZ AUX)
    Blend: AUG-CC-PVTZ-RI
    Molecular point group: c1

    Geometry (in Angstrom), charge = 0, multiplicity = 1:

       Center              X                  Y                   Z               Mass
    ------------   -----------------  -----------------  -----------------  -----------------
         O            2.172386886975    -1.159452362941     0.002219512783    15.994914619570
         N           -0.090180113025    -0.903714362941     0.002805512783    14.003074004430
         N           -2.424095113025    -0.861604362941    -0.074173487217    14.003074004430
         N            1.330809886975     1.008312637059     0.013525512783    14.003074004430
         C           -1.232406113025    -0.168778362941     0.004588512783    12.000000000000
         C           -1.103586113025     1.201846637059     0.004432512783    12.000000000000
         C            1.232017886975    -0.374089362941     0.007550512783    12.000000000000
         C            0.213749886975     1.709169637059     0.006005512783    12.000000000000
         H           -0.122652913025    -1.867988462941    -0.060942987217     1.007825032230
         H           -1.968004113025     1.854464637059     0.016086512783     1.007825032230
         H            0.347166886975     2.792131637059     0.008247512783     1.007825032230
         H           -3.243291113025    -0.301028362941     0.130680512783     1.007825032230
         H           -2.447343113025    -1.755260362941     0.405565512783     1.007825032230

  Basis Set: AUG-CC-PVTZ
    Blend: AUG-CC-PVTZ
  Basis Set: (AUG-CC-PVTZ AUX)
    Blend: AUG-CC-PVTZ-JKFIT
	 Reference Energy          =    -392.7507415021556199 [Eh]
	 Singles Energy            =      -0.0000000000000000 [Eh]
	 Same-Spin Energy          =      -0.4063794866670553 [Eh]
	 Opposite-Spin Energy      =      -1.2141210250610728 [Eh]
	 Correlation Energy        =      -1.6205005117281281 [Eh]
	 Total Energy              =    -394.3712420138837729 [Eh]

	 ================> DF-SCS-MP2 Energies <==================
	-----------------------------------------------------------
	 SCS Same-Spin Scale       =       0.3333333333333333 [-]
	 SCS Opposite-Spin Scale   =       1.2000000000000000 [-]
	 SCS Same-Spin Energy      =      -0.1354598288890184 [Eh]
	 SCS Opposite-Spin Energy  =      -1.4569452300732872 [Eh]
	 SCS Correlation Energy    =      -1.5924050589623056 [Eh]
	 SCS Total Energy          =    -394.3431465611179192 [Eh]
	-----------------------------------------------------------

  Dipole Moment: [D]
     X:    -7.6028      Y:    -0.3513      Z:     0.8663     Total:     7.6600

*** Psi4 exiting successfully. Buy a developer a beer!
