                               Psi4 1.3.2 release

  ==> Input File <==

--------------------------------------------------------------------------
#psi4
#
memory 32 gb

molecule  {
0 1
  O       -2.2334690    -1.1675340     0.0001340
  N        0.0265130    -0.9084710    -0.0000270
  N        2.3544690    -0.8475160    -0.0005320
  N       -1.3973450     1.0028810     0.0002180
  C        1.1706060    -0.1768690    -0.0001310
  C        1.0385970     1.1986830    -0.0000890
  C       -1.3741904    -0.4397401     0.0001524
  C       -0.2757380     1.7018570     0.0000510
  H        0.0506260    -1.9247470    -0.0002200
  H        1.9024710     1.8518520    -0.0001620
  H       -0.4079780     2.7850560     0.0002120
  H        3.2235170    -0.3366370     0.0005700
  H        2.4001700    -1.8548790     0.0010060
units angstrom
no_reorient  #important for SAPT in psi4, default
symmetry c1  #important for SAPT in psi4, default
}

set PROPERTIES_ORIGIN ["COM"]
properties('MP2/aug-cc-pvtz', properties = ['dipole'])
--------------------------------------------------------------------------

    Molecular point group: c1
  Charge       = 0
  Multiplicity = 1
  Basis Set: AUG-CC-PVTZ
    Blend: AUG-CC-PVTZ
  Basis Set: (AUG-CC-PVTZ AUX)
    Blend: AUG-CC-PVTZ-JKFIT

    Orbital Energies [Eh]
    ---------------------

    Doubly Occupied:

       1A    -20.537690     2A    -15.620938     3A    -15.618101
       4A    -15.537561     5A    -11.377615     6A    -11.375045
       7A    -11.298956     8A    -11.221218     9A     -1.456384
      10A     -1.323951    11A     -1.231717    12A     -1.179455
      13A     -1.045712    14A     -0.895882    15A     -0.869850
      16A     -0.775415    17A     -0.742802    18A     -0.711177
      19A     -0.689680    20A     -0.657052    21A     -0.637366
      22A     -0.622367    23A     -0.572357    24A     -0.569098
      25A     -0.476403    26A     -0.463699    27A     -0.439455
      28A     -0.394464    29A     -0.317870

  @DF-RHF Final Energy:  -392.73703440154162

   => Energetics <=

    Nuclear Repulsion Energy =            354.8606480003240335
    One-Electron Energy =               -1237.8768061903947455
    Two-Electron Energy =                 490.2791237885290343
    Total Energy =                       -392.7370344015416208
  Basis Set: (AUG-CC-PVTZ AUX)
    Blend: AUG-CC-PVTZ-RI
    Molecular point group: c1

    Geometry (in Angstrom), charge = 0, multiplicity = 1:

       Center              X                  Y                   Z               Mass
    ------------   -----------------  -----------------  -----------------  -----------------
         O           -2.161298867491    -1.155930271760     0.000146733125    15.994914619570
         N            0.098683132509    -0.896867271760    -0.000014266875    14.003074004430
         N            2.426639132509    -0.835912271760    -0.000519266875    14.003074004430
         N           -1.325174867491     1.014484728240     0.000230733125    14.003074004430
         C            1.242776132509    -0.165265271760    -0.000118266875    12.000000000000
         C            1.110767132509     1.210286728240    -0.000076266875    12.000000000000
         C           -1.302020267491    -0.428136371760     0.000165133125    12.000000000000
         C           -0.203567867491     1.713460728240     0.000063733125    12.000000000000
         H            0.122796132509    -1.913143271760    -0.000207266875     1.007825032230
         H            1.974641132509     1.863455728240    -0.000149266875     1.007825032230
         H           -0.335807867491     2.796659728240     0.000224733125     1.007825032230
         H            3.295687132509    -0.325033271760     0.000582733125     1.007825032230
         H            2.472340132509    -1.843275271760     0.001018733125     1.007825032230

  Basis Set: AUG-CC-PVTZ
    Blend: AUG-CC-PVTZ
  Basis Set: (AUG-CC-PVTZ AUX)
    Blend: AUG-CC-PVTZ-JKFIT
	 Reference Energy          =    -392.7370344015416208 [Eh]
	 Singles Energy            =      -0.0000000000000000 [Eh]
	 Same-Spin Energy          =      -0.4052370372512225 [Eh]
	 Opposite-Spin Energy      =      -1.2117944472109579 [Eh]
	 Correlation Energy        =      -1.6170314844621805 [Eh]
	 Total Energy              =    -394.3540658860038093 [Eh]

	 ================> DF-SCS-MP2 Energies <==================
	-----------------------------------------------------------
	 SCS Same-Spin Scale       =       0.3333333333333333 [-]
	 SCS Opposite-Spin Scale   =       1.2000000000000000 [-]
	 SCS Same-Spin Energy      =      -0.1350790124170742 [Eh]
	 SCS Opposite-Spin Energy  =      -1.4541533366531494 [Eh]
	 SCS Correlation Energy    =      -1.5892323490702236 [Eh]
	 SCS Total Energy          =    -394.3262667506118646 [Eh]
	-----------------------------------------------------------

  Dipole Moment: [D]
     X:     7.0767      Y:    -1.5120      Z:     0.0031     Total:     7.2365

*** Psi4 exiting successfully. Buy a developer a beer!
