                               Psi4 1.4a3.dev225

  ==> Input File <==

--------------------------------------------------------------------------
#psi4
#
memory 32 gb

molecule  {
0 1
  O        2.2358750    -1.1647400    -0.0019990
  N       -0.0266920    -0.9090020    -0.0014130
  N       -2.3606070    -0.8668920    -0.0783920
  N        1.3942980     1.0030250     0.0093070
  C       -1.2109660    -0.1470113     0.0004356
  C       -1.0400980     1.1965590     0.0002140
  C        1.2955060    -0.3793770     0.0033320
  C        0.2772380     1.7038820     0.0017870
  H       -0.0608440    -1.9231390    -0.0684580
  H       -1.9045160     1.8491770     0.0118680
  H        0.4106550     2.7868440     0.0040290
  H       -3.1798030    -0.3063160     0.1264620
  H       -2.3838550    -1.7605480     0.4013470
units angstrom
no_reorient  #important for SAPT in psi4, default
symmetry c1  #important for SAPT in psi4, default
}

set PROPERTIES_ORIGIN ["COM"]
properties('MP2/aug-cc-pvtz', properties = ['dipole'])
--------------------------------------------------------------------------

    Molecular point group: c1
  Charge       = 0
  Multiplicity = 1
  Basis Set: AUG-CC-PVTZ
    Blend: AUG-CC-PVTZ
  Basis Set: (AUG-CC-PVTZ AUX)
    Blend: AUG-CC-PVTZ-JKFIT

    Orbital Energies [Eh]
    ---------------------

    Doubly Occupied:

       1A    -20.510485     2A    -15.628639     3A    -15.626763
       4A    -15.553905     5A    -11.379859     6A    -11.376437
       7A    -11.315331     8A    -11.237740     9A     -1.386217
      10A     -1.319985    11A     -1.245896    12A     -1.194498
      13A     -1.065727    14A     -0.911020    15A     -0.875437
      16A     -0.774954    17A     -0.746715    18A     -0.721199
      19A     -0.684453    20A     -0.645613    21A     -0.627675
      22A     -0.622552    23A     -0.571010    24A     -0.551183
      25A     -0.464194    26A     -0.450564    27A     -0.442635
      28A     -0.418407    29A     -0.335474

  @DF-RHF Final Energy:  -392.74703450941718

   => Energetics <=

    Nuclear Repulsion Energy =            354.5900332244833635
    One-Electron Energy =               -1237.3050032136759455
    Two-Electron Energy =                 489.9679354797754058
    Total Energy =                       -392.7470345094171762
  Basis Set: (AUG-CC-PVTZ AUX)
    Blend: AUG-CC-PVTZ-RI
    Molecular point group: c1

    Geometry (in Angstrom), charge = 0, multiplicity = 1:

       Center              X                  Y                   Z               Mass
    ------------   -----------------  -----------------  -----------------  -----------------
         O            2.176946086080    -1.161923501817     0.002242342581    15.994914619570
         N           -0.085620913920    -0.906185501817     0.002828342581    14.003074004430
         N           -2.419535913920    -0.864075501817    -0.074150657419    14.003074004430
         N            1.335369086080     1.005841498183     0.013548342581    14.003074004430
         C           -1.269894913920    -0.144194801817     0.004676942581    12.000000000000
         C           -1.099026913920     1.199375498183     0.004455342581    12.000000000000
         C            1.236577086080    -0.376560501817     0.007573342581    12.000000000000
         C            0.218309086080     1.706698498183     0.006028342581    12.000000000000
         H           -0.119772913920    -1.920322501817    -0.064216657419     1.007825032230
         H           -1.963444913920     1.851993498183     0.016109342581     1.007825032230
         H            0.351726086080     2.789660498183     0.008270342581     1.007825032230
         H           -3.238731913920    -0.303499501817     0.130703342581     1.007825032230
         H           -2.442783913920    -1.757731501817     0.405588342581     1.007825032230

  Basis Set: AUG-CC-PVTZ
    Blend: AUG-CC-PVTZ
  Basis Set: (AUG-CC-PVTZ AUX)
    Blend: AUG-CC-PVTZ-JKFIT
	 Reference Energy          =    -392.7470345094171762 [Eh]
	 Singles Energy            =      -0.0000000000000000 [Eh]
	 Same-Spin Energy          =      -0.4068117093170204 [Eh]
	 Opposite-Spin Energy      =      -1.2155731866083936 [Eh]
	 Correlation Energy        =      -1.6223848959254141 [Eh]
	 Total Energy              =    -394.3694194053425690 [Eh]

	 ================> DF-SCS-MP2 Energies <==================
	-----------------------------------------------------------
	 SCS Same-Spin Scale       =       0.3333333333333333 [-]
	 SCS Opposite-Spin Scale   =       1.2000000000000000 [-]
	 SCS Same-Spin Energy      =      -0.1356039031056734 [Eh]
	 SCS Opposite-Spin Energy  =      -1.4586878239300722 [Eh]
	 SCS Correlation Energy    =      -1.5942917270357457 [Eh]
	 SCS Total Energy          =    -394.3413262364529146 [Eh]
	-----------------------------------------------------------

  Dipole Moment: [D]
     X:    -7.7365      Y:    -0.2860      Z:     0.8596     Total:     7.7894

*** Psi4 exiting successfully. Buy a developer a beer!
