                               Psi4 1.4a3.dev225

  ==> Input File <==

--------------------------------------------------------------------------
#psi4
#
memory 32 gb

molecule  {
0 1
  O        2.2358750    -1.1647400    -0.0019990
  N       -0.0266920    -0.9090020    -0.0014130
  N       -2.3606070    -0.8668920    -0.0783920
  N        1.3942980     1.0030250     0.0093070
  C       -1.1689180    -0.1740660     0.0003700
  C       -1.0400980     1.1965590     0.0002140
  C        1.2955060    -0.3793770     0.0033320
  C        0.2772380     1.7038820     0.0017870
  H       -0.0615157    -1.9430842    -0.0697766
  H       -1.9045160     1.8491770     0.0118680
  H        0.4106550     2.7868440     0.0040290
  H       -3.1798030    -0.3063160     0.1264620
  H       -2.3838550    -1.7605480     0.4013470
units angstrom
no_reorient  #important for SAPT in psi4, default
symmetry c1  #important for SAPT in psi4, default
}

set PROPERTIES_ORIGIN ["COM"]
properties('MP2/aug-cc-pvtz', properties = ['dipole'])
--------------------------------------------------------------------------

    Molecular point group: c1
  Charge       = 0
  Multiplicity = 1
  Basis Set: AUG-CC-PVTZ
    Blend: AUG-CC-PVTZ
  Basis Set: (AUG-CC-PVTZ AUX)
    Blend: AUG-CC-PVTZ-JKFIT

    Orbital Energies [Eh]
    ---------------------

    Doubly Occupied:

       1A    -20.512454     2A    -15.635798     3A    -15.626745
       4A    -15.552003     5A    -11.381258     6A    -11.378761
       7A    -11.312789     8A    -11.237484     9A     -1.390966
      10A     -1.322447    11A     -1.243981    12A     -1.200094
      13A     -1.059666    14A     -0.907907    15A     -0.883738
      16A     -0.773720    17A     -0.748969    18A     -0.714019
      19A     -0.687845    20A     -0.646190    21A     -0.629866
      22A     -0.623223    23A     -0.573555    24A     -0.547595
      25A     -0.463773    26A     -0.451601    27A     -0.448411
      28A     -0.418547    29A     -0.331571

  @DF-RHF Final Energy:  -392.74989760775458

   => Energetics <=

    Nuclear Repulsion Energy =            354.8538468262583478
    One-Electron Energy =               -1237.7975377483658121
    Two-Electron Energy =                 490.1937933143528312
    Total Energy =                       -392.7498976077545763
  Basis Set: (AUG-CC-PVTZ AUX)
    Blend: AUG-CC-PVTZ-RI
    Molecular point group: c1

    Geometry (in Angstrom), charge = 0, multiplicity = 1:

       Center              X                  Y                   Z               Mass
    ------------   -----------------  -----------------  -----------------  -----------------
         O            2.172408223667    -1.158818786896     0.002261399281    15.994914619570
         N           -0.090158776333    -0.903080786896     0.002847399281    14.003074004430
         N           -2.424073776333    -0.860970786896    -0.074131600719    14.003074004430
         N            1.330831223667     1.008946213104     0.013567399281    14.003074004430
         C           -1.232384776333    -0.168144786896     0.004630399281    12.000000000000
         C           -1.103564776333     1.202480213104     0.004474399281    12.000000000000
         C            1.232039223667    -0.373455786896     0.007592399281    12.000000000000
         C            0.213771223667     1.709803213104     0.006047399281    12.000000000000
         H           -0.124982476333    -1.937162986896    -0.065516200719     1.007825032230
         H           -1.967982776333     1.855098213104     0.016128399281     1.007825032230
         H            0.347188223667     2.792765213104     0.008289399281     1.007825032230
         H           -3.243269776333    -0.300394786896     0.130722399281     1.007825032230
         H           -2.447321776333    -1.754626786896     0.405607399281     1.007825032230

  Basis Set: AUG-CC-PVTZ
    Blend: AUG-CC-PVTZ
  Basis Set: (AUG-CC-PVTZ AUX)
    Blend: AUG-CC-PVTZ-JKFIT
	 Reference Energy          =    -392.7498976077545763 [Eh]
	 Singles Energy            =      -0.0000000000000000 [Eh]
	 Same-Spin Energy          =      -0.4069865443926696 [Eh]
	 Opposite-Spin Energy      =      -1.2153439096564420 [Eh]
	 Correlation Energy        =      -1.6223304540491115 [Eh]
	 Total Energy              =    -394.3722280618036962 [Eh]

	 ================> DF-SCS-MP2 Energies <==================
	-----------------------------------------------------------
	 SCS Same-Spin Scale       =       0.3333333333333333 [-]
	 SCS Opposite-Spin Scale   =       1.2000000000000000 [-]
	 SCS Same-Spin Energy      =      -0.1356621814642232 [Eh]
	 SCS Opposite-Spin Energy  =      -1.4584126915877305 [Eh]
	 SCS Correlation Energy    =      -1.5940748730519536 [Eh]
	 SCS Total Energy          =    -394.3439724808065421 [Eh]
	-----------------------------------------------------------

  Dipole Moment: [D]
     X:    -7.5979      Y:    -0.4270      Z:     0.8599     Total:     7.6583

*** Psi4 exiting successfully. Buy a developer a beer!
