                               Psi4 1.3.2 release

  ==> Input File <==

--------------------------------------------------------------------------
#psi4
#
memory 32 gb

molecule  {
0 1
  O       -2.2334690    -1.1675340     0.0001340
  N        0.0265130    -0.9084710    -0.0000270
  N        2.3544690    -0.8475160    -0.0005320
  N       -1.3973450     1.0028810     0.0002180
  C        1.1706060    -0.1768690    -0.0001310
  C        1.0385970     1.1986830    -0.0000890
  C       -1.2348763    -0.2395937     0.0001757
  C       -0.2757380     1.7018570     0.0000510
  H        0.0506260    -1.9247470    -0.0002200
  H        1.9024710     1.8518520    -0.0001620
  H       -0.4079780     2.7850560     0.0002120
  H        3.2235170    -0.3366370     0.0005700
  H        2.4001700    -1.8548790     0.0010060
units angstrom
no_reorient  #important for SAPT in psi4, default
symmetry c1  #important for SAPT in psi4, default
}

set PROPERTIES_ORIGIN ["COM"]
properties('MP2/aug-cc-pvtz', properties = ['dipole'])
--------------------------------------------------------------------------

    Molecular point group: c1
  Charge       = 0
  Multiplicity = 1
  Basis Set: AUG-CC-PVTZ
    Blend: AUG-CC-PVTZ
  Basis Set: (AUG-CC-PVTZ AUX)
    Blend: AUG-CC-PVTZ-JKFIT

    Orbital Energies [Eh]
    ---------------------

    Doubly Occupied:

       1A    -20.468776     2A    -15.641736     3A    -15.638440
       4A    -15.552777     5A    -11.394662     6A    -11.366766
       7A    -11.328447     8A    -11.249374     9A     -1.376517
      10A     -1.303112    11A     -1.233022    12A     -1.208844
      13A     -1.073301    14A     -0.933814    15A     -0.886208
      16A     -0.791897    17A     -0.777031    18A     -0.730211
      19A     -0.701355    20A     -0.654596    21A     -0.646148
      22A     -0.609393    23A     -0.548968    24A     -0.532011
      25A     -0.464437    26A     -0.443449    27A     -0.420091
      28A     -0.392392    29A     -0.330317

  @DF-RHF Final Energy:  -392.71111621630428

   => Energetics <=

    Nuclear Repulsion Energy =            355.9762517234245820
    One-Electron Energy =               -1239.9785515751684670
    Two-Electron Energy =                 491.2911836354395518
    Total Energy =                       -392.7111162163042763
  Basis Set: (AUG-CC-PVTZ AUX)
    Blend: AUG-CC-PVTZ-RI
    Molecular point group: c1

    Geometry (in Angstrom), charge = 0, multiplicity = 1:

       Center              X                  Y                   Z               Mass
    ------------   -----------------  -----------------  -----------------  -----------------
         O           -2.176353983605    -1.177559290588     0.000144215187    15.994914619570
         N            0.083628016395    -0.918496290588    -0.000016784813    14.003074004430
         N            2.411584016395    -0.857541290588    -0.000521784813    14.003074004430
         N           -1.340229983605     0.992855709412     0.000228215187    14.003074004430
         C            1.227721016395    -0.186894290588    -0.000120784813    12.000000000000
         C            1.095712016395     1.188657709412    -0.000078784813    12.000000000000
         C           -1.177761283605    -0.249618990588     0.000185915187    12.000000000000
         C           -0.218622983605     1.691831709412     0.000061215187    12.000000000000
         H            0.107741016395    -1.934772290588    -0.000209784813     1.007825032230
         H            1.959586016395     1.841826709412    -0.000151784813     1.007825032230
         H           -0.350862983605     2.775030709412     0.000222215187     1.007825032230
         H            3.280632016395    -0.346662290588     0.000580215187     1.007825032230
         H            2.457285016395    -1.864904290588     0.001016215187     1.007825032230

  Basis Set: AUG-CC-PVTZ
    Blend: AUG-CC-PVTZ
  Basis Set: (AUG-CC-PVTZ AUX)
    Blend: AUG-CC-PVTZ-JKFIT
	 Reference Energy          =    -392.7111162163042763 [Eh]
	 Singles Energy            =      -0.0000000000000000 [Eh]
	 Same-Spin Energy          =      -0.4092204880806775 [Eh]
	 Opposite-Spin Energy      =      -1.2174403521197763 [Eh]
	 Correlation Energy        =      -1.6266608402004539 [Eh]
	 Total Energy              =    -394.3377770565047058 [Eh]

	 ================> DF-SCS-MP2 Energies <==================
	-----------------------------------------------------------
	 SCS Same-Spin Scale       =       0.3333333333333333 [-]
	 SCS Opposite-Spin Scale   =       1.2000000000000000 [-]
	 SCS Same-Spin Energy      =      -0.1364068293602258 [Eh]
	 SCS Opposite-Spin Energy  =      -1.4609284225437316 [Eh]
	 SCS Correlation Energy    =      -1.5973352519039574 [Eh]
	 SCS Total Energy          =    -394.3084514682082613 [Eh]
	-----------------------------------------------------------

  Dipole Moment: [D]
     X:     9.4036      Y:     0.1115      Z:     0.0029     Total:     9.4043

*** Psi4 exiting successfully. Buy a developer a beer!
