                               Psi4 1.4a3.dev225

  ==> Input File <==

--------------------------------------------------------------------------
#psi4
#
memory 32 gb

molecule  {
0 1
  O        2.2358750    -1.1647400    -0.0019990
  N       -0.0266920    -0.9090020    -0.0014130
  N       -2.3606070    -0.8668920    -0.0783920
  N        1.3942980     1.0030250     0.0093070
  C       -1.1689180    -0.1740660     0.0003700
  C       -1.0400980     1.1965590     0.0002140
  C        1.2955060    -0.3793770     0.0033320
  C        0.2772380     1.7038820     0.0017870
  H       -0.0608440    -1.9231390    -0.0684580
  H       -1.8646139     1.8190517     0.0113300
  H        0.4106550     2.7868440     0.0040290
  H       -3.1798030    -0.3063160     0.1264620
  H       -2.3838550    -1.7605480     0.4013470
units angstrom
no_reorient  #important for SAPT in psi4, default
symmetry c1  #important for SAPT in psi4, default
}

set PROPERTIES_ORIGIN ["COM"]
properties('MP2/aug-cc-pvtz', properties = ['dipole'])
--------------------------------------------------------------------------

    Molecular point group: c1
  Charge       = 0
  Multiplicity = 1
  Basis Set: AUG-CC-PVTZ
    Blend: AUG-CC-PVTZ
  Basis Set: (AUG-CC-PVTZ AUX)
    Blend: AUG-CC-PVTZ-JKFIT

    Orbital Energies [Eh]
    ---------------------

    Doubly Occupied:

       1A    -20.512522     2A    -15.633932     3A    -15.626977
       4A    -15.551713     5A    -11.381007     6A    -11.378692
       7A    -11.312464     8A    -11.231774     9A     -1.391415
      10A     -1.323002    11A     -1.244038    12A     -1.201421
      13A     -1.062104    14A     -0.909099    15A     -0.885211
      16A     -0.776729    17A     -0.753550    18A     -0.715973
      19A     -0.687941    20A     -0.648365    21A     -0.633256
      22A     -0.625723    23A     -0.576280    24A     -0.547675
      25A     -0.463657    26A     -0.451731    27A     -0.448613
      28A     -0.418463    29A     -0.331559

  @DF-RHF Final Energy:  -392.75016953724236

   => Energetics <=

    Nuclear Repulsion Energy =            355.2403171842627785
    One-Electron Energy =               -1238.5311989664585326
    Two-Electron Energy =                 490.5407122449534540
    Total Energy =                       -392.7501695372423569
  Basis Set: (AUG-CC-PVTZ AUX)
    Blend: AUG-CC-PVTZ-RI
    Molecular point group: c1

    Geometry (in Angstrom), charge = 0, multiplicity = 1:

       Center              X                  Y                   Z               Mass
    ------------   -----------------  -----------------  -----------------  -----------------
         O            2.172039977178    -1.158726392639     0.002254314580    15.994914619570
         N           -0.090527022822    -0.902988392639     0.002840314580    14.003074004430
         N           -2.424442022822    -0.860878392639    -0.074138685420    14.003074004430
         N            1.330462977178     1.009038607361     0.013560314580    14.003074004430
         C           -1.232753022822    -0.168052392639     0.004623314580    12.000000000000
         C           -1.103933022822     1.202572607361     0.004467314580    12.000000000000
         C            1.231670977178    -0.373363392639     0.007585314580    12.000000000000
         C            0.213402977178     1.709895607361     0.006040314580    12.000000000000
         H           -0.124679022822    -1.917125392639    -0.064204685420     1.007825032230
         H           -1.928448922822     1.825065307361     0.015583314580     1.007825032230
         H            0.346819977178     2.792857607361     0.008282314580     1.007825032230
         H           -3.243638022822    -0.300302392639     0.130715314580     1.007825032230
         H           -2.447690022822    -1.754534392639     0.405600314580     1.007825032230

  Basis Set: AUG-CC-PVTZ
    Blend: AUG-CC-PVTZ
  Basis Set: (AUG-CC-PVTZ AUX)
    Blend: AUG-CC-PVTZ-JKFIT
	 Reference Energy          =    -392.7501695372423569 [Eh]
	 Singles Energy            =      -0.0000000000000000 [Eh]
	 Same-Spin Energy          =      -0.4067266424003170 [Eh]
	 Opposite-Spin Energy      =      -1.2147186116300954 [Eh]
	 Correlation Energy        =      -1.6214452540304123 [Eh]
	 Total Energy              =    -394.3716147912727479 [Eh]

	 ================> DF-SCS-MP2 Energies <==================
	-----------------------------------------------------------
	 SCS Same-Spin Scale       =       0.3333333333333333 [-]
	 SCS Opposite-Spin Scale   =       1.2000000000000000 [-]
	 SCS Same-Spin Energy      =      -0.1355755474667723 [Eh]
	 SCS Opposite-Spin Energy  =      -1.4576623339561146 [Eh]
	 SCS Correlation Energy    =      -1.5932378814228869 [Eh]
	 SCS Total Energy          =    -394.3434074186652651 [Eh]
	-----------------------------------------------------------

  Dipole Moment: [D]
     X:    -7.6070      Y:    -0.4073      Z:     0.8622     Total:     7.6666

*** Psi4 exiting successfully. Buy a developer a beer!
