                               Psi4 1.3.2 release

  ==> Input File <==

--------------------------------------------------------------------------
#psi4
#
memory 32 gb

molecule  {
0 1
  O       -2.2334690    -1.1675340     0.0001340
  N        0.0265130    -0.9084710    -0.0000270
  N        2.3544690    -0.8475160    -0.0005320
  N       -1.3973450     1.0028810     0.0002180
  C        1.0835972    -0.1275794    -0.0001015
  C        1.0385970     1.1986830    -0.0000890
  C       -1.2978830    -0.3751090     0.0001540
  C       -0.2757380     1.7018570     0.0000510
  H        0.0506260    -1.9247470    -0.0002200
  H        1.9024710     1.8518520    -0.0001620
  H       -0.4079780     2.7850560     0.0002120
  H        3.2235170    -0.3366370     0.0005700
  H        2.4001700    -1.8548790     0.0010060
units angstrom
no_reorient  #important for SAPT in psi4, default
symmetry c1  #important for SAPT in psi4, default
}

set PROPERTIES_ORIGIN ["COM"]
properties('MP2/aug-cc-pvtz', properties = ['dipole'])
--------------------------------------------------------------------------

    Molecular point group: c1
  Charge       = 0
  Multiplicity = 1
  Basis Set: AUG-CC-PVTZ
    Blend: AUG-CC-PVTZ
  Basis Set: (AUG-CC-PVTZ AUX)
    Blend: AUG-CC-PVTZ-JKFIT

    Orbital Energies [Eh]
    ---------------------

    Doubly Occupied:

       1A    -20.514288     2A    -15.637016     3A    -15.609918
       4A    -15.554707     5A    -11.379919     6A    -11.378437
       7A    -11.315380     8A    -11.233985     9A     -1.397068
      10A     -1.321293    11A     -1.231371    12A     -1.193605
      13A     -1.074334    14A     -0.914091    15A     -0.885962
      16A     -0.781561    17A     -0.750858    18A     -0.701942
      19A     -0.693885    20A     -0.644600    21A     -0.637317
      22A     -0.622685    23A     -0.581937    24A     -0.535821
      25A     -0.467276    26A     -0.453777    27A     -0.439248
      28A     -0.420002    29A     -0.336646

  @DF-RHF Final Energy:  -392.73828803170318

   => Energetics <=

    Nuclear Repulsion Energy =            356.1130253694613543
    One-Electron Energy =               -1240.2847682022663776
    Two-Electron Energy =                 491.4334548011017887
    Total Energy =                       -392.7382880317031777
  Basis Set: (AUG-CC-PVTZ AUX)
    Blend: AUG-CC-PVTZ-RI
    Molecular point group: c1

    Geometry (in Angstrom), charge = 0, multiplicity = 1:

       Center              X                  Y                   Z               Mass
    ------------   -----------------  -----------------  -----------------  -----------------
         O           -2.160142410107    -1.168241224968     0.000143372272    15.994914619570
         N            0.099839589893    -0.909178224968    -0.000017627728    14.003074004430
         N            2.427795589893    -0.848223224968    -0.000522627728    14.003074004430
         N           -1.324018410107     1.002173775032     0.000227372272    14.003074004430
         C            1.156923789893    -0.128286624968    -0.000092127728    12.000000000000
         C            1.111923589893     1.197975775032    -0.000079627728    12.000000000000
         C           -1.224556410107    -0.375816224968     0.000163372272    12.000000000000
         C           -0.202411410107     1.701149775032     0.000060372272    12.000000000000
         H            0.123952589893    -1.925454224968    -0.000210627728     1.007825032230
         H            1.975797589893     1.851144775032    -0.000152627728     1.007825032230
         H           -0.334651410107     2.784348775032     0.000221372272     1.007825032230
         H            3.296843589893    -0.337344224968     0.000579372272     1.007825032230
         H            2.473496589893    -1.855586224968     0.001015372272     1.007825032230

  Basis Set: AUG-CC-PVTZ
    Blend: AUG-CC-PVTZ
  Basis Set: (AUG-CC-PVTZ AUX)
    Blend: AUG-CC-PVTZ-JKFIT
	 Reference Energy          =    -392.7382880317031777 [Eh]
	 Singles Energy            =      -0.0000000000000000 [Eh]
	 Same-Spin Energy          =      -0.4068255809499411 [Eh]
	 Opposite-Spin Energy      =      -1.2147103614862336 [Eh]
	 Correlation Energy        =      -1.6215359424361746 [Eh]
	 Total Energy              =    -394.3598239741393741 [Eh]

	 ================> DF-SCS-MP2 Energies <==================
	-----------------------------------------------------------
	 SCS Same-Spin Scale       =       0.3333333333333333 [-]
	 SCS Opposite-Spin Scale   =       1.2000000000000000 [-]
	 SCS Same-Spin Energy      =      -0.1356085269833137 [Eh]
	 SCS Opposite-Spin Energy  =      -1.4576524337834802 [Eh]
	 SCS Correlation Energy    =      -1.5932609607667938 [Eh]
	 SCS Total Energy          =    -394.3315489924699477 [Eh]
	-----------------------------------------------------------

  Dipole Moment: [D]
     X:     7.3121      Y:    -0.4263      Z:     0.0032     Total:     7.3246

*** Psi4 exiting successfully. Buy a developer a beer!
