                               Psi4 1.3.2 release

  ==> Input File <==

--------------------------------------------------------------------------
#psi4
#
memory 32 gb

molecule  {
0 1
  O       -2.2334690    -1.1675340     0.0001340
  N        0.0265130    -0.9084710    -0.0000270
  N        2.3544690    -0.8475160    -0.0005320
  N       -1.3973450     1.0028810     0.0002180
  C        1.1706060    -0.1768690    -0.0001310
  C        1.0385970     1.1986830    -0.0000890
  C       -1.3942490    -0.3786904     0.0001703
  C       -0.2757380     1.7018570     0.0000510
  H        0.0506260    -1.9247470    -0.0002200
  H        1.9024710     1.8518520    -0.0001620
  H       -0.4079780     2.7850560     0.0002120
  H        3.2235170    -0.3366370     0.0005700
  H        2.4001700    -1.8548790     0.0010060
units angstrom
no_reorient  #important for SAPT in psi4, default
symmetry c1  #important for SAPT in psi4, default
}

set PROPERTIES_ORIGIN ["COM"]
properties('MP2/aug-cc-pvtz', properties = ['dipole'])
--------------------------------------------------------------------------

    Molecular point group: c1
  Charge       = 0
  Multiplicity = 1
  Basis Set: AUG-CC-PVTZ
    Blend: AUG-CC-PVTZ
  Basis Set: (AUG-CC-PVTZ AUX)
    Blend: AUG-CC-PVTZ-JKFIT

    Orbital Energies [Eh]
    ---------------------

    Doubly Occupied:

       1A    -20.530668     2A    -15.621659     3A    -15.613135
       4A    -15.538819     5A    -11.378909     6A    -11.375540
       7A    -11.307005     8A    -11.224531     9A     -1.433987
      10A     -1.320571    11A     -1.237173    12A     -1.183191
      13A     -1.050557    14A     -0.903989    15A     -0.864495
      16A     -0.773487    17A     -0.747243    18A     -0.708880
      19A     -0.689446    20A     -0.649664    21A     -0.631015
      22A     -0.623620    23A     -0.574749    24A     -0.564067
      25A     -0.469491    26A     -0.464307    27A     -0.436396
      28A     -0.401384    29A     -0.322451

  @DF-RHF Final Energy:  -392.74360403706504

   => Energetics <=

    Nuclear Repulsion Energy =            354.7200538650359931
    One-Electron Energy =               -1237.6464539182329645
    Two-Electron Energy =                 490.1827960161319311
    Total Energy =                       -392.7436040370650403
  Basis Set: (AUG-CC-PVTZ AUX)
    Blend: AUG-CC-PVTZ-RI
    Molecular point group: c1

    Geometry (in Angstrom), charge = 0, multiplicity = 1:

       Center              X                  Y                   Z               Mass
    ------------   -----------------  -----------------  -----------------  -----------------
         O           -2.159131215027    -1.162527668020     0.000144798743    15.994914619570
         N            0.100850784973    -0.903464668020    -0.000016201257    14.003074004430
         N            2.428806784973    -0.842509668020    -0.000521201257    14.003074004430
         N           -1.323007215027     1.007887331980     0.000228798743    14.003074004430
         C            1.244943784973    -0.171862668020    -0.000120201257    12.000000000000
         C            1.112934784973     1.203689331980    -0.000078201257    12.000000000000
         C           -1.319911215027    -0.373684068020     0.000181098743    12.000000000000
         C           -0.201400215027     1.706863331980     0.000061798743    12.000000000000
         H            0.124963784973    -1.919740668020    -0.000209201257     1.007825032230
         H            1.976808784973     1.856858331980    -0.000151201257     1.007825032230
         H           -0.333640215027     2.790062331980     0.000222798743     1.007825032230
         H            3.297854784973    -0.331630668020     0.000580798743     1.007825032230
         H            2.474507784973    -1.849872668020     0.001016798743     1.007825032230

  Basis Set: AUG-CC-PVTZ
    Blend: AUG-CC-PVTZ
  Basis Set: (AUG-CC-PVTZ AUX)
    Blend: AUG-CC-PVTZ-JKFIT
	 Reference Energy          =    -392.7436040370650403 [Eh]
	 Singles Energy            =      -0.0000000000000000 [Eh]
	 Same-Spin Energy          =      -0.4058877779770587 [Eh]
	 Opposite-Spin Energy      =      -1.2121020449676281 [Eh]
	 Correlation Energy        =      -1.6179898229446867 [Eh]
	 Total Energy              =    -394.3615938600097479 [Eh]

	 ================> DF-SCS-MP2 Energies <==================
	-----------------------------------------------------------
	 SCS Same-Spin Scale       =       0.3333333333333333 [-]
	 SCS Opposite-Spin Scale   =       1.2000000000000000 [-]
	 SCS Same-Spin Energy      =      -0.1352959259923529 [Eh]
	 SCS Opposite-Spin Energy  =      -1.4545224539611536 [Eh]
	 SCS Correlation Energy    =      -1.5898183799535066 [Eh]
	 SCS Total Energy          =    -394.3334224170185394 [Eh]
	-----------------------------------------------------------

  Dipole Moment: [D]
     X:     7.2374      Y:    -1.1875      Z:     0.0031     Total:     7.3342

*** Psi4 exiting successfully. Buy a developer a beer!
