                               Psi4 1.3.2 release

  ==> Input File <==

--------------------------------------------------------------------------
#psi4
#
memory 32 gb

molecule  {
0 1
  O       -2.2605543    -1.1343998     0.0001360
  N        0.0265130    -0.9084710    -0.0000270
  N        2.3544690    -0.8475160    -0.0005320
  N       -1.3973450     1.0028810     0.0002180
  C        1.1706060    -0.1768690    -0.0001310
  C        1.0385970     1.1986830    -0.0000890
  C       -1.2978830    -0.3751090     0.0001540
  C       -0.2757380     1.7018570     0.0000510
  H        0.0506260    -1.9247470    -0.0002200
  H        1.9024710     1.8518520    -0.0001620
  H       -0.4079780     2.7850560     0.0002120
  H        3.2235170    -0.3366370     0.0005700
  H        2.4001700    -1.8548790     0.0010060
units angstrom
no_reorient  #important for SAPT in psi4, default
symmetry c1  #important for SAPT in psi4, default
}

set PROPERTIES_ORIGIN ["COM"]
properties('MP2/aug-cc-pvtz', properties = ['dipole'])
--------------------------------------------------------------------------

    Molecular point group: c1
  Charge       = 0
  Multiplicity = 1
  Basis Set: AUG-CC-PVTZ
    Blend: AUG-CC-PVTZ
  Basis Set: (AUG-CC-PVTZ AUX)
    Blend: AUG-CC-PVTZ-JKFIT

    Orbital Energies [Eh]
    ---------------------

    Doubly Occupied:

       1A    -20.509248     2A    -15.633981     3A    -15.629238
       4A    -15.544487     5A    -11.384676     6A    -11.375308
       7A    -11.307706     8A    -11.232484     9A     -1.388005
      10A     -1.324233    11A     -1.242623    12A     -1.199077
      13A     -1.057483    14A     -0.909264    15A     -0.884123
      16A     -0.784887    17A     -0.752976    18A     -0.722469
      19A     -0.691139    20A     -0.638916    21A     -0.636214
      22A     -0.620413    23A     -0.568904    24A     -0.547803
      25A     -0.459327    26A     -0.445641    27A     -0.443119
      28A     -0.415792    29A     -0.325071

  @DF-RHF Final Energy:  -392.75075519179342

   => Energetics <=

    Nuclear Repulsion Energy =            355.0956401700570950
    One-Electron Energy =               -1238.3435784671851252
    Two-Electron Energy =                 490.4971831053346136
    Total Energy =                       -392.7507551917934165
  Basis Set: (AUG-CC-PVTZ AUX)
    Blend: AUG-CC-PVTZ-RI
    Molecular point group: c1

    Geometry (in Angstrom), charge = 0, multiplicity = 1:

       Center              X                  Y                   Z               Mass
    ------------   -----------------  -----------------  -----------------  -----------------
         O           -2.192728976273    -1.134553218289     0.000148272135    15.994914619570
         N            0.094338323727    -0.908624418289    -0.000014727865    14.003074004430
         N            2.422294323727    -0.847669418289    -0.000519727865    14.003074004430
         N           -1.329519676273     1.002727581711     0.000230272135    14.003074004430
         C            1.238431323727    -0.177022418289    -0.000118727865    12.000000000000
         C            1.106422323727     1.198529581711    -0.000076727865    12.000000000000
         C           -1.230057676273    -0.375262418289     0.000166272135    12.000000000000
         C           -0.207912676273     1.701703581711     0.000063272135    12.000000000000
         H            0.118451323727    -1.924900418289    -0.000207727865     1.007825032230
         H            1.970296323727     1.851698581711    -0.000149727865     1.007825032230
         H           -0.340152676273     2.784902581711     0.000224272135     1.007825032230
         H            3.291342323727    -0.336790418289     0.000582272135     1.007825032230
         H            2.467995323727    -1.855032418289     0.001018272135     1.007825032230

  Basis Set: AUG-CC-PVTZ
    Blend: AUG-CC-PVTZ
  Basis Set: (AUG-CC-PVTZ AUX)
    Blend: AUG-CC-PVTZ-JKFIT
	 Reference Energy          =    -392.7507551917934165 [Eh]
	 Singles Energy            =      -0.0000000000000000 [Eh]
	 Same-Spin Energy          =      -0.4068901988290380 [Eh]
	 Opposite-Spin Energy      =      -1.2142774439878627 [Eh]
	 Correlation Energy        =      -1.6211676428169008 [Eh]
	 Total Energy              =    -394.3719228346103023 [Eh]

	 ================> DF-SCS-MP2 Energies <==================
	-----------------------------------------------------------
	 SCS Same-Spin Scale       =       0.3333333333333333 [-]
	 SCS Opposite-Spin Scale   =       1.2000000000000000 [-]
	 SCS Same-Spin Energy      =      -0.1356300662763460 [Eh]
	 SCS Opposite-Spin Energy  =      -1.4571329327854352 [Eh]
	 SCS Correlation Energy    =      -1.5927629990617813 [Eh]
	 SCS Total Energy          =    -394.3435181908552067 [Eh]
	-----------------------------------------------------------

  Dipole Moment: [D]
     X:     8.1702      Y:    -0.9388      Z:     0.0030     Total:     8.2239

*** Psi4 exiting successfully. Buy a developer a beer!
