                               Psi4 1.3.2 release

  ==> Input File <==

--------------------------------------------------------------------------
#psi4
#
memory 32 gb

molecule  {
0 1
  O       -2.2194968    -1.1837415     0.0001308
  N        0.0265130    -0.9084710    -0.0000270
  N        2.3544690    -0.8475160    -0.0005320
  N       -1.3973450     1.0028810     0.0002180
  C        1.1706060    -0.1768690    -0.0001310
  C        1.0385970     1.1986830    -0.0000890
  C       -1.2978830    -0.3751090     0.0001540
  C       -0.2757380     1.7018570     0.0000510
  H        0.0506260    -1.9247470    -0.0002200
  H        1.9024710     1.8518520    -0.0001620
  H       -0.4079780     2.7850560     0.0002120
  H        3.2235170    -0.3366370     0.0005700
  H        2.4001700    -1.8548790     0.0010060
units angstrom
no_reorient  #important for SAPT in psi4, default
symmetry c1  #important for SAPT in psi4, default
}

set PROPERTIES_ORIGIN ["COM"]
properties('MP2/aug-cc-pvtz', properties = ['dipole'])
--------------------------------------------------------------------------

    Molecular point group: c1
  Charge       = 0
  Multiplicity = 1
  Basis Set: AUG-CC-PVTZ
    Blend: AUG-CC-PVTZ
  Basis Set: (AUG-CC-PVTZ AUX)
    Blend: AUG-CC-PVTZ-JKFIT

    Orbital Energies [Eh]
    ---------------------

    Doubly Occupied:

       1A    -20.509263     2A    -15.631072     3A    -15.628859
       4A    -15.546248     5A    -11.383917     6A    -11.375846
       7A    -11.309429     8A    -11.232587     9A     -1.389049
      10A     -1.322894    11A     -1.242911    12A     -1.198875
      13A     -1.057588    14A     -0.909665    15A     -0.883161
      16A     -0.784132    17A     -0.752751    18A     -0.721756
      19A     -0.691350    20A     -0.638307    21A     -0.636936
      22A     -0.620052    23A     -0.569523    24A     -0.547846
      25A     -0.460628    26A     -0.448438    27A     -0.441407
      28A     -0.415087    29A     -0.325875

  @DF-RHF Final Energy:  -392.75129948540501

   => Energetics <=

    Nuclear Repulsion Energy =            355.2491790350937322
    One-Electron Energy =               -1238.6500529767313310
    Two-Electron Energy =                 490.6495744562326422
    Total Energy =                       -392.7512994854050135
  Basis Set: (AUG-CC-PVTZ AUX)
    Blend: AUG-CC-PVTZ-RI
    Molecular point group: c1

    Geometry (in Angstrom), charge = 0, multiplicity = 1:

       Center              X                  Y                   Z               Mass
    ------------   -----------------  -----------------  -----------------  -----------------
         O           -2.157585488491    -1.176787631760     0.000143821154    15.994914619570
         N            0.088424311509    -0.901517131760    -0.000013978846    14.003074004430
         N            2.416380311509    -0.840562131760    -0.000518978846    14.003074004430
         N           -1.335433688491     1.009834868240     0.000231021154    14.003074004430
         C            1.232517311509    -0.169915131760    -0.000117978846    12.000000000000
         C            1.100508311509     1.205636868240    -0.000075978846    12.000000000000
         C           -1.235971688491    -0.368155131760     0.000167021154    12.000000000000
         C           -0.213826688491     1.708810868240     0.000064021154    12.000000000000
         H            0.112537311509    -1.917793131760    -0.000206978846     1.007825032230
         H            1.964382311509     1.858805868240    -0.000148978846     1.007825032230
         H           -0.346066688491     2.792009868240     0.000225021154     1.007825032230
         H            3.285428311509    -0.329683131760     0.000583021154     1.007825032230
         H            2.462081311509    -1.847925131760     0.001019021154     1.007825032230

  Basis Set: AUG-CC-PVTZ
    Blend: AUG-CC-PVTZ
  Basis Set: (AUG-CC-PVTZ AUX)
    Blend: AUG-CC-PVTZ-JKFIT
	 Reference Energy          =    -392.7512994854050135 [Eh]
	 Singles Energy            =      -0.0000000000000000 [Eh]
	 Same-Spin Energy          =      -0.4068375905817299 [Eh]
	 Opposite-Spin Energy      =      -1.2140166267364414 [Eh]
	 Correlation Energy        =      -1.6208542173181713 [Eh]
	 Total Energy              =    -394.3721537027232102 [Eh]

	 ================> DF-SCS-MP2 Energies <==================
	-----------------------------------------------------------
	 SCS Same-Spin Scale       =       0.3333333333333333 [-]
	 SCS Opposite-Spin Scale   =       1.2000000000000000 [-]
	 SCS Same-Spin Energy      =      -0.1356125301939100 [Eh]
	 SCS Opposite-Spin Energy  =      -1.4568199520837297 [Eh]
	 SCS Correlation Energy    =      -1.5924324822776397 [Eh]
	 SCS Total Energy          =    -394.3437319676826291 [Eh]
	-----------------------------------------------------------

  Dipole Moment: [D]
     X:     8.1218      Y:    -0.8347      Z:     0.0030     Total:     8.1645

*** Psi4 exiting successfully. Buy a developer a beer!
