                               Psi4 1.3.2 release

  ==> Input File <==

--------------------------------------------------------------------------
#psi4
#
memory 32 gb

molecule  {
0 1
  O       -2.2334690    -1.1675340     0.0001340
  N        0.0265130    -0.9084710    -0.0000270
  N        2.3544690    -0.8475160    -0.0005320
  N       -1.3973450     1.0028810     0.0002180
  C        1.0260985    -0.1831323    -0.0001166
  C        1.0385970     1.1986830    -0.0000890
  C       -1.2978830    -0.3751090     0.0001540
  C       -0.2757380     1.7018570     0.0000510
  H        0.0506260    -1.9247470    -0.0002200
  H        1.9024710     1.8518520    -0.0001620
  H       -0.4079780     2.7850560     0.0002120
  H        3.2235170    -0.3366370     0.0005700
  H        2.4001700    -1.8548790     0.0010060
units angstrom
no_reorient  #important for SAPT in psi4, default
symmetry c1  #important for SAPT in psi4, default
}

set PROPERTIES_ORIGIN ["COM"]
properties('MP2/aug-cc-pvtz', properties = ['dipole'])
--------------------------------------------------------------------------

    Molecular point group: c1
  Charge       = 0
  Multiplicity = 1
  Basis Set: AUG-CC-PVTZ
    Blend: AUG-CC-PVTZ
  Basis Set: (AUG-CC-PVTZ AUX)
    Blend: AUG-CC-PVTZ-JKFIT

    Orbital Energies [Eh]
    ---------------------

    Doubly Occupied:

       1A    -20.518189     2A    -15.648994     3A    -15.609297
       4A    -15.549881     5A    -11.383966     6A    -11.382956
       7A    -11.309337     8A    -11.235024     9A     -1.413583
      10A     -1.340772    11A     -1.229658    12A     -1.196808
      13A     -1.060428    14A     -0.915254    15A     -0.902724
      16A     -0.793059    17A     -0.750255    18A     -0.702484
      19A     -0.691595    20A     -0.660749    21A     -0.638025
      22A     -0.615002    23A     -0.577648    24A     -0.536941
      25A     -0.467501    26A     -0.455049    27A     -0.444446
      28A     -0.418848    29A     -0.328016

  @DF-RHF Final Energy:  -392.72313973705144

   => Energetics <=

    Nuclear Repulsion Energy =            356.7569137503288061
    One-Electron Energy =               -1241.4071298571441275
    Two-Electron Energy =                 491.9270763697639381
    Total Energy =                       -392.7231397370514401
  Basis Set: (AUG-CC-PVTZ AUX)
    Blend: AUG-CC-PVTZ-RI
    Molecular point group: c1

    Geometry (in Angstrom), charge = 0, multiplicity = 1:

       Center              X                  Y                   Z               Mass
    ------------   -----------------  -----------------  -----------------  -----------------
         O           -2.153928756177    -1.162237845842     0.000145004069    15.994914619570
         N            0.106053243823    -0.903174845842    -0.000015995931    14.003074004430
         N            2.434009243823    -0.842219845842    -0.000520995931    14.003074004430
         N           -1.317804756177     1.008177154158     0.000229004069    14.003074004430
         C            1.105638743823    -0.177836145842    -0.000105595931    12.000000000000
         C            1.118137243823     1.203979154158    -0.000077995931    12.000000000000
         C           -1.218342756177    -0.369812845842     0.000165004069    12.000000000000
         C           -0.196197756177     1.707153154158     0.000062004069    12.000000000000
         H            0.130166243823    -1.919450845842    -0.000208995931     1.007825032230
         H            1.982011243823     1.857148154158    -0.000150995931     1.007825032230
         H           -0.328437756177     2.790352154158     0.000223004069     1.007825032230
         H            3.303057243823    -0.331340845842     0.000581004069     1.007825032230
         H            2.479710243823    -1.849582845842     0.001017004069     1.007825032230

  Basis Set: AUG-CC-PVTZ
    Blend: AUG-CC-PVTZ
  Basis Set: (AUG-CC-PVTZ AUX)
    Blend: AUG-CC-PVTZ-JKFIT
	 Reference Energy          =    -392.7231397370514401 [Eh]
	 Singles Energy            =      -0.0000000000000000 [Eh]
	 Same-Spin Energy          =      -0.4072569202670202 [Eh]
	 Opposite-Spin Energy      =      -1.2146726173677442 [Eh]
	 Correlation Energy        =      -1.6219295376347644 [Eh]
	 Total Energy              =    -394.3450692746861819 [Eh]

	 ================> DF-SCS-MP2 Energies <==================
	-----------------------------------------------------------
	 SCS Same-Spin Scale       =       0.3333333333333333 [-]
	 SCS Opposite-Spin Scale   =       1.2000000000000000 [-]
	 SCS Same-Spin Energy      =      -0.1357523067556734 [Eh]
	 SCS Opposite-Spin Energy  =      -1.4576071408412929 [Eh]
	 SCS Correlation Energy    =      -1.5933594475969663 [Eh]
	 SCS Total Energy          =    -394.3164991846484213 [Eh]
	-----------------------------------------------------------

  Dipole Moment: [D]
     X:     7.1950      Y:    -0.7450      Z:     0.0032     Total:     7.2335

*** Psi4 exiting successfully. Buy a developer a beer!
