                               Psi4 1.3.2 release

  ==> Input File <==

--------------------------------------------------------------------------
#psi4
#
memory 32 gb

molecule  {
0 1
  O       -2.2334690    -1.1675340     0.0001340
  N        0.0265130    -0.9084710    -0.0000270
  N        2.3544690    -0.8475160    -0.0005320
  N       -1.3973450     1.0028810     0.0002180
  C        1.1706060    -0.1768690    -0.0001310
  C        1.0385970     1.1986830    -0.0000890
  C       -1.3069897    -0.3983041     0.0001502
  C       -0.2757380     1.7018570     0.0000510
  H        0.0506260    -1.9247470    -0.0002200
  H        1.9024710     1.8518520    -0.0001620
  H       -0.4079780     2.7850560     0.0002120
  H        3.2235170    -0.3366370     0.0005700
  H        2.4001700    -1.8548790     0.0010060
units angstrom
no_reorient  #important for SAPT in psi4, default
symmetry c1  #important for SAPT in psi4, default
}

set PROPERTIES_ORIGIN ["COM"]
properties('MP2/aug-cc-pvtz', properties = ['dipole'])
--------------------------------------------------------------------------

    Molecular point group: c1
  Charge       = 0
  Multiplicity = 1
  Basis Set: AUG-CC-PVTZ
    Blend: AUG-CC-PVTZ
  Basis Set: (AUG-CC-PVTZ AUX)
    Blend: AUG-CC-PVTZ-JKFIT

    Orbital Energies [Eh]
    ---------------------

    Doubly Occupied:

       1A    -20.515554     2A    -15.630570     3A    -15.627479
       4A    -15.544260     5A    -11.382515     6A    -11.376162
       7A    -11.305600     8A    -11.230021     9A     -1.399488
      10A     -1.326990    11A     -1.241042    12A     -1.194600
      13A     -1.054801    14A     -0.905875    15A     -0.882492
      16A     -0.783240    17A     -0.749529    18A     -0.720308
      19A     -0.690050    20A     -0.638273    21A     -0.635019
      22A     -0.626180    23A     -0.570580    24A     -0.550803
      25A     -0.460399    26A     -0.453931    27A     -0.443878
      28A     -0.411141    29A     -0.323753

  @DF-RHF Final Energy:  -392.75131546561647

   => Energetics <=

    Nuclear Repulsion Energy =            355.1259952502941815
    One-Electron Energy =               -1238.4055552516845182
    Two-Electron Energy =                 490.5282445357738652
    Total Energy =                       -392.7513154656164716
  Basis Set: (AUG-CC-PVTZ AUX)
    Blend: AUG-CC-PVTZ-RI
    Molecular point group: c1

    Geometry (in Angstrom), charge = 0, multiplicity = 1:

       Center              X                  Y                   Z               Mass
    ------------   -----------------  -----------------  -----------------  -----------------
         O           -2.168560977653    -1.160408094115     0.000146970870    15.994914619570
         N            0.091421022347    -0.901345094115    -0.000014029130    14.003074004430
         N            2.419377022347    -0.840390094115    -0.000519029130    14.003074004430
         N           -1.332436977653     1.010006905885     0.000230970870    14.003074004430
         C            1.235514022347    -0.169743094115    -0.000118029130    12.000000000000
         C            1.103505022347     1.205808905885    -0.000076029130    12.000000000000
         C           -1.242081677653    -0.391178194115     0.000163170870    12.000000000000
         C           -0.210829977653     1.708982905885     0.000063970870    12.000000000000
         H            0.115534022347    -1.917621094115    -0.000207029130     1.007825032230
         H            1.967379022347     1.858977905885    -0.000149029130     1.007825032230
         H           -0.343069977653     2.792181905885     0.000224970870     1.007825032230
         H            3.288425022347    -0.329511094115     0.000582970870     1.007825032230
         H            2.465078022347    -1.847753094115     0.001018970870     1.007825032230

  Basis Set: AUG-CC-PVTZ
    Blend: AUG-CC-PVTZ
  Basis Set: (AUG-CC-PVTZ AUX)
    Blend: AUG-CC-PVTZ-JKFIT
	 Reference Energy          =    -392.7513154656164716 [Eh]
	 Singles Energy            =      -0.0000000000000000 [Eh]
	 Same-Spin Energy          =      -0.4064658996440872 [Eh]
	 Opposite-Spin Energy      =      -1.2136754089343067 [Eh]
	 Correlation Energy        =      -1.6201413085783940 [Eh]
	 Total Energy              =    -394.3714567741948827 [Eh]

	 ================> DF-SCS-MP2 Energies <==================
	-----------------------------------------------------------
	 SCS Same-Spin Scale       =       0.3333333333333333 [-]
	 SCS Opposite-Spin Scale   =       1.2000000000000000 [-]
	 SCS Same-Spin Energy      =      -0.1354886332146957 [Eh]
	 SCS Opposite-Spin Energy  =      -1.4564104907211679 [Eh]
	 SCS Correlation Energy    =      -1.5918991239358635 [Eh]
	 SCS Total Energy          =    -394.3432145895523604 [Eh]
	-----------------------------------------------------------

  Dipole Moment: [D]
     X:     7.9340      Y:    -1.0332      Z:     0.0030     Total:     8.0010

*** Psi4 exiting successfully. Buy a developer a beer!
