                               Psi4 1.4a3.dev225

  ==> Input File <==

--------------------------------------------------------------------------
#psi4
#
memory 32 gb

molecule  {
0 1
  O        2.2358750    -1.1647400    -0.0019990
  N       -0.0266920    -0.9090020    -0.0014130
  N       -2.3606070    -0.8668920    -0.0783920
  N        1.3942980     1.0030250     0.0093070
  C       -1.1857372    -0.1632441     0.0003963
  C       -1.0400980     1.1965590     0.0002140
  C        1.2955060    -0.3793770     0.0033320
  C        0.2772380     1.7038820     0.0017870
  H       -0.0608440    -1.9231390    -0.0684580
  H       -1.9045160     1.8491770     0.0118680
  H        0.4106550     2.7868440     0.0040290
  H       -3.1798030    -0.3063160     0.1264620
  H       -2.3838550    -1.7605480     0.4013470
units angstrom
no_reorient  #important for SAPT in psi4, default
symmetry c1  #important for SAPT in psi4, default
}

set PROPERTIES_ORIGIN ["COM"]
properties('MP2/aug-cc-pvtz', properties = ['dipole'])
--------------------------------------------------------------------------

    Molecular point group: c1
  Charge       = 0
  Multiplicity = 1
  Basis Set: AUG-CC-PVTZ
    Blend: AUG-CC-PVTZ
  Basis Set: (AUG-CC-PVTZ AUX)
    Blend: AUG-CC-PVTZ-JKFIT

    Orbital Energies [Eh]
    ---------------------

    Doubly Occupied:

       1A    -20.511761     2A    -15.631220     3A    -15.627587
       4A    -15.552795     5A    -11.380762     6A    -11.377897
       7A    -11.313905     8A    -11.237631     9A     -1.389274
      10A     -1.321389    11A     -1.245021    12A     -1.198904
      13A     -1.062345    14A     -0.909914    15A     -0.880428
      16A     -0.775109    17A     -0.749018    18A     -0.717831
      19A     -0.686751    20A     -0.645935    21A     -0.629212
      22A     -0.623471    23A     -0.573003    24A     -0.549096
      25A     -0.463999    26A     -0.451202    27A     -0.446433
      28A     -0.418623    29A     -0.333220

  @DF-RHF Final Energy:  -392.75015470180671

   => Energetics <=

    Nuclear Repulsion Energy =            354.8176139650148002
    One-Electron Energy =               -1237.7280672656349907
    Two-Electron Energy =                 490.1602985988135401
    Total Energy =                       -392.7501547018067072
  Basis Set: (AUG-CC-PVTZ AUX)
    Blend: AUG-CC-PVTZ-RI
    Molecular point group: c1

    Geometry (in Angstrom), charge = 0, multiplicity = 1:

       Center              X                  Y                   Z               Mass
    ------------   -----------------  -----------------  -----------------  -----------------
         O            2.174219710836    -1.160169288217     0.002246589574    15.994914619570
         N           -0.088347289164    -0.904431288217     0.002832589574    14.003074004430
         N           -2.422262289164    -0.862321288217    -0.074146410426    14.003074004430
         N            1.332642710836     1.007595711783     0.013552589574    14.003074004430
         C           -1.247392489164    -0.158673388217     0.004641889574    12.000000000000
         C           -1.101753289164     1.201129711783     0.004459589574    12.000000000000
         C            1.233850710836    -0.374806288217     0.007577589574    12.000000000000
         C            0.215582710836     1.708452711783     0.006032589574    12.000000000000
         H           -0.122499289164    -1.918568288217    -0.064212410426     1.007825032230
         H           -1.966171289164     1.853747711783     0.016113589574     1.007825032230
         H            0.348999710836     2.791414711783     0.008274589574     1.007825032230
         H           -3.241458289164    -0.301745288217     0.130707589574     1.007825032230
         H           -2.445510289164    -1.755977288217     0.405592589574     1.007825032230

  Basis Set: AUG-CC-PVTZ
    Blend: AUG-CC-PVTZ
  Basis Set: (AUG-CC-PVTZ AUX)
    Blend: AUG-CC-PVTZ-JKFIT
	 Reference Energy          =    -392.7501547018067072 [Eh]
	 Singles Energy            =      -0.0000000000000000 [Eh]
	 Same-Spin Energy          =      -0.4067981058044804 [Eh]
	 Opposite-Spin Energy      =      -1.2151787452570419 [Eh]
	 Correlation Energy        =      -1.6219768510615225 [Eh]
	 Total Energy              =    -394.3721315528682112 [Eh]

	 ================> DF-SCS-MP2 Energies <==================
	-----------------------------------------------------------
	 SCS Same-Spin Scale       =       0.3333333333333333 [-]
	 SCS Opposite-Spin Scale   =       1.2000000000000000 [-]
	 SCS Same-Spin Energy      =      -0.1355993686014935 [Eh]
	 SCS Opposite-Spin Energy  =      -1.4582144943084503 [Eh]
	 SCS Correlation Energy    =      -1.5938138629099439 [Eh]
	 SCS Total Energy          =    -394.3439685647166471 [Eh]
	-----------------------------------------------------------

  Dipole Moment: [D]
     X:    -7.6543      Y:    -0.3563      Z:     0.8608     Total:     7.7108

*** Psi4 exiting successfully. Buy a developer a beer!
