                               Psi4 1.3.2 release

  ==> Input File <==

--------------------------------------------------------------------------
#psi4
#
memory 32 gb

molecule  {
0 1
  O       -2.2334690    -1.1675340     0.0001340
  N        0.0265130    -0.9084710    -0.0000270
  N        2.3544690    -0.8475160    -0.0005320
  N       -1.3973450     1.0028810     0.0002180
  C        1.1706060    -0.1768690    -0.0001310
  C        1.0385970     1.1986830    -0.0000890
  C       -1.2498524    -0.3707984     0.0001460
  C       -0.2757380     1.7018570     0.0000510
  H        0.0506260    -1.9247470    -0.0002200
  H        1.9024710     1.8518520    -0.0001620
  H       -0.4079780     2.7850560     0.0002120
  H        3.2235170    -0.3366370     0.0005700
  H        2.4001700    -1.8548790     0.0010060
units angstrom
no_reorient  #important for SAPT in psi4, default
symmetry c1  #important for SAPT in psi4, default
}

set PROPERTIES_ORIGIN ["COM"]
properties('MP2/aug-cc-pvtz', properties = ['dipole'])
--------------------------------------------------------------------------

    Molecular point group: c1
  Charge       = 0
  Multiplicity = 1
  Basis Set: AUG-CC-PVTZ
    Blend: AUG-CC-PVTZ
  Basis Set: (AUG-CC-PVTZ AUX)
    Blend: AUG-CC-PVTZ-JKFIT

    Orbital Energies [Eh]
    ---------------------

    Doubly Occupied:

       1A    -20.498771     2A    -15.639970     3A    -15.632319
       4A    -15.549999     5A    -11.387950     6A    -11.373886
       7A    -11.310125     8A    -11.236771     9A     -1.382635
      10A     -1.314101    11A     -1.242372    12A     -1.206849
      13A     -1.060874    14A     -0.913391    15A     -0.893023
      16A     -0.789982    17A     -0.756296    18A     -0.729709
      19A     -0.692692    20A     -0.644748    21A     -0.640031
      22A     -0.612079    23A     -0.560441    24A     -0.543355
      25A     -0.462690    26A     -0.439357    27A     -0.436493
      28A     -0.418152    29A     -0.326739

  @DF-RHF Final Energy:  -392.74598145102004

   => Energetics <=

    Nuclear Repulsion Energy =            355.4963962447226322
    One-Electron Energy =               -1239.0931528429857735
    Two-Electron Energy =                 490.8507751472430982
    Total Energy =                       -392.7459814510200431
  Basis Set: (AUG-CC-PVTZ AUX)
    Blend: AUG-CC-PVTZ-RI
    Molecular point group: c1

    Geometry (in Angstrom), charge = 0, multiplicity = 1:

       Center              X                  Y                   Z               Mass
    ------------   -----------------  -----------------  -----------------  -----------------
         O           -2.174735576534    -1.163380524811     0.000147424747    15.994914619570
         N            0.085246423466    -0.904317524811    -0.000013575253    14.003074004430
         N            2.413202423466    -0.843362524811    -0.000518575253    14.003074004430
         N           -1.338611576534     1.007034475189     0.000231424747    14.003074004430
         C            1.229339423466    -0.172715524811    -0.000117575253    12.000000000000
         C            1.097330423466     1.202836475189    -0.000075575253    12.000000000000
         C           -1.191118976534    -0.366644924811     0.000159424747    12.000000000000
         C           -0.217004576534     1.706010475189     0.000064424747    12.000000000000
         H            0.109359423466    -1.920593524811    -0.000206575253     1.007825032230
         H            1.961204423466     1.856005475189    -0.000148575253     1.007825032230
         H           -0.349244576534     2.789209475189     0.000225424747     1.007825032230
         H            3.282250423466    -0.332483524811     0.000583424747     1.007825032230
         H            2.458903423466    -1.850725524811     0.001019424747     1.007825032230

  Basis Set: AUG-CC-PVTZ
    Blend: AUG-CC-PVTZ
  Basis Set: (AUG-CC-PVTZ AUX)
    Blend: AUG-CC-PVTZ-JKFIT
	 Reference Energy          =    -392.7459814510200431 [Eh]
	 Singles Energy            =      -0.0000000000000000 [Eh]
	 Same-Spin Energy          =      -0.4075515997035036 [Eh]
	 Opposite-Spin Energy      =      -1.2154572350457817 [Eh]
	 Correlation Energy        =      -1.6230088347492853 [Eh]
	 Total Energy              =    -394.3689902857693141 [Eh]

	 ================> DF-SCS-MP2 Energies <==================
	-----------------------------------------------------------
	 SCS Same-Spin Scale       =       0.3333333333333333 [-]
	 SCS Opposite-Spin Scale   =       1.2000000000000000 [-]
	 SCS Same-Spin Energy      =      -0.1358505332345012 [Eh]
	 SCS Opposite-Spin Energy  =      -1.4585486820549380 [Eh]
	 SCS Correlation Energy    =      -1.5943992152894393 [Eh]
	 SCS Total Energy          =    -394.3403806663094997 [Eh]
	-----------------------------------------------------------

  Dipole Moment: [D]
     X:     8.5524      Y:    -0.6957      Z:     0.0030     Total:     8.5806

*** Psi4 exiting successfully. Buy a developer a beer!
