                               Psi4 1.4a3.dev225

  ==> Input File <==

--------------------------------------------------------------------------
#psi4
#
memory 32 gb

molecule  {
0 1
  O        2.2358750    -1.1647400    -0.0019990
  N       -0.0266920    -0.9090020    -0.0014130
  N       -2.3606070    -0.8668920    -0.0783920
  N        1.3942980     1.0030250     0.0093070
  C       -1.2120732    -0.1991557    -0.0024822
  C       -1.0400980     1.1965590     0.0002140
  C        1.2955060    -0.3793770     0.0033320
  C        0.2772380     1.7038820     0.0017870
  H       -0.0608440    -1.9231390    -0.0684580
  H       -1.9045160     1.8491770     0.0118680
  H        0.4106550     2.7868440     0.0040290
  H       -3.1798030    -0.3063160     0.1264620
  H       -2.3838550    -1.7605480     0.4013470
units angstrom
no_reorient  #important for SAPT in psi4, default
symmetry c1  #important for SAPT in psi4, default
}

set PROPERTIES_ORIGIN ["COM"]
properties('MP2/aug-cc-pvtz', properties = ['dipole'])
--------------------------------------------------------------------------

     Molecular point group: c1     Full point group: C1
   Charge       = 0   Multiplicity = 1   Electrons    = 58   Nalpha       = 29   Nbeta        = 29
   Basis Set: AUG-CC-PVTZ     Blend: AUG-CC-PVTZ     Number of shells: 157     Number of basis functions: 483     Number of Cartesian functions: 565     Spherical Harmonics?: true     Max angular momentum: 3
  Basis Set: (AUG-CC-PVTZ AUX)
    Blend: AUG-CC-PVTZ-JKFIT

    Orbital Energies [Eh]
    ---------------------

    Doubly Occupied:

       1A    -20.510275     2A    -15.635308     3A    -15.631872
       4A    -15.547517     5A    -11.385432     6A    -11.376886
       7A    -11.309930     8A    -11.237326     9A     -1.388332
      10A     -1.331667    11A     -1.249740    12A     -1.199694
      13A     -1.051708    14A     -0.907182    15A     -0.883523
      16A     -0.781961    17A     -0.750081    18A     -0.726679
      19A     -0.684748    20A     -0.646484    21A     -0.630222
      22A     -0.618656    23A     -0.567352    24A     -0.554259
      25A     -0.460731    26A     -0.449092    27A     -0.446624
      28A     -0.416307    29A     -0.326098

  @DF-RHF Final Energy:  -392.74669579447686

   => Energetics <=

    Nuclear Repulsion Energy =            354.5759232447780960
    One-Electron Energy =               -1237.2338602808597443
    Two-Electron Energy =                 489.9112412416047846
    Total Energy =                       -392.7466957944768637
  Basis Set: (AUG-CC-PVTZ AUX)
    Blend: AUG-CC-PVTZ-RI
    Molecular point group: c1

    Geometry (in Angstrom), charge = 0, multiplicity = 1:

       Center              X                  Y                   Z               Mass
    ------------   -----------------  -----------------  -----------------  -----------------
         O            2.177065736744    -1.156288465617     0.002557657526    15.994914619570
         N           -0.085501263256    -0.900550465617     0.003143657526    14.003074004430
         N           -2.419416263256    -0.858440465617    -0.073835342474    14.003074004430
         N            1.335488736744     1.011476534383     0.013863657526    14.003074004430
         C           -1.270882463256    -0.190704165617     0.002074457526    12.000000000000
         C           -1.098907263256     1.205010534383     0.004770657526    12.000000000000
         C            1.236696736744    -0.370925465617     0.007888657526    12.000000000000
         C            0.218428736744     1.712333534383     0.006343657526    12.000000000000
         H           -0.119653263256    -1.914687465617    -0.063901342474     1.007825032230
         H           -1.963325263256     1.857628534383     0.016424657526     1.007825032230
         H            0.351845736744     2.795295534383     0.008585657526     1.007825032230
         H           -3.238612263256    -0.297864465617     0.131018657526     1.007825032230
         H           -2.442664263256    -1.752096465617     0.405903657526     1.007825032230

  Basis Set: AUG-CC-PVTZ
    Blend: AUG-CC-PVTZ
  Basis Set: (AUG-CC-PVTZ AUX)
    Blend: AUG-CC-PVTZ-JKFIT
	 Reference Energy          =    -392.7466957944775459 [Eh]
	 Singles Energy            =      -0.0000000000000000 [Eh]
	 Same-Spin Energy          =      -0.4071565314879000 [Eh]
	 Opposite-Spin Energy      =      -1.2151806069452884 [Eh]
	 Correlation Energy        =      -1.6223371384331884 [Eh]
	 Total Energy              =    -394.3690329329107271 [Eh]

	 ================> DF-SCS-MP2 Energies <==================
	-----------------------------------------------------------
	 SCS Same-Spin Scale       =       0.3333333333333333 [-]
	 SCS Opposite-Spin Scale   =       1.2000000000000000 [-]
	 SCS Same-Spin Energy      =      -0.1357188438293000 [Eh]
	 SCS Opposite-Spin Energy  =      -1.4582167283343461 [Eh]
	 SCS Correlation Energy    =      -1.5939355721636461 [Eh]
	 SCS Total Energy          =    -394.3406313666412188 [Eh]
	-----------------------------------------------------------

  Dipole Moment: [D]
     X:    -7.9903      Y:    -0.6174      Z:     0.8475     Total:     8.0588

*** Psi4 exiting successfully. Buy a developer a beer!
