                               Psi4 1.3.2 release

  ==> Input File <==

--------------------------------------------------------------------------
#psi4
#
memory 32 gb

molecule  {
0 1
  O       -2.2334690    -1.1675340     0.0001340
  N        0.0265130    -0.9084710    -0.0000270
  N        2.3544690    -0.8475160    -0.0005320
  N       -1.3973450     1.0028810     0.0002180
  C        1.1167851    -0.0988433    -0.0001053
  C        1.0385970     1.1986830    -0.0000890
  C       -1.2978830    -0.3751090     0.0001540
  C       -0.2757380     1.7018570     0.0000510
  H        0.0506260    -1.9247470    -0.0002200
  H        1.9024710     1.8518520    -0.0001620
  H       -0.4079780     2.7850560     0.0002120
  H        3.2235170    -0.3366370     0.0005700
  H        2.4001700    -1.8548790     0.0010060
units angstrom
no_reorient  #important for SAPT in psi4, default
symmetry c1  #important for SAPT in psi4, default
}

set PROPERTIES_ORIGIN ["COM"]
properties('MP2/aug-cc-pvtz', properties = ['dipole'])
--------------------------------------------------------------------------

    Molecular point group: c1
  Charge       = 0
  Multiplicity = 1
  Basis Set: AUG-CC-PVTZ
    Blend: AUG-CC-PVTZ
  Basis Set: (AUG-CC-PVTZ AUX)
    Blend: AUG-CC-PVTZ-JKFIT

    Orbital Energies [Eh]
    ---------------------

    Doubly Occupied:

       1A    -20.512479     2A    -15.630475     3A    -15.610520
       4A    -15.557190     5A    -11.377824     6A    -11.375573
       7A    -11.318243     8A    -11.233343     9A     -1.391147
      10A     -1.312209    11A     -1.232728    12A     -1.189949
      13A     -1.081637    14A     -0.915914    15A     -0.876209
      16A     -0.776583    17A     -0.749956    18A     -0.707979
      19A     -0.689142    20A     -0.637819    21A     -0.635779
      22A     -0.627209    23A     -0.581513    24A     -0.536562
      25A     -0.467087    26A     -0.453512    27A     -0.435664
      28A     -0.420008    29A     -0.341228

  @DF-RHF Final Energy:  -392.73788529373951

   => Energetics <=

    Nuclear Repulsion Energy =            355.7889037617041481
    One-Electron Energy =               -1239.7026129287753520
    Two-Electron Energy =                 491.1758238733316375
    Total Energy =                       -392.7378852937395095
  Basis Set: (AUG-CC-PVTZ AUX)
    Blend: AUG-CC-PVTZ-RI
    Molecular point group: c1

    Geometry (in Angstrom), charge = 0, multiplicity = 1:

       Center              X                  Y                   Z               Mass
    ------------   -----------------  -----------------  -----------------  -----------------
         O           -2.163728893371    -1.171346620059     0.000143782923    15.994914619570
         N            0.096253106629    -0.912283620059    -0.000017217077    14.003074004430
         N            2.424209106629    -0.851328620059    -0.000522217077    14.003074004430
         N           -1.327604893371     0.999068379941     0.000227782923    14.003074004430
         C            1.186525206629    -0.102655920059    -0.000095517077    12.000000000000
         C            1.108337106629     1.194870379941    -0.000079217077    12.000000000000
         C           -1.228142893371    -0.378921620059     0.000163782923    12.000000000000
         C           -0.205997893371     1.698044379941     0.000060782923    12.000000000000
         H            0.120366106629    -1.928559620059    -0.000210217077     1.007825032230
         H            1.972211106629     1.848039379941    -0.000152217077     1.007825032230
         H           -0.338237893371     2.781243379941     0.000221782923     1.007825032230
         H            3.293257106629    -0.340449620059     0.000579782923     1.007825032230
         H            2.469910106629    -1.858691620059     0.001015782923     1.007825032230

  Basis Set: AUG-CC-PVTZ
    Blend: AUG-CC-PVTZ
  Basis Set: (AUG-CC-PVTZ AUX)
    Blend: AUG-CC-PVTZ-JKFIT
	 Reference Energy          =    -392.7378852937395095 [Eh]
	 Singles Energy            =      -0.0000000000000000 [Eh]
	 Same-Spin Energy          =      -0.4066044639641532 [Eh]
	 Opposite-Spin Energy      =      -1.2149650324767292 [Eh]
	 Correlation Energy        =      -1.6215694964408822 [Eh]
	 Total Energy              =    -394.3594547901803935 [Eh]

	 ================> DF-SCS-MP2 Energies <==================
	-----------------------------------------------------------
	 SCS Same-Spin Scale       =       0.3333333333333333 [-]
	 SCS Opposite-Spin Scale   =       1.2000000000000000 [-]
	 SCS Same-Spin Energy      =      -0.1355348213213844 [Eh]
	 SCS Opposite-Spin Energy  =      -1.4579580389720750 [Eh]
	 SCS Correlation Energy    =      -1.5934928602934595 [Eh]
	 SCS Total Energy          =    -394.3313781540329614 [Eh]
	-----------------------------------------------------------

  Dipole Moment: [D]
     X:     7.3889      Y:    -0.2746      Z:     0.0032     Total:     7.3940

*** Psi4 exiting successfully. Buy a developer a beer!
