                               Psi4 1.3.2 release

  ==> Input File <==

--------------------------------------------------------------------------
#psi4
#
memory 32 gb

molecule  {
0 1
  O       -2.2334690    -1.1675340     0.0001340
  N        0.0265130    -0.9084710    -0.0000270
  N        2.3544690    -0.8475160    -0.0005320
  N       -1.3973450     1.0028810     0.0002180
  C        1.3446236    -0.2754483    -0.0001899
  C        1.0385970     1.1986830    -0.0000890
  C       -1.2978830    -0.3751090     0.0001540
  C       -0.2757380     1.7018570     0.0000510
  H        0.0506260    -1.9247470    -0.0002200
  H        1.9024710     1.8518520    -0.0001620
  H       -0.4079780     2.7850560     0.0002120
  H        3.2235170    -0.3366370     0.0005700
  H        2.4001700    -1.8548790     0.0010060
units angstrom
no_reorient  #important for SAPT in psi4, default
symmetry c1  #important for SAPT in psi4, default
}

set PROPERTIES_ORIGIN ["COM"]
properties('MP2/aug-cc-pvtz', properties = ['dipole'])
--------------------------------------------------------------------------

    Molecular point group: c1
  Charge       = 0
  Multiplicity = 1
  Basis Set: AUG-CC-PVTZ
    Blend: AUG-CC-PVTZ
  Basis Set: (AUG-CC-PVTZ AUX)
    Blend: AUG-CC-PVTZ-JKFIT

    Orbital Energies [Eh]
    ---------------------

    Doubly Occupied:

       1A    -20.498030     2A    -15.671311     3A    -15.620201
       4A    -15.523049     5A    -11.392714     6A    -11.365237
       7A    -11.294623     8A    -11.229468     9A     -1.416838
      10A     -1.365553    11A     -1.240273    12A     -1.181037
      13A     -1.025039    14A     -0.927454    15A     -0.886652
      16A     -0.822702    17A     -0.778011    18A     -0.718060
      19A     -0.664761    20A     -0.663827    21A     -0.631896
      22A     -0.598515    23A     -0.572211    24A     -0.527820
      25A     -0.445868    26A     -0.432960    27A     -0.432672
      28A     -0.401278    29A     -0.303334

  @DF-RHF Final Energy:  -392.67949572635882

   => Energetics <=

    Nuclear Repulsion Energy =            354.0449508684492343
    One-Electron Energy =               -1236.1861029476503973
    Two-Electron Energy =                 489.4616563528423967
    Total Energy =                       -392.6794957263588230
  Basis Set: (AUG-CC-PVTZ AUX)
    Blend: AUG-CC-PVTZ-RI
    Molecular point group: c1

    Geometry (in Angstrom), charge = 0, multiplicity = 1:

       Center              X                  Y                   Z               Mass
    ------------   -----------------  -----------------  -----------------  -----------------
         O           -2.188350486395    -1.152261625924     0.000152925306    15.994914619570
         N            0.071631513605    -0.893198625924    -0.000008074694    14.003074004430
         N            2.399587513605    -0.832243625924    -0.000513074694    14.003074004430
         N           -1.352226486395     1.018153374076     0.000236925306    14.003074004430
         C            1.389742113605    -0.260175925924    -0.000170974694    12.000000000000
         C            1.083715513605     1.213955374076    -0.000070074694    12.000000000000
         C           -1.252764486395    -0.359836625924     0.000172925306    12.000000000000
         C           -0.230619486395     1.717129374076     0.000069925306    12.000000000000
         H            0.095744513605    -1.909474625924    -0.000201074694     1.007825032230
         H            1.947589513605     1.867124374076    -0.000143074694     1.007825032230
         H           -0.362859486395     2.800328374076     0.000230925306     1.007825032230
         H            3.268635513605    -0.321364625924     0.000588925306     1.007825032230
         H            2.445288513605    -1.839606625924     0.001024925306     1.007825032230

  Basis Set: AUG-CC-PVTZ
    Blend: AUG-CC-PVTZ
  Basis Set: (AUG-CC-PVTZ AUX)
    Blend: AUG-CC-PVTZ-JKFIT
	 Reference Energy          =    -392.6794957263588230 [Eh]
	 Singles Energy            =      -0.0000000000000000 [Eh]
	 Same-Spin Energy          =      -0.4074224680002625 [Eh]
	 Opposite-Spin Energy      =      -1.2144359574748318 [Eh]
	 Correlation Energy        =      -1.6218584254750943 [Eh]
	 Total Energy              =    -394.3013541518338911 [Eh]

	 ================> DF-SCS-MP2 Energies <==================
	-----------------------------------------------------------
	 SCS Same-Spin Scale       =       0.3333333333333333 [-]
	 SCS Opposite-Spin Scale   =       1.2000000000000000 [-]
	 SCS Same-Spin Energy      =      -0.1358074893334208 [Eh]
	 SCS Opposite-Spin Energy  =      -1.4573231489697982 [Eh]
	 SCS Correlation Energy    =      -1.5931306383032191 [Eh]
	 SCS Total Energy          =    -394.2726263646620168 [Eh]
	-----------------------------------------------------------

  Dipole Moment: [D]
     X:     9.9792      Y:    -1.9043      Z:     0.0025     Total:    10.1593

*** Psi4 exiting successfully. Buy a developer a beer!
