                               Psi4 1.4a3.dev225

  ==> Input File <==

--------------------------------------------------------------------------
#psi4
#
memory 32 gb

molecule  {
0 1
  O        2.2358750    -1.1647400    -0.0019990
  N       -0.0266920    -0.9090020    -0.0014130
  N       -2.3606070    -0.8668920    -0.0783920
  N        1.3942980     1.0030250     0.0093070
  C       -1.1689180    -0.1740660     0.0003700
  C       -1.0400980     1.1965590     0.0002140
  C        1.2955060    -0.3793770     0.0033320
  C        0.2585742     1.6966943     0.0017647
  H       -0.0608440    -1.9231390    -0.0684580
  H       -1.9045160     1.8491770     0.0118680
  H        0.4106550     2.7868440     0.0040290
  H       -3.1798030    -0.3063160     0.1264620
  H       -2.3838550    -1.7605480     0.4013470
units angstrom
no_reorient  #important for SAPT in psi4, default
symmetry c1  #important for SAPT in psi4, default
}

set PROPERTIES_ORIGIN ["COM"]
properties('MP2/aug-cc-pvtz', properties = ['dipole'])
--------------------------------------------------------------------------

    Molecular point group: c1
  Charge       = 0
  Multiplicity = 1
  Basis Set: AUG-CC-PVTZ
    Blend: AUG-CC-PVTZ
  Basis Set: (AUG-CC-PVTZ AUX)
    Blend: AUG-CC-PVTZ-JKFIT

    Orbital Energies [Eh]
    ---------------------

    Doubly Occupied:

       1A    -20.510757     2A    -15.635238     3A    -15.628787
       4A    -15.550817     5A    -11.383868     6A    -11.376991
       7A    -11.312159     8A    -11.237652     9A     -1.390697
      10A     -1.323924    11A     -1.243063    12A     -1.199569
      13A     -1.064381    14A     -0.909560    15A     -0.883479
      16A     -0.777522    17A     -0.750555    18A     -0.715698
      19A     -0.687411    20A     -0.647750    21A     -0.631812
      22A     -0.623066    23A     -0.570049    24A     -0.547628
      25A     -0.463584    26A     -0.451247    27A     -0.448620
      28A     -0.418359    29A     -0.332212

  @DF-RHF Final Energy:  -392.74984720626355

   => Energetics <=

    Nuclear Repulsion Energy =            355.1140656064767995
    One-Electron Energy =               -1238.2949101065155446
    Two-Electron Energy =                 490.4309972937752491
    Total Energy =                       -392.7498472062635528
  Basis Set: (AUG-CC-PVTZ AUX)
    Blend: AUG-CC-PVTZ-RI
    Molecular point group: c1

    Geometry (in Angstrom), charge = 0, multiplicity = 1:

       Center              X                  Y                   Z               Mass
    ------------   -----------------  -----------------  -----------------  -----------------
         O            2.174419049361    -1.158223062967     0.002251841581    15.994914619570
         N           -0.088147950639    -0.902485062967     0.002837841581    14.003074004430
         N           -2.422062950639    -0.860375062967    -0.074141158419    14.003074004430
         N            1.332842049361     1.009541937033     0.013557841581    14.003074004430
         C           -1.230373950639    -0.167549062967     0.004620841581    12.000000000000
         C           -1.101553950639     1.203075937033     0.004464841581    12.000000000000
         C            1.234050049361    -0.372860062967     0.007582841581    12.000000000000
         C            0.197118249361     1.703211237033     0.006015541581    12.000000000000
         H           -0.122299950639    -1.916622062967    -0.064207158419     1.007825032230
         H           -1.965971950639     1.855693937033     0.016118841581     1.007825032230
         H            0.349199049361     2.793360937033     0.008279841581     1.007825032230
         H           -3.241258950639    -0.299799062967     0.130712841581     1.007825032230
         H           -2.445310950639    -1.754031062967     0.405597841581     1.007825032230

  Basis Set: AUG-CC-PVTZ
    Blend: AUG-CC-PVTZ
  Basis Set: (AUG-CC-PVTZ AUX)
    Blend: AUG-CC-PVTZ-JKFIT
	 Reference Energy          =    -392.7498472062635528 [Eh]
	 Singles Energy            =      -0.0000000000000000 [Eh]
	 Same-Spin Energy          =      -0.4071324386994125 [Eh]
	 Opposite-Spin Energy      =      -1.2153011205298572 [Eh]
	 Correlation Energy        =      -1.6224335592292696 [Eh]
	 Total Energy              =    -394.3722807654928033 [Eh]

	 ================> DF-SCS-MP2 Energies <==================
	-----------------------------------------------------------
	 SCS Same-Spin Scale       =       0.3333333333333333 [-]
	 SCS Opposite-Spin Scale   =       1.2000000000000000 [-]
	 SCS Same-Spin Energy      =      -0.1357108128998042 [Eh]
	 SCS Opposite-Spin Energy  =      -1.4583613446358286 [Eh]
	 SCS Correlation Energy    =      -1.5940721575356327 [Eh]
	 SCS Total Energy          =    -394.3439193637991593 [Eh]
	-----------------------------------------------------------

  Dipole Moment: [D]
     X:    -7.7280      Y:    -0.4404      Z:     0.8613     Total:     7.7883

*** Psi4 exiting successfully. Buy a developer a beer!
