                               Psi4 1.3.2 release

  ==> Input File <==

--------------------------------------------------------------------------
#psi4
#
memory 32 gb

molecule  {
0 1
  O       -2.2334690    -1.1675340     0.0001340
  N       -0.0217340    -0.8268810    -0.0000203
  N        2.3544690    -0.8475160    -0.0005320
  N       -1.3973450     1.0028810     0.0002180
  C        1.1706060    -0.1768690    -0.0001310
  C        1.0385970     1.1986830    -0.0000890
  C       -1.2978830    -0.3751090     0.0001540
  C       -0.2757380     1.7018570     0.0000510
  H        0.0506260    -1.9247470    -0.0002200
  H        1.9024710     1.8518520    -0.0001620
  H       -0.4079780     2.7850560     0.0002120
  H        3.2235170    -0.3366370     0.0005700
  H        2.4001700    -1.8548790     0.0010060
units angstrom
no_reorient  #important for SAPT in psi4, default
symmetry c1  #important for SAPT in psi4, default
}

set PROPERTIES_ORIGIN ["COM"]
properties('MP2/aug-cc-pvtz', properties = ['dipole'])
--------------------------------------------------------------------------

    Molecular point group: c1
  Charge       = 0
  Multiplicity = 1
  Basis Set: AUG-CC-PVTZ
    Blend: AUG-CC-PVTZ
  Basis Set: (AUG-CC-PVTZ AUX)
    Blend: AUG-CC-PVTZ-JKFIT

    Orbital Energies [Eh]
    ---------------------

    Doubly Occupied:

       1A    -20.502226     2A    -15.640855     3A    -15.634360
       4A    -15.542852     5A    -11.386024     6A    -11.367942
       7A    -11.305614     8A    -11.232991     9A     -1.394882
      10A     -1.322807    11A     -1.250231    12A     -1.196303
      13A     -1.061464    14A     -0.909615    15A     -0.894621
      16A     -0.785926    17A     -0.752193    18A     -0.718954
      19A     -0.688170    20A     -0.648025    21A     -0.631905
      22A     -0.618637    23A     -0.561111    24A     -0.550238
      25A     -0.458786    26A     -0.443633    27A     -0.441942
      28A     -0.412755    29A     -0.325407

  @DF-RHF Final Energy:  -392.73757021505696

   => Energetics <=

    Nuclear Repulsion Energy =            356.6903341835004539
    One-Electron Energy =               -1241.4948708210149562
    Two-Electron Energy =                 492.0669664224575399
    Total Energy =                       -392.7375702150569623
  Basis Set: (AUG-CC-PVTZ AUX)
    Blend: AUG-CC-PVTZ-RI
    Molecular point group: c1

    Geometry (in Angstrom), charge = 0, multiplicity = 1:

       Center              X                  Y                   Z               Mass
    ------------   -----------------  -----------------  -----------------  -----------------
         O           -2.163460930137    -1.173203575669     0.000145715318    15.994914619570
         N            0.048274069863    -0.832550575669    -0.000008584682    14.003074004430
         N            2.424477069863    -0.853185575669    -0.000520284682    14.003074004430
         N           -1.327336930137     0.997211424331     0.000229715318    14.003074004430
         C            1.240614069863    -0.182538575669    -0.000119284682    12.000000000000
         C            1.108605069863     1.193013424331    -0.000077284682    12.000000000000
         C           -1.227874930137    -0.380778575669     0.000165715318    12.000000000000
         C           -0.205729930137     1.696187424331     0.000062715318    12.000000000000
         H            0.120634069863    -1.930416575669    -0.000208284682     1.007825032230
         H            1.972479069863     1.846182424331    -0.000150284682     1.007825032230
         H           -0.337969930137     2.779386424331     0.000223715318     1.007825032230
         H            3.293525069863    -0.342306575669     0.000581715318     1.007825032230
         H            2.470178069863    -1.860548575669     0.001017715318     1.007825032230

  Basis Set: AUG-CC-PVTZ
    Blend: AUG-CC-PVTZ
  Basis Set: (AUG-CC-PVTZ AUX)
    Blend: AUG-CC-PVTZ-JKFIT
	 Reference Energy          =    -392.7375702150569623 [Eh]
	 Singles Energy            =      -0.0000000000000000 [Eh]
	 Same-Spin Energy          =      -0.4082429554721864 [Eh]
	 Opposite-Spin Energy      =      -1.2159432384941780 [Eh]
	 Correlation Energy        =      -1.6241861939663642 [Eh]
	 Total Energy              =    -394.3617564090233145 [Eh]

	 ================> DF-SCS-MP2 Energies <==================
	-----------------------------------------------------------
	 SCS Same-Spin Scale       =       0.3333333333333333 [-]
	 SCS Opposite-Spin Scale   =       1.2000000000000000 [-]
	 SCS Same-Spin Energy      =      -0.1360809851573954 [Eh]
	 SCS Opposite-Spin Energy  =      -1.4591318861930136 [Eh]
	 SCS Correlation Energy    =      -1.5952128713504090 [Eh]
	 SCS Total Energy          =    -394.3327830864073462 [Eh]
	-----------------------------------------------------------

  Dipole Moment: [D]
     X:     8.4403      Y:    -0.9108      Z:     0.0030     Total:     8.4893

*** Psi4 exiting successfully. Buy a developer a beer!
