                               Psi4 1.3.2 release

  ==> Input File <==

--------------------------------------------------------------------------
#psi4
#
memory 32 gb

molecule  {
0 1
  O       -2.2334690    -1.1675340     0.0001340
  N        0.0265130    -0.9084710    -0.0000270
  N        2.3544690    -0.8475160    -0.0005320
  N       -1.3973450     1.0028810     0.0002180
  C        1.1706060    -0.1768690    -0.0001310
  C        1.0577028     0.9995977    -0.0000951
  C       -1.2978830    -0.3751090     0.0001540
  C       -0.2757380     1.7018570     0.0000510
  H        0.0506260    -1.9247470    -0.0002200
  H        1.9024710     1.8518520    -0.0001620
  H       -0.4079780     2.7850560     0.0002120
  H        3.2235170    -0.3366370     0.0005700
  H        2.4001700    -1.8548790     0.0010060
units angstrom
no_reorient  #important for SAPT in psi4, default
symmetry c1  #important for SAPT in psi4, default
}

set PROPERTIES_ORIGIN ["COM"]
properties('MP2/aug-cc-pvtz', properties = ['dipole'])
--------------------------------------------------------------------------

    Molecular point group: c1
  Charge       = 0
  Multiplicity = 1
  Basis Set: AUG-CC-PVTZ
    Blend: AUG-CC-PVTZ
  Basis Set: (AUG-CC-PVTZ AUX)
    Blend: AUG-CC-PVTZ-JKFIT

    Orbital Energies [Eh]
    ---------------------

    Doubly Occupied:

       1A    -20.515711     2A    -15.614720     3A    -15.602420
       4A    -15.566340     5A    -11.381110     6A    -11.333838
       7A    -11.331293     8A    -11.227122     9A     -1.391744
      10A     -1.322031    11A     -1.242244    12A     -1.193543
      13A     -1.082440    14A     -0.919025    15A     -0.867896
      16A     -0.777265    17A     -0.741442    18A     -0.713081
      19A     -0.689155    20A     -0.649651    21A     -0.643753
      22A     -0.603603    23A     -0.562694    24A     -0.550147
      25A     -0.458783    26A     -0.452711    27A     -0.434896
      28A     -0.420770    29A     -0.345467

  @DF-RHF Final Energy:  -392.68577824367111

   => Energetics <=

    Nuclear Repulsion Energy =            358.2004639487724944
    One-Electron Energy =               -1244.5026964782887262
    Two-Electron Energy =                 493.6164542858451227
    Total Energy =                       -392.6857782436711091
  Basis Set: (AUG-CC-PVTZ AUX)
    Blend: AUG-CC-PVTZ-RI
    Molecular point group: c1

    Geometry (in Angstrom), charge = 0, multiplicity = 1:

       Center              X                  Y                   Z               Mass
    ------------   -----------------  -----------------  -----------------  -----------------
         O           -2.171609789392    -1.141400345550     0.000147219421    15.994914619570
         N            0.088372210608    -0.882337345550    -0.000013780579    14.003074004430
         N            2.416328210608    -0.821382345550    -0.000518780579    14.003074004430
         N           -1.335485789392     1.029014654450     0.000231219421    14.003074004430
         C            1.232465210608    -0.150735345550    -0.000117780579    12.000000000000
         C            1.119562010608     1.025731354450    -0.000081880579    12.000000000000
         C           -1.236023789392    -0.348975345550     0.000167219421    12.000000000000
         C           -0.213878789392     1.727990654450     0.000064219421    12.000000000000
         H            0.112485210608    -1.898613345550    -0.000206780579     1.007825032230
         H            1.964330210608     1.877985654450    -0.000148780579     1.007825032230
         H           -0.346118789392     2.811189654450     0.000225219421     1.007825032230
         H            3.285376210608    -0.310503345550     0.000583219421     1.007825032230
         H            2.462029210608    -1.828745345550     0.001019219421     1.007825032230

  Basis Set: AUG-CC-PVTZ
    Blend: AUG-CC-PVTZ
  Basis Set: (AUG-CC-PVTZ AUX)
    Blend: AUG-CC-PVTZ-JKFIT
	 Reference Energy          =    -392.6857782436711091 [Eh]
	 Singles Energy            =      -0.0000000000000000 [Eh]
	 Same-Spin Energy          =      -0.4061849233369665 [Eh]
	 Opposite-Spin Energy      =      -1.2150806620958976 [Eh]
	 Correlation Energy        =      -1.6212655854328641 [Eh]
	 Total Energy              =    -394.3070438291039750 [Eh]

	 ================> DF-SCS-MP2 Energies <==================
	-----------------------------------------------------------
	 SCS Same-Spin Scale       =       0.3333333333333333 [-]
	 SCS Opposite-Spin Scale   =       1.2000000000000000 [-]
	 SCS Same-Spin Energy      =      -0.1353949744456555 [Eh]
	 SCS Opposite-Spin Energy  =      -1.4580967945150771 [Eh]
	 SCS Correlation Energy    =      -1.5934917689607326 [Eh]
	 SCS Total Energy          =    -394.2792700126318550 [Eh]
	-----------------------------------------------------------

  Dipole Moment: [D]
     X:     7.1215      Y:    -0.0555      Z:     0.0033     Total:     7.1217

*** Psi4 exiting successfully. Buy a developer a beer!
