                               Psi4 1.3.2 release

  ==> Input File <==

--------------------------------------------------------------------------
#psi4
#
memory 32 gb

molecule  {
0 1
  O       -2.2334690    -1.1675340     0.0001340
  N        0.0265130    -0.9084710    -0.0000270
  N        2.3544690    -0.8475160    -0.0005320
  N       -1.3973450     1.0028810     0.0002180
  C        1.1706060    -0.1768690    -0.0001310
  C        1.0385970     1.1986830    -0.0000890
  C       -1.2978830    -0.3751090     0.0001540
  C       -0.2757380     1.7018570     0.0000510
  H        0.0506260    -1.9247470    -0.0002200
  H        1.9024710     1.8518520    -0.0001620
  H       -0.4079780     2.7850560     0.0002120
  H        3.3097245    -0.2859590     0.0006793
  H        2.4001700    -1.8548790     0.0010060
units angstrom
no_reorient  #important for SAPT in psi4, default
symmetry c1  #important for SAPT in psi4, default
}

set PROPERTIES_ORIGIN ["COM"]
properties('MP2/aug-cc-pvtz', properties = ['dipole'])
--------------------------------------------------------------------------

    Molecular point group: c1
  Charge       = 0
  Multiplicity = 1
  Basis Set: AUG-CC-PVTZ
    Blend: AUG-CC-PVTZ
  Basis Set: (AUG-CC-PVTZ AUX)
    Blend: AUG-CC-PVTZ-JKFIT

    Orbital Energies [Eh]
    ---------------------

    Doubly Occupied:

       1A    -20.508807     2A    -15.636636     3A    -15.631541
       4A    -15.544929     5A    -11.383721     6A    -11.375173
       7A    -11.308215     8A    -11.231752     9A     -1.387998
      10A     -1.319914    11A     -1.237281    12A     -1.195009
      13A     -1.055640    14A     -0.907558    15A     -0.877561
      16A     -0.783023    17A     -0.744694    18A     -0.713465
      19A     -0.679920    20A     -0.637712    21A     -0.635956
      22A     -0.619596    23A     -0.568458    24A     -0.546504
      25A     -0.459633    26A     -0.446960    27A     -0.440556
      28A     -0.414724    29A     -0.324776

  @DF-RHF Final Energy:  -392.74068144338958

   => Energetics <=

    Nuclear Repulsion Energy =            354.6842159769596492
    One-Electron Energy =               -1237.6143680192903958
    Two-Electron Energy =                 490.1894705989411705
    Total Energy =                       -392.7406814433895761
  Basis Set: (AUG-CC-PVTZ AUX)
    Blend: AUG-CC-PVTZ-RI
    Molecular point group: c1

    Geometry (in Angstrom), charge = 0, multiplicity = 1:

       Center              X                  Y                   Z               Mass
    ------------   -----------------  -----------------  -----------------  -----------------
         O           -2.170327518669    -1.163374647435     0.000145568216    15.994914619570
         N            0.089654481331    -0.904311647435    -0.000015431784    14.003074004430
         N            2.417610481331    -0.843356647435    -0.000520431784    14.003074004430
         N           -1.334203518669     1.007040352565     0.000229568216    14.003074004430
         C            1.233747481331    -0.172709647435    -0.000119431784    12.000000000000
         C            1.101738481331     1.202842352565    -0.000077431784    12.000000000000
         C           -1.234741518669    -0.370949647435     0.000165568216    12.000000000000
         C           -0.212596518669     1.706016352565     0.000062568216    12.000000000000
         H            0.113767481331    -1.920587647435    -0.000208431784     1.007825032230
         H            1.965612481331     1.856011352565    -0.000150431784     1.007825032230
         H           -0.344836518669     2.789215352565     0.000223568216     1.007825032230
         H            3.372865981331    -0.281799647435     0.000690868216     1.007825032230
         H            2.463311481331    -1.850719647435     0.001017568216     1.007825032230

  Basis Set: AUG-CC-PVTZ
    Blend: AUG-CC-PVTZ
  Basis Set: (AUG-CC-PVTZ AUX)
    Blend: AUG-CC-PVTZ-JKFIT
	 Reference Energy          =    -392.7406814433895761 [Eh]
	 Singles Energy            =      -0.0000000000000000 [Eh]
	 Same-Spin Energy          =      -0.4074903679980738 [Eh]
	 Opposite-Spin Energy      =      -1.2158353025641822 [Eh]
	 Correlation Energy        =      -1.6233256705622559 [Eh]
	 Total Energy              =    -394.3640071139518568 [Eh]

	 ================> DF-SCS-MP2 Energies <==================
	-----------------------------------------------------------
	 SCS Same-Spin Scale       =       0.3333333333333333 [-]
	 SCS Opposite-Spin Scale   =       1.2000000000000000 [-]
	 SCS Same-Spin Energy      =      -0.1358301226660246 [Eh]
	 SCS Opposite-Spin Energy  =      -1.4590023630770186 [Eh]
	 SCS Correlation Energy    =      -1.5948324857430431 [Eh]
	 SCS Total Energy          =    -394.3355139291326168 [Eh]
	-----------------------------------------------------------

  Dipole Moment: [D]
     X:     8.2684      Y:    -0.8333      Z:     0.0031     Total:     8.3103

*** Psi4 exiting successfully. Buy a developer a beer!
