                               Psi4 1.4a3.dev225

  ==> Input File <==

--------------------------------------------------------------------------
#psi4
#
memory 32 gb

molecule  {
0 1
  O        2.2358750    -1.1647400    -0.0019990
  N       -0.0266920    -0.9090020    -0.0014130
  N       -2.3606070    -0.8668920    -0.0783920
  N        1.3942980     1.0030250     0.0093070
  C       -1.1689180    -0.1740660     0.0003700
  C       -1.0400980     1.1965590     0.0002140
  C        1.2955060    -0.3793770     0.0033320
  C        0.2772380     1.7038820     0.0017870
  H       -0.0608440    -1.9231390    -0.0684580
  H       -1.8885552     1.8371269     0.0116528
  H        0.4106550     2.7868440     0.0040290
  H       -3.1798030    -0.3063160     0.1264620
  H       -2.3838550    -1.7605480     0.4013470
units angstrom
no_reorient  #important for SAPT in psi4, default
symmetry c1  #important for SAPT in psi4, default
}

set PROPERTIES_ORIGIN ["COM"]
properties('MP2/aug-cc-pvtz', properties = ['dipole'])
--------------------------------------------------------------------------

    Molecular point group: c1
  Charge       = 0
  Multiplicity = 1
  Basis Set: AUG-CC-PVTZ
    Blend: AUG-CC-PVTZ
  Basis Set: (AUG-CC-PVTZ AUX)
    Blend: AUG-CC-PVTZ-JKFIT

    Orbital Energies [Eh]
    ---------------------

    Doubly Occupied:

       1A    -20.512601     2A    -15.634085     3A    -15.626926
       4A    -15.551905     5A    -11.381224     6A    -11.378802
       7A    -11.312724     8A    -11.235279     9A     -1.391522
      10A     -1.323050    11A     -1.244128    12A     -1.201497
      13A     -1.060843    14A     -0.909225    15A     -0.884453
      16A     -0.776113    17A     -0.751521    18A     -0.715861
      19A     -0.687981    20A     -0.647120    21A     -0.631263
      22A     -0.624790    23A     -0.574968    24A     -0.547718
      25A     -0.463808    26A     -0.451790    27A     -0.448677
      28A     -0.418584    29A     -0.331640

  @DF-RHF Final Energy:  -392.75112300366862

   => Energetics <=

    Nuclear Repulsion Energy =            355.0794309410880487
    One-Electron Energy =               -1238.2209101864993954
    Two-Electron Energy =                 490.3903562417427224
    Total Energy =                       -392.7511230036686243
  Basis Set: (AUG-CC-PVTZ AUX)
    Blend: AUG-CC-PVTZ-RI
    Molecular point group: c1

    Geometry (in Angstrom), charge = 0, multiplicity = 1:

       Center              X                  Y                   Z               Mass
    ------------   -----------------  -----------------  -----------------  -----------------
         O            2.172257267638    -1.158890442566     0.002251384858    15.994914619570
         N           -0.090309732362    -0.903152442566     0.002837384858    14.003074004430
         N           -2.424224732362    -0.861042442566    -0.074141615142    14.003074004430
         N            1.330680267638     1.008874557434     0.013557384858    14.003074004430
         C           -1.232535732362    -0.168216442566     0.004620384858    12.000000000000
         C           -1.103715732362     1.202408557434     0.004464384858    12.000000000000
         C            1.231888267638    -0.373527442566     0.007582384858    12.000000000000
         C            0.213620267638     1.709731557434     0.006037384858    12.000000000000
         H           -0.124461732362    -1.917289442566    -0.064207615142     1.007825032230
         H           -1.952172932362     1.842976457434     0.015903184858     1.007825032230
         H            0.347037267638     2.792693557434     0.008279384858     1.007825032230
         H           -3.243420732362    -0.300466442566     0.130712384858     1.007825032230
         H           -2.447472732362    -1.754698442566     0.405597384858     1.007825032230

  Basis Set: AUG-CC-PVTZ
    Blend: AUG-CC-PVTZ
  Basis Set: (AUG-CC-PVTZ AUX)
    Blend: AUG-CC-PVTZ-JKFIT
	 Reference Energy          =    -392.7511230036686243 [Eh]
	 Singles Energy            =      -0.0000000000000000 [Eh]
	 Same-Spin Energy          =      -0.4067735871821550 [Eh]
	 Opposite-Spin Energy      =      -1.2148583915140434 [Eh]
	 Correlation Energy        =      -1.6216319786961984 [Eh]
	 Total Energy              =    -394.3727549823648246 [Eh]

	 ================> DF-SCS-MP2 Energies <==================
	-----------------------------------------------------------
	 SCS Same-Spin Scale       =       0.3333333333333333 [-]
	 SCS Opposite-Spin Scale   =       1.2000000000000000 [-]
	 SCS Same-Spin Energy      =      -0.1355911957273850 [Eh]
	 SCS Opposite-Spin Energy  =      -1.4578300698168520 [Eh]
	 SCS Correlation Energy    =      -1.5934212655442370 [Eh]
	 SCS Total Energy          =    -394.3445442692128609 [Eh]
	-----------------------------------------------------------

  Dipole Moment: [D]
     X:    -7.6027      Y:    -0.4060      Z:     0.8619     Total:     7.6622

*** Psi4 exiting successfully. Buy a developer a beer!
