                               Psi4 1.3.2 release

  ==> Input File <==

--------------------------------------------------------------------------
#psi4
#
memory 32 gb

molecule  {
0 1
  O       -2.2334690    -1.1675340     0.0001340
  N        0.0265130    -0.9084710    -0.0000270
  N        2.3048032    -0.9284645    -0.0005149
  N       -1.3973450     1.0028810     0.0002180
  C        1.1706060    -0.1768690    -0.0001310
  C        1.0385970     1.1986830    -0.0000890
  C       -1.2978830    -0.3751090     0.0001540
  C       -0.2757380     1.7018570     0.0000510
  H        0.0506260    -1.9247470    -0.0002200
  H        1.9024710     1.8518520    -0.0001620
  H       -0.4079780     2.7850560     0.0002120
  H        3.2235170    -0.3366370     0.0005700
  H        2.4001700    -1.8548790     0.0010060
units angstrom
no_reorient  #important for SAPT in psi4, default
symmetry c1  #important for SAPT in psi4, default
}

set PROPERTIES_ORIGIN ["COM"]
properties('MP2/aug-cc-pvtz', properties = ['dipole'])
--------------------------------------------------------------------------

    Molecular point group: c1
  Charge       = 0
  Multiplicity = 1
  Basis Set: AUG-CC-PVTZ
    Blend: AUG-CC-PVTZ
  Basis Set: (AUG-CC-PVTZ AUX)
    Blend: AUG-CC-PVTZ-JKFIT

    Orbital Energies [Eh]
    ---------------------

    Doubly Occupied:

       1A    -20.508606     2A    -15.628528     3A    -15.628224
       4A    -15.546775     5A    -11.385536     6A    -11.374470
       7A    -11.310788     8A    -11.235963     9A     -1.388343
      10A     -1.325086    11A     -1.242581    12A     -1.196729
      13A     -1.061299    14A     -0.914180    15A     -0.880982
      16A     -0.799922    17A     -0.746889    18A     -0.715967
      19A     -0.678840    20A     -0.640540    21A     -0.638464
      22A     -0.620666    23A     -0.570373    24A     -0.547532
      25A     -0.461177    26A     -0.447493    27A     -0.439566
      28A     -0.415427    29A     -0.327666

  @DF-RHF Final Energy:  -392.73664855426017

   => Energetics <=

    Nuclear Repulsion Energy =            355.4209381928341713
    One-Electron Energy =               -1238.9579468512515632
    Two-Electron Energy =                 490.8003601041571642
    Total Energy =                       -392.7366485542601708
  Basis Set: (AUG-CC-PVTZ AUX)
    Blend: AUG-CC-PVTZ-RI
    Molecular point group: c1

    Geometry (in Angstrom), charge = 0, multiplicity = 1:

       Center              X                  Y                   Z               Mass
    ------------   -----------------  -----------------  -----------------  -----------------
         O           -2.163282012830    -1.152706711589     0.000144403829    15.994914619570
         N            0.096699987170    -0.893643711589    -0.000016596171    14.003074004430
         N            2.374990187170    -0.913637211589    -0.000504496171    14.003074004430
         N           -1.327158012830     1.017708288411     0.000228403829    14.003074004430
         C            1.240792987170    -0.162041711589    -0.000120596171    12.000000000000
         C            1.108783987170     1.213510288411    -0.000078596171    12.000000000000
         C           -1.227696012830    -0.360281711589     0.000164403829    12.000000000000
         C           -0.205551012830     1.716684288411     0.000061403829    12.000000000000
         H            0.120812987170    -1.909919711589    -0.000209596171     1.007825032230
         H            1.972657987170     1.866679288411    -0.000151596171     1.007825032230
         H           -0.337791012830     2.799883288411     0.000222403829     1.007825032230
         H            3.293703987170    -0.321809711589     0.000580403829     1.007825032230
         H            2.470356987170    -1.840051711589     0.001016403829     1.007825032230

  Basis Set: AUG-CC-PVTZ
    Blend: AUG-CC-PVTZ
  Basis Set: (AUG-CC-PVTZ AUX)
    Blend: AUG-CC-PVTZ-JKFIT
	 Reference Energy          =    -392.7366485542601708 [Eh]
	 Singles Energy            =      -0.0000000000000000 [Eh]
	 Same-Spin Energy          =      -0.4070307250326085 [Eh]
	 Opposite-Spin Energy      =      -1.2148219136964249 [Eh]
	 Correlation Energy        =      -1.6218526387290333 [Eh]
	 Total Energy              =    -394.3585011929891948 [Eh]

	 ================> DF-SCS-MP2 Energies <==================
	-----------------------------------------------------------
	 SCS Same-Spin Scale       =       0.3333333333333333 [-]
	 SCS Opposite-Spin Scale   =       1.2000000000000000 [-]
	 SCS Same-Spin Energy      =      -0.1356769083442028 [Eh]
	 SCS Opposite-Spin Energy  =      -1.4577862964357098 [Eh]
	 SCS Correlation Energy    =      -1.5934632047799127 [Eh]
	 SCS Total Energy          =    -394.3301117590401077 [Eh]
	-----------------------------------------------------------

  Dipole Moment: [D]
     X:     8.1314      Y:    -0.7468      Z:     0.0031     Total:     8.1656

*** Psi4 exiting successfully. Buy a developer a beer!
