                               Psi4 1.3.2 release

  ==> Input File <==

--------------------------------------------------------------------------
#psi4
#
memory 32 gb

molecule  {
0 1
  O       -2.2334690    -1.1675340     0.0001340
  N        0.0265130    -0.9084710    -0.0000270
  N        2.3544690    -0.8475160    -0.0005320
  N       -1.3973450     1.0028810     0.0002180
  C        1.1225195    -0.1806381    -0.0001263
  C        1.0385970     1.1986830    -0.0000890
  C       -1.2978830    -0.3751090     0.0001540
  C       -0.2757380     1.7018570     0.0000510
  H        0.0506260    -1.9247470    -0.0002200
  H        1.9024710     1.8518520    -0.0001620
  H       -0.4079780     2.7850560     0.0002120
  H        3.2235170    -0.3366370     0.0005700
  H        2.4001700    -1.8548790     0.0010060
units angstrom
no_reorient  #important for SAPT in psi4, default
symmetry c1  #important for SAPT in psi4, default
}

set PROPERTIES_ORIGIN ["COM"]
properties('MP2/aug-cc-pvtz', properties = ['dipole'])
--------------------------------------------------------------------------

    Molecular point group: c1
  Charge       = 0
  Multiplicity = 1
  Basis Set: AUG-CC-PVTZ
    Blend: AUG-CC-PVTZ
  Basis Set: (AUG-CC-PVTZ AUX)
    Blend: AUG-CC-PVTZ-JKFIT

    Orbital Energies [Eh]
    ---------------------

    Doubly Occupied:

       1A    -20.512138     2A    -15.637850     3A    -15.622483
       4A    -15.547194     5A    -11.383681     6A    -11.378413
       7A    -11.309042     8A    -11.233262     9A     -1.395205
      10A     -1.325493    11A     -1.237183    12A     -1.202606
      13A     -1.058482    14A     -0.910013    15A     -0.889289
      16A     -0.783656    17A     -0.753561    18A     -0.714567
      19A     -0.693914    20A     -0.644223    21A     -0.635312
      22A     -0.622072    23A     -0.573583    24A     -0.542619
      25A     -0.462434    26A     -0.450041    27A     -0.444606
      28A     -0.416801    29A     -0.326422

  @DF-RHF Final Energy:  -392.74862111465131

   => Energetics <=

    Nuclear Repulsion Energy =            355.6667943944982540
    One-Electron Energy =               -1239.4185427970969613
    Two-Electron Energy =                 491.0031272879473363
    Total Energy =                       -392.7486211146513142
  Basis Set: (AUG-CC-PVTZ AUX)
    Blend: AUG-CC-PVTZ-RI
    Molecular point group: c1

    Geometry (in Angstrom), charge = 0, multiplicity = 1:

       Center              X                  Y                   Z               Mass
    ------------   -----------------  -----------------  -----------------  -----------------
         O           -2.164348586983    -1.162507384033     0.000146052309    15.994914619570
         N            0.095633413017    -0.903444384033    -0.000014947691    14.003074004430
         N            2.423589413017    -0.842489384033    -0.000519947691    14.003074004430
         N           -1.328224586983     1.007907615967     0.000230052309    14.003074004430
         C            1.191639913017    -0.175611484033    -0.000114247691    12.000000000000
         C            1.107717413017     1.203709615967    -0.000076947691    12.000000000000
         C           -1.228762586983    -0.370082384033     0.000166052309    12.000000000000
         C           -0.206617586983     1.706883615967     0.000063052309    12.000000000000
         H            0.119746413017    -1.919720384033    -0.000207947691     1.007825032230
         H            1.971591413017     1.856878615967    -0.000149947691     1.007825032230
         H           -0.338857586983     2.790082615967     0.000224052309     1.007825032230
         H            3.292637413017    -0.331610384033     0.000582052309     1.007825032230
         H            2.469290413017    -1.849852384033     0.001018052309     1.007825032230

  Basis Set: AUG-CC-PVTZ
    Blend: AUG-CC-PVTZ
  Basis Set: (AUG-CC-PVTZ AUX)
    Blend: AUG-CC-PVTZ-JKFIT
	 Reference Energy          =    -392.7486211146513142 [Eh]
	 Singles Energy            =      -0.0000000000000000 [Eh]
	 Same-Spin Energy          =      -0.4068743928339469 [Eh]
	 Opposite-Spin Energy      =      -1.2140386060468553 [Eh]
	 Correlation Energy        =      -1.6209129988808022 [Eh]
	 Total Energy              =    -394.3695341135320973 [Eh]

	 ================> DF-SCS-MP2 Energies <==================
	-----------------------------------------------------------
	 SCS Same-Spin Scale       =       0.3333333333333333 [-]
	 SCS Opposite-Spin Scale   =       1.2000000000000000 [-]
	 SCS Same-Spin Energy      =      -0.1356247976113156 [Eh]
	 SCS Opposite-Spin Energy  =      -1.4568463272562264 [Eh]
	 SCS Correlation Energy    =      -1.5924711248675421 [Eh]
	 SCS Total Energy          =    -394.3410922395188436 [Eh]
	-----------------------------------------------------------

  Dipole Moment: [D]
     X:     7.8267      Y:    -0.8230      Z:     0.0031     Total:     7.8699

*** Psi4 exiting successfully. Buy a developer a beer!
