                               Psi4 1.3.2 release

  ==> Input File <==

--------------------------------------------------------------------------
#psi4
#
memory 32 gb

molecule  {
0 1
  O       -2.2334690    -1.1675340     0.0001340
  N        0.0265130    -0.9084710    -0.0000270
  N        2.3544690    -0.8475160    -0.0005320
  N       -1.3973450     1.0028810     0.0002180
  C        1.1706060    -0.1768690    -0.0001310
  C        1.0385970     1.1986830    -0.0000890
  C       -1.2978830    -0.3751090     0.0001540
  C       -0.2757380     1.7018570     0.0000510
  H        0.0506260    -1.9247470    -0.0002200
  H        1.9024710     1.8518520    -0.0001620
  H       -0.4079780     2.7850560     0.0002120
  H        3.2323007    -0.3518818     0.0006103
  H        2.4001700    -1.8548790     0.0010060
units angstrom
no_reorient  #important for SAPT in psi4, default
symmetry c1  #important for SAPT in psi4, default
}

set PROPERTIES_ORIGIN ["COM"]
properties('MP2/aug-cc-pvtz', properties = ['dipole'])
--------------------------------------------------------------------------

    Molecular point group: c1
  Charge       = 0
  Multiplicity = 1
  Basis Set: AUG-CC-PVTZ
    Blend: AUG-CC-PVTZ
  Basis Set: (AUG-CC-PVTZ AUX)
    Blend: AUG-CC-PVTZ-JKFIT

    Orbital Energies [Eh]
    ---------------------

    Doubly Occupied:

       1A    -20.509276     2A    -15.632129     3A    -15.628942
       4A    -15.545662     5A    -11.384464     6A    -11.375682
       7A    -11.308821     8A    -11.232501     9A     -1.388673
      10A     -1.323246    11A     -1.242731    12A     -1.198958
      13A     -1.057632    14A     -0.909779    15A     -0.883646
      16A     -0.784077    17A     -0.752595    18A     -0.722538
      19A     -0.690711    20A     -0.638520    21A     -0.636622
      22A     -0.620179    23A     -0.569239    24A     -0.547805
      25A     -0.460161    26A     -0.447555    27A     -0.442005
      28A     -0.415343    29A     -0.325578

  @DF-RHF Final Energy:  -392.75121835067108

   => Energetics <=

    Nuclear Repulsion Energy =            355.1683663034011147
    One-Electron Energy =               -1238.4890287758298655
    Two-Electron Energy =                 490.5694441217576127
    Total Energy =                       -392.7512183506710812
  Basis Set: (AUG-CC-PVTZ AUX)
    Blend: AUG-CC-PVTZ-RI
    Molecular point group: c1

    Geometry (in Angstrom), charge = 0, multiplicity = 1:

       Center              X                  Y                   Z               Mass
    ------------   -----------------  -----------------  -----------------  -----------------
         O           -2.169624822779    -1.162776334247     0.000146194457    15.994914619570
         N            0.090357177221    -0.903713334247    -0.000014805543    14.003074004430
         N            2.418313177221    -0.842758334247    -0.000519805543    14.003074004430
         N           -1.333500822779     1.007638665753     0.000230194457    14.003074004430
         C            1.234450177221    -0.172111334247    -0.000118805543    12.000000000000
         C            1.102441177221     1.203440665753    -0.000076805543    12.000000000000
         C           -1.234038822779    -0.370351334247     0.000166194457    12.000000000000
         C           -0.211893822779     1.706614665753     0.000063194457    12.000000000000
         H            0.114470177221    -1.919989334247    -0.000207805543     1.007825032230
         H            1.966315177221     1.856609665753    -0.000149805543     1.007825032230
         H           -0.344133822779     2.789813665753     0.000224194457     1.007825032230
         H            3.296144877221    -0.347124134247     0.000622494457     1.007825032230
         H            2.464014177221    -1.850121334247     0.001018194457     1.007825032230

  Basis Set: AUG-CC-PVTZ
    Blend: AUG-CC-PVTZ
  Basis Set: (AUG-CC-PVTZ AUX)
    Blend: AUG-CC-PVTZ-JKFIT
	 Reference Energy          =    -392.7512183506710812 [Eh]
	 Singles Energy            =      -0.0000000000000000 [Eh]
	 Same-Spin Energy          =      -0.4068467060111580 [Eh]
	 Opposite-Spin Energy      =      -1.2141013287012568 [Eh]
	 Correlation Energy        =      -1.6209480347124148 [Eh]
	 Total Energy              =    -394.3721663853834798 [Eh]

	 ================> DF-SCS-MP2 Energies <==================
	-----------------------------------------------------------
	 SCS Same-Spin Scale       =       0.3333333333333333 [-]
	 SCS Opposite-Spin Scale   =       1.2000000000000000 [-]
	 SCS Same-Spin Energy      =      -0.1356155686703860 [Eh]
	 SCS Opposite-Spin Energy  =      -1.4569215944415081 [Eh]
	 SCS Correlation Energy    =      -1.5925371631118941 [Eh]
	 SCS Total Energy          =    -394.3437555137829804 [Eh]
	-----------------------------------------------------------

  Dipole Moment: [D]
     X:     8.1470      Y:    -0.8760      Z:     0.0031     Total:     8.1939

*** Psi4 exiting successfully. Buy a developer a beer!
