                               Psi4 1.4a3.dev225

  ==> Input File <==

--------------------------------------------------------------------------
#psi4
#
memory 32 gb

molecule  {
0 1
  O        2.2358750    -1.1647400    -0.0019990
  N       -0.0266920    -0.9090020    -0.0014130
  N       -2.3606070    -0.8668920    -0.0783920
  N        1.3942980     1.0030250     0.0093070
  C       -1.1268700    -0.2011207     0.0003044
  C       -1.0400980     1.1965590     0.0002140
  C        1.2955060    -0.3793770     0.0033320
  C        0.2772380     1.7038820     0.0017870
  H       -0.0608440    -1.9231390    -0.0684580
  H       -1.9045160     1.8491770     0.0118680
  H        0.4106550     2.7868440     0.0040290
  H       -3.1798030    -0.3063160     0.1264620
  H       -2.3838550    -1.7605480     0.4013470
units angstrom
no_reorient  #important for SAPT in psi4, default
symmetry c1  #important for SAPT in psi4, default
}

set PROPERTIES_ORIGIN ["COM"]
properties('MP2/aug-cc-pvtz', properties = ['dipole'])
--------------------------------------------------------------------------

     Molecular point group: c1     Full point group: C1
   Charge       = 0   Multiplicity = 1   Electrons    = 58   Nalpha       = 29   Nbeta        = 29
   Basis Set: AUG-CC-PVTZ     Blend: AUG-CC-PVTZ     Number of shells: 157     Number of basis functions: 483     Number of Cartesian functions: 565     Spherical Harmonics?: true     Max angular momentum: 3
  Basis Set: (AUG-CC-PVTZ AUX)
    Blend: AUG-CC-PVTZ-JKFIT

    Orbital Energies [Eh]
    ---------------------

    Doubly Occupied:

       1A    -20.515106     2A    -15.641640     3A    -15.625160
       4A    -15.550129     5A    -11.382854     6A    -11.381405
       7A    -11.310263     8A    -11.237506     9A     -1.398785
      10A     -1.329956    11A     -1.241248    12A     -1.206988
      13A     -1.054474    14A     -0.908782    15A     -0.893390
      16A     -0.779734    17A     -0.751715    18A     -0.712096
      19A     -0.689536    20A     -0.650356    21A     -0.632312
      22A     -0.622559    23A     -0.574945    24A     -0.544732
      25A     -0.464103    26A     -0.455329    27A     -0.452071
      28A     -0.418448    29A     -0.327919

  @DF-RHF Final Energy:  -392.74835726821715

   => Energetics <=

    Nuclear Repulsion Energy =            355.3951122935256421
    One-Electron Energy =               -1238.7798655550320746
    Two-Electron Energy =                 490.6363959932892271
    Total Energy =                       -392.7483572682171484
  Basis Set: (AUG-CC-PVTZ AUX)
    Blend: AUG-CC-PVTZ-RI
    Molecular point group: c1

    Geometry (in Angstrom), charge = 0, multiplicity = 1:

       Center              X                  Y                   Z               Mass
    ------------   -----------------  -----------------  -----------------  -----------------
         O            2.167858168599    -1.156076115947     0.002256520839    15.994914619570
         N           -0.094708831401    -0.900338115947     0.002842520839    14.003074004430
         N           -2.428623831401    -0.858228115947    -0.074136479161    14.003074004430
         N            1.326281168599     1.011688884053     0.013562520839    14.003074004430
         C           -1.194886831401    -0.192456815947     0.004559920839    12.000000000000
         C           -1.108114831401     1.205222884053     0.004469520839    12.000000000000
         C            1.227489168599    -0.370713115947     0.007587520839    12.000000000000
         C            0.209221168599     1.712545884053     0.006042520839    12.000000000000
         H           -0.128860831401    -1.914475115947    -0.064202479161     1.007825032230
         H           -1.972532831401     1.857840884053     0.016123520839     1.007825032230
         H            0.342638168599     2.795507884053     0.008284520839     1.007825032230
         H           -3.247819831401    -0.297652115947     0.130717520839     1.007825032230
         H           -2.451871831401    -1.751884115947     0.405602520839     1.007825032230

  Basis Set: AUG-CC-PVTZ
    Blend: AUG-CC-PVTZ
  Basis Set: (AUG-CC-PVTZ AUX)
    Blend: AUG-CC-PVTZ-JKFIT
	 Reference Energy          =    -392.7483572682171484 [Eh]
	 Singles Energy            =      -0.0000000000000000 [Eh]
	 Same-Spin Energy          =      -0.4068820219194754 [Eh]
	 Opposite-Spin Energy      =      -1.2146468016410474 [Eh]
	 Correlation Energy        =      -1.6215288235605230 [Eh]
	 Total Energy              =    -394.3698860917776869 [Eh]

	 ================> DF-SCS-MP2 Energies <==================
	-----------------------------------------------------------
	 SCS Same-Spin Scale       =       0.3333333333333333 [-]
	 SCS Opposite-Spin Scale   =       1.2000000000000000 [-]
	 SCS Same-Spin Energy      =      -0.1356273406398251 [Eh]
	 SCS Opposite-Spin Energy  =      -1.4575761619692569 [Eh]
	 SCS Correlation Energy    =      -1.5932035026090821 [Eh]
	 SCS Total Energy          =    -394.3415607708262201 [Eh]
	-----------------------------------------------------------

  Dipole Moment: [D]
     X:    -7.4619      Y:    -0.5370      Z:     0.8644     Total:     7.5310

*** Psi4 exiting successfully. Buy a developer a beer!
