                               Psi4 1.3.2 release

  ==> Input File <==

--------------------------------------------------------------------------
#psi4
#
memory 32 gb

molecule  {
0 1
  O       -2.2334690    -1.1675340     0.0001340
  N        0.0265130    -0.9084710    -0.0000270
  N        2.3544690    -0.8475160    -0.0005320
  N       -1.3973450     1.0028810     0.0002180
  C        1.1706060    -0.1768690    -0.0001310
  C        1.0385970     1.1986830    -0.0000890
  C       -1.1123622    -0.4498221     0.0001286
  C       -0.2757380     1.7018570     0.0000510
  H        0.0506260    -1.9247470    -0.0002200
  H        1.9024710     1.8518520    -0.0001620
  H       -0.4079780     2.7850560     0.0002120
  H        3.2235170    -0.3366370     0.0005700
  H        2.4001700    -1.8548790     0.0010060
units angstrom
no_reorient  #important for SAPT in psi4, default
symmetry c1  #important for SAPT in psi4, default
}

set PROPERTIES_ORIGIN ["COM"]
properties('MP2/aug-cc-pvtz', properties = ['dipole'])
--------------------------------------------------------------------------

    Molecular point group: c1
  Charge       = 0
  Multiplicity = 1
  Basis Set: AUG-CC-PVTZ
    Blend: AUG-CC-PVTZ
  Basis Set: (AUG-CC-PVTZ AUX)
    Blend: AUG-CC-PVTZ-JKFIT

    Orbital Energies [Eh]
    ---------------------

    Doubly Occupied:

       1A    -20.483311     2A    -15.658342     3A    -15.637986
       4A    -15.562677     5A    -11.393714     6A    -11.367981
       7A    -11.302427     8A    -11.244362     9A     -1.416886
      10A     -1.296762    11A     -1.238287    12A     -1.207059
      13A     -1.064524    14A     -0.942310    15A     -0.903363
      16A     -0.807750    17A     -0.754227    18A     -0.745592
      19A     -0.689477    20A     -0.672364    21A     -0.645224
      22A     -0.603027    23A     -0.544169    24A     -0.530079
      25A     -0.470732    26A     -0.440535    27A     -0.419056
      28A     -0.399843    29A     -0.325471

  @DF-RHF Final Energy:  -392.69349824557315

   => Energetics <=

    Nuclear Repulsion Energy =            356.4667992740842237
    One-Electron Energy =               -1240.7855188941439337
    Two-Electron Energy =                 491.6252213744865571
    Total Energy =                       -392.6934982455731529
  Basis Set: (AUG-CC-PVTZ AUX)
    Blend: AUG-CC-PVTZ-RI
    Molecular point group: c1

    Geometry (in Angstrom), charge = 0, multiplicity = 1:

       Center              X                  Y                   Z               Mass
    ------------   -----------------  -----------------  -----------------  -----------------
         O           -2.189593591090    -1.154840750451     0.000149305095    15.994914619570
         N            0.070388408910    -0.895777750451    -0.000011694905    14.003074004430
         N            2.398344408910    -0.834822750451    -0.000516694905    14.003074004430
         N           -1.353469591090     1.015574249549     0.000233305095    14.003074004430
         C            1.214481408910    -0.164175750451    -0.000115694905    12.000000000000
         C            1.082472408910     1.211376249549    -0.000073694905    12.000000000000
         C           -1.068486791090    -0.437128850451     0.000143905095    12.000000000000
         C           -0.231862591090     1.714550249549     0.000066305095    12.000000000000
         H            0.094501408910    -1.912053750451    -0.000204694905     1.007825032230
         H            1.946346408910     1.864545249549    -0.000146694905     1.007825032230
         H           -0.364102591090     2.797749249549     0.000227305095     1.007825032230
         H            3.267392408910    -0.323943750451     0.000585305095     1.007825032230
         H            2.444045408910    -1.842185750451     0.001021305095     1.007825032230

  Basis Set: AUG-CC-PVTZ
    Blend: AUG-CC-PVTZ
  Basis Set: (AUG-CC-PVTZ AUX)
    Blend: AUG-CC-PVTZ-JKFIT
	 Reference Energy          =    -392.6934982455731529 [Eh]
	 Singles Energy            =      -0.0000000000000000 [Eh]
	 Same-Spin Energy          =      -0.4096288375439627 [Eh]
	 Opposite-Spin Energy      =      -1.2210775719175169 [Eh]
	 Correlation Energy        =      -1.6307064094614796 [Eh]
	 Total Energy              =    -394.3242046550346345 [Eh]

	 ================> DF-SCS-MP2 Energies <==================
	-----------------------------------------------------------
	 SCS Same-Spin Scale       =       0.3333333333333333 [-]
	 SCS Opposite-Spin Scale   =       1.2000000000000000 [-]
	 SCS Same-Spin Energy      =      -0.1365429458479876 [Eh]
	 SCS Opposite-Spin Energy  =      -1.4652930863010203 [Eh]
	 SCS Correlation Energy    =      -1.6018360321490079 [Eh]
	 SCS Total Energy          =    -394.2953342777221337 [Eh]
	-----------------------------------------------------------

  Dipole Moment: [D]
     X:     9.2585      Y:    -0.5970      Z:     0.0030     Total:     9.2778

*** Psi4 exiting successfully. Buy a developer a beer!
