                               Psi4 1.3.2 release

  ==> Input File <==

--------------------------------------------------------------------------
#psi4
#
memory 32 gb

molecule  {
0 1
  O       -2.2334690    -1.1675340     0.0001340
  N        0.0016774    -0.8680971    -0.0000132
  N        2.3544690    -0.8475160    -0.0005320
  N       -1.3973450     1.0028810     0.0002180
  C        1.1706060    -0.1768690    -0.0001310
  C        1.0385970     1.1986830    -0.0000890
  C       -1.2978830    -0.3751090     0.0001540
  C       -0.2757380     1.7018570     0.0000510
  H        0.0506260    -1.9247470    -0.0002200
  H        1.9024710     1.8518520    -0.0001620
  H       -0.4079780     2.7850560     0.0002120
  H        3.2235170    -0.3366370     0.0005700
  H        2.4001700    -1.8548790     0.0010060
units angstrom
no_reorient  #important for SAPT in psi4, default
symmetry c1  #important for SAPT in psi4, default
}

set PROPERTIES_ORIGIN ["COM"]
properties('MP2/aug-cc-pvtz', properties = ['dipole'])
--------------------------------------------------------------------------

    Molecular point group: c1
  Charge       = 0
  Multiplicity = 1
  Basis Set: AUG-CC-PVTZ
    Blend: AUG-CC-PVTZ
  Basis Set: (AUG-CC-PVTZ AUX)
    Blend: AUG-CC-PVTZ-JKFIT

    Orbital Energies [Eh]
    ---------------------

    Doubly Occupied:

       1A    -20.505707     2A    -15.636607     3A    -15.631713
       4A    -15.544135     5A    -11.384898     6A    -11.371801
       7A    -11.307205     8A    -11.232644     9A     -1.391404
      10A     -1.323043    11A     -1.246265    12A     -1.197743
      13A     -1.059027    14A     -0.907857    15A     -0.890526
      16A     -0.784262    17A     -0.751683    18A     -0.721778
      19A     -0.690260    20A     -0.643051    21A     -0.634501
      22A     -0.619494    23A     -0.565537    24A     -0.548855
      25A     -0.459454    26A     -0.445661    27A     -0.442125
      28A     -0.414201    29A     -0.325400

  @DF-RHF Final Energy:  -392.74748434492182

   => Energetics <=

    Nuclear Repulsion Energy =            355.9282948332773344
    One-Electron Energy =               -1239.9978829926317303
    Two-Electron Energy =                 491.3221038144326371
    Total Energy =                       -392.7474843449218156
  Basis Set: (AUG-CC-PVTZ AUX)
    Blend: AUG-CC-PVTZ-RI
    Molecular point group: c1

    Geometry (in Angstrom), charge = 0, multiplicity = 1:

       Center              X                  Y                   Z               Mass
    ------------   -----------------  -----------------  -----------------  -----------------
         O           -2.166413217034    -1.168006032935     0.000144819974    15.994914619570
         N            0.068733182966    -0.868569132935    -0.000002380026    14.003074004430
         N            2.421524782966    -0.847988032935    -0.000521180026    14.003074004430
         N           -1.330289217034     1.002408967065     0.000228819974    14.003074004430
         C            1.237661782966    -0.177341032935    -0.000120180026    12.000000000000
         C            1.105652782966     1.198210967065    -0.000078180026    12.000000000000
         C           -1.230827217034    -0.375581032935     0.000164819974    12.000000000000
         C           -0.208682217034     1.701384967065     0.000061819974    12.000000000000
         H            0.117681782966    -1.925219032935    -0.000209180026     1.007825032230
         H            1.969526782966     1.851379967065    -0.000151180026     1.007825032230
         H           -0.340922217034     2.784583967065     0.000222819974     1.007825032230
         H            3.290572782966    -0.337109032935     0.000580819974     1.007825032230
         H            2.467225782966    -1.855351032935     0.001016819974     1.007825032230

  Basis Set: AUG-CC-PVTZ
    Blend: AUG-CC-PVTZ
  Basis Set: (AUG-CC-PVTZ AUX)
    Blend: AUG-CC-PVTZ-JKFIT
	 Reference Energy          =    -392.7474843449218156 [Eh]
	 Singles Energy            =      -0.0000000000000000 [Eh]
	 Same-Spin Energy          =      -0.4074396637855435 [Eh]
	 Opposite-Spin Energy      =      -1.2147680816893403 [Eh]
	 Correlation Energy        =      -1.6222077454748838 [Eh]
	 Total Energy              =    -394.3696920903967111 [Eh]

	 ================> DF-SCS-MP2 Energies <==================
	-----------------------------------------------------------
	 SCS Same-Spin Scale       =       0.3333333333333333 [-]
	 SCS Opposite-Spin Scale   =       1.2000000000000000 [-]
	 SCS Same-Spin Energy      =      -0.1358132212618478 [Eh]
	 SCS Opposite-Spin Energy  =      -1.4577216980272083 [Eh]
	 SCS Correlation Energy    =      -1.5935349192890560 [Eh]
	 SCS Total Energy          =    -394.3410192642108996 [Eh]
	-----------------------------------------------------------

  Dipole Moment: [D]
     X:     8.2936      Y:    -0.8985      Z:     0.0030     Total:     8.3422

*** Psi4 exiting successfully. Buy a developer a beer!
