                               Psi4 1.3.2 release

  ==> Input File <==

--------------------------------------------------------------------------
#psi4
#
memory 32 gb

molecule  {
0 1
  O       -2.2334690    -1.1675340     0.0001340
  N       -0.0139186    -0.9995570    -0.0000255
  N        2.3544690    -0.8475160    -0.0005320
  N       -1.3973450     1.0028810     0.0002180
  C        1.1706060    -0.1768690    -0.0001310
  C        1.0385970     1.1986830    -0.0000890
  C       -1.2978830    -0.3751090     0.0001540
  C       -0.2757380     1.7018570     0.0000510
  H        0.0506260    -1.9247470    -0.0002200
  H        1.9024710     1.8518520    -0.0001620
  H       -0.4079780     2.7850560     0.0002120
  H        3.2235170    -0.3366370     0.0005700
  H        2.4001700    -1.8548790     0.0010060
units angstrom
no_reorient  #important for SAPT in psi4, default
symmetry c1  #important for SAPT in psi4, default
}

set PROPERTIES_ORIGIN ["COM"]
properties('MP2/aug-cc-pvtz', properties = ['dipole'])
--------------------------------------------------------------------------

    Molecular point group: c1
  Charge       = 0
  Multiplicity = 1
  Basis Set: AUG-CC-PVTZ
    Blend: AUG-CC-PVTZ
  Basis Set: (AUG-CC-PVTZ AUX)
    Blend: AUG-CC-PVTZ-JKFIT

    Orbital Energies [Eh]
    ---------------------

    Doubly Occupied:

       1A    -20.502602     2A    -15.630669     3A    -15.621710
       4A    -15.550004     5A    -11.391090     6A    -11.372606
       7A    -11.313562     8A    -11.237706     9A     -1.383634
      10A     -1.311623    11A     -1.239618    12A     -1.201056
      13A     -1.059686    14A     -0.917231    15A     -0.869973
      16A     -0.784619    17A     -0.760515    18A     -0.731346
      19A     -0.687289    20A     -0.639848    21A     -0.627183
      22A     -0.620288    23A     -0.567614    24A     -0.546984
      25A     -0.463436    26A     -0.445176    27A     -0.434249
      28A     -0.416090    29A     -0.328853

  @DF-RHF Final Energy:  -392.73707594497063

   => Energetics <=

    Nuclear Repulsion Energy =            353.7044074487944840
    One-Electron Energy =               -1235.5704481231850878
    Two-Electron Energy =                 489.1289647294200336
    Total Energy =                       -392.7370759449706270
  Basis Set: (AUG-CC-PVTZ AUX)
    Blend: AUG-CC-PVTZ-RI
    Molecular point group: c1

    Geometry (in Angstrom), charge = 0, multiplicity = 1:

       Center              X                  Y                   Z               Mass
    ------------   -----------------  -----------------  -----------------  -----------------
         O           -2.164446488584    -1.151428325485     0.000146371062    15.994914619570
         N            0.055103911416    -0.983451325485    -0.000013128938    14.003074004430
         N            2.423491511416    -0.831410325485    -0.000519628938    14.003074004430
         N           -1.328322488584     1.018986674515     0.000230371062    14.003074004430
         C            1.239628511416    -0.160763325485    -0.000118628938    12.000000000000
         C            1.107619511416     1.214788674515    -0.000076628938    12.000000000000
         C           -1.228860488584    -0.359003325485     0.000166371062    12.000000000000
         C           -0.206715488584     1.717962674515     0.000063371062    12.000000000000
         H            0.119648511416    -1.908641325485    -0.000207628938     1.007825032230
         H            1.971493511416     1.867957674515    -0.000149628938     1.007825032230
         H           -0.338955488584     2.801161674515     0.000224371062     1.007825032230
         H            3.292539511416    -0.320531325485     0.000582371062     1.007825032230
         H            2.469192511416    -1.838773325485     0.001018371062     1.007825032230

  Basis Set: AUG-CC-PVTZ
    Blend: AUG-CC-PVTZ
  Basis Set: (AUG-CC-PVTZ AUX)
    Blend: AUG-CC-PVTZ-JKFIT
	 Reference Energy          =    -392.7370759449706270 [Eh]
	 Singles Energy            =      -0.0000000000000000 [Eh]
	 Same-Spin Energy          =      -0.4055992945452659 [Eh]
	 Opposite-Spin Energy      =      -1.2135528093599495 [Eh]
	 Correlation Energy        =      -1.6191521039052152 [Eh]
	 Total Energy              =    -394.3562280488758347 [Eh]

	 ================> DF-SCS-MP2 Energies <==================
	-----------------------------------------------------------
	 SCS Same-Spin Scale       =       0.3333333333333333 [-]
	 SCS Opposite-Spin Scale   =       1.2000000000000000 [-]
	 SCS Same-Spin Energy      =      -0.1351997648484219 [Eh]
	 SCS Opposite-Spin Energy  =      -1.4562633712319393 [Eh]
	 SCS Correlation Energy    =      -1.5914631360803613 [Eh]
	 SCS Total Energy          =    -394.3285390810509625 [Eh]
	-----------------------------------------------------------

  Dipole Moment: [D]
     X:     8.2571      Y:    -0.5894      Z:     0.0030     Total:     8.2781

*** Psi4 exiting successfully. Buy a developer a beer!
