                               Psi4 1.4a3.dev225

  ==> Input File <==

--------------------------------------------------------------------------
#psi4
#
memory 32 gb

molecule  {
0 1
  O        2.2358750    -1.1647400    -0.0019990
  N       -0.0266920    -0.9090020    -0.0014130
  N       -2.3606070    -0.8668920    -0.0783920
  N        1.3942980     1.0030250     0.0093070
  C       -1.1689180    -0.1740660     0.0003700
  C       -1.0400980     1.1965590     0.0002140
  C        1.2955060    -0.3793770     0.0033320
  C        0.3238975     1.7218512     0.0018427
  H       -0.0608440    -1.9231390    -0.0684580
  H       -1.9045160     1.8491770     0.0118680
  H        0.4106550     2.7868440     0.0040290
  H       -3.1798030    -0.3063160     0.1264620
  H       -2.3838550    -1.7605480     0.4013470
units angstrom
no_reorient  #important for SAPT in psi4, default
symmetry c1  #important for SAPT in psi4, default
}

set PROPERTIES_ORIGIN ["COM"]
properties('MP2/aug-cc-pvtz', properties = ['dipole'])
--------------------------------------------------------------------------

    Molecular point group: c1
  Charge       = 0
  Multiplicity = 1
  Basis Set: AUG-CC-PVTZ
    Blend: AUG-CC-PVTZ
  Basis Set: (AUG-CC-PVTZ AUX)
    Blend: AUG-CC-PVTZ-JKFIT

    Orbital Energies [Eh]
    ---------------------

    Doubly Occupied:

       1A    -20.517320     2A    -15.631739     3A    -15.622368
       4A    -15.554791     5A    -11.383535     6A    -11.375394
       7A    -11.314209     8A    -11.237033     9A     -1.394030
      10A     -1.321064    11A     -1.248684    12A     -1.205211
      13A     -1.049801    14A     -0.911091    15A     -0.883430
      16A     -0.771598    17A     -0.749490    18A     -0.717300
      19A     -0.690121    20A     -0.644083    21A     -0.628157
      22A     -0.622134    23A     -0.581996    24A     -0.547985
      25A     -0.466296    26A     -0.453585    27A     -0.448353
      28A     -0.418224    29A     -0.329974

  @DF-RHF Final Energy:  -392.74964458016069

   => Energetics <=

    Nuclear Repulsion Energy =            354.6522602181881325
    One-Electron Energy =               -1237.3658124514233805
    Two-Electron Energy =                 489.9639076530746138
    Total Energy =                       -392.7496445801606910
  Basis Set: (AUG-CC-PVTZ AUX)
    Blend: AUG-CC-PVTZ-RI
    Molecular point group: c1

    Geometry (in Angstrom), charge = 0, multiplicity = 1:

       Center              X                  Y                   Z               Mass
    ------------   -----------------  -----------------  -----------------  -----------------
         O            2.167359822287    -1.160941668267     0.002243412434    15.994914619570
         N           -0.095207177713    -0.905203668267     0.002829412434    14.003074004430
         N           -2.429122177713    -0.863093668267    -0.074149587566    14.003074004430
         N            1.325782822287     1.006823331733     0.013549412434    14.003074004430
         C           -1.237433177713    -0.170267668267     0.004612412434    12.000000000000
         C           -1.108613177713     1.200357331733     0.004456412434    12.000000000000
         C            1.226990822287    -0.375578668267     0.007574412434    12.000000000000
         C            0.255382322287     1.725649531733     0.006085112434    12.000000000000
         H           -0.129359177713    -1.919340668267    -0.064215587566     1.007825032230
         H           -1.973031177713     1.852975331733     0.016110412434     1.007825032230
         H            0.342139822287     2.790642331733     0.008271412434     1.007825032230
         H           -3.248318177713    -0.302517668267     0.130704412434     1.007825032230
         H           -2.452370177713    -1.756749668267     0.405589412434     1.007825032230

  Basis Set: AUG-CC-PVTZ
    Blend: AUG-CC-PVTZ
  Basis Set: (AUG-CC-PVTZ AUX)
    Blend: AUG-CC-PVTZ-JKFIT
	 Reference Energy          =    -392.7496445801606910 [Eh]
	 Singles Energy            =      -0.0000000000000000 [Eh]
	 Same-Spin Energy          =      -0.4060232187524647 [Eh]
	 Opposite-Spin Energy      =      -1.2143143017240039 [Eh]
	 Correlation Energy        =      -1.6203375204764685 [Eh]
	 Total Energy              =    -394.3699821006371735 [Eh]

	 ================> DF-SCS-MP2 Energies <==================
	-----------------------------------------------------------
	 SCS Same-Spin Scale       =       0.3333333333333333 [-]
	 SCS Opposite-Spin Scale   =       1.2000000000000000 [-]
	 SCS Same-Spin Energy      =      -0.1353410729174882 [Eh]
	 SCS Opposite-Spin Energy  =      -1.4571771620688045 [Eh]
	 SCS Correlation Energy    =      -1.5925182349862927 [Eh]
	 SCS Total Energy          =    -394.3421628151469918 [Eh]
	-----------------------------------------------------------

  Dipole Moment: [D]
     X:    -7.2743      Y:    -0.3171      Z:     0.8625     Total:     7.3321

*** Psi4 exiting successfully. Buy a developer a beer!
