                               Psi4 1.3.2 release

  ==> Input File <==

--------------------------------------------------------------------------
#psi4
#
memory 32 gb

molecule  {
0 1
  O       -2.2334690    -1.1675340     0.0001340
  N        0.0265130    -0.9084710    -0.0000270
  N        2.2778820    -0.9675895    -0.0005057
  N       -1.3973450     1.0028810     0.0002180
  C        1.1706060    -0.1768690    -0.0001310
  C        1.0385970     1.1986830    -0.0000890
  C       -1.2978830    -0.3751090     0.0001540
  C       -0.2757380     1.7018570     0.0000510
  H        0.0506260    -1.9247470    -0.0002200
  H        1.9024710     1.8518520    -0.0001620
  H       -0.4079780     2.7850560     0.0002120
  H        3.2235170    -0.3366370     0.0005700
  H        2.4001700    -1.8548790     0.0010060
units angstrom
no_reorient  #important for SAPT in psi4, default
symmetry c1  #important for SAPT in psi4, default
}

set PROPERTIES_ORIGIN ["COM"]
properties('MP2/aug-cc-pvtz', properties = ['dipole'])
--------------------------------------------------------------------------

    Molecular point group: c1
  Charge       = 0
  Multiplicity = 1
  Basis Set: AUG-CC-PVTZ
    Blend: AUG-CC-PVTZ
  Basis Set: (AUG-CC-PVTZ AUX)
    Blend: AUG-CC-PVTZ-JKFIT

    Orbital Energies [Eh]
    ---------------------

    Doubly Occupied:

       1A    -20.508406     2A    -15.627868     3A    -15.626975
       4A    -15.547515     5A    -11.387045     6A    -11.373996
       7A    -11.311878     8A    -11.237899     9A     -1.388406
      10A     -1.326507    11A     -1.243193    12A     -1.196153
      13A     -1.063692    14A     -0.918368    15A     -0.882020
      16A     -0.805913    17A     -0.745420    18A     -0.717896
      19A     -0.664310    20A     -0.641946    21A     -0.638754
      22A     -0.620974    23A     -0.570536    24A     -0.547651
      25A     -0.461843    26A     -0.447606    27A     -0.438516
      28A     -0.415545    29A     -0.328858

  @DF-RHF Final Energy:  -392.71867586575814

   => Energetics <=

    Nuclear Repulsion Energy =            355.5826730253134542
    One-Electron Energy =               -1239.2313146955350476
    Two-Electron Energy =                 490.9299658044635066
    Total Energy =                       -392.7186758657581436
  Basis Set: (AUG-CC-PVTZ AUX)
    Blend: AUG-CC-PVTZ-RI
    Molecular point group: c1

    Geometry (in Angstrom), charge = 0, multiplicity = 1:

       Center              X                  Y                   Z               Mass
    ------------   -----------------  -----------------  -----------------  -----------------
         O           -2.159887123759    -1.147772866332     0.000143243666    15.994914619570
         N            0.100094876241    -0.888709866332    -0.000017756334    14.003074004430
         N            2.351463876241    -0.947828366332    -0.000496456334    14.003074004430
         N           -1.323763123759     1.022642133668     0.000227243666    14.003074004430
         C            1.244187876241    -0.157107866332    -0.000121756334    12.000000000000
         C            1.112178876241     1.218444133668    -0.000079756334    12.000000000000
         C           -1.224301123759    -0.355347866332     0.000163243666    12.000000000000
         C           -0.202156123759     1.721618133668     0.000060243666    12.000000000000
         H            0.124207876241    -1.904985866332    -0.000210756334     1.007825032230
         H            1.976052876241     1.871613133668    -0.000152756334     1.007825032230
         H           -0.334396123759     2.804817133668     0.000221243666     1.007825032230
         H            3.297098876241    -0.316875866332     0.000579243666     1.007825032230
         H            2.473751876241    -1.835117866332     0.001015243666     1.007825032230

  Basis Set: AUG-CC-PVTZ
    Blend: AUG-CC-PVTZ
  Basis Set: (AUG-CC-PVTZ AUX)
    Blend: AUG-CC-PVTZ-JKFIT
	 Reference Energy          =    -392.7186758657581436 [Eh]
	 Singles Energy            =      -0.0000000000000000 [Eh]
	 Same-Spin Energy          =      -0.4072812213470839 [Eh]
	 Opposite-Spin Energy      =      -1.2157062646972268 [Eh]
	 Correlation Energy        =      -1.6229874860443108 [Eh]
	 Total Energy              =    -394.3416633518024810 [Eh]

	 ================> DF-SCS-MP2 Energies <==================
	-----------------------------------------------------------
	 SCS Same-Spin Scale       =       0.3333333333333333 [-]
	 SCS Opposite-Spin Scale   =       1.2000000000000000 [-]
	 SCS Same-Spin Energy      =      -0.1357604071156946 [Eh]
	 SCS Opposite-Spin Energy  =      -1.4588475176366720 [Eh]
	 SCS Correlation Energy    =      -1.5946079247523666 [Eh]
	 SCS Total Energy          =    -394.3132837905105248 [Eh]
	-----------------------------------------------------------

  Dipole Moment: [D]
     X:     8.1097      Y:    -0.6775      Z:     0.0031     Total:     8.1380

*** Psi4 exiting successfully. Buy a developer a beer!
