                               Psi4 1.3.2 release

  ==> Input File <==

--------------------------------------------------------------------------
#psi4
#
memory 32 gb

molecule  {
0 1
  O       -2.2334690    -1.1675340     0.0001340
  N        0.0265130    -0.9084710    -0.0000270
  N        2.3544690    -0.8475160    -0.0005320
  N       -1.4093730     1.0225622     0.0002186
  C        1.1706060    -0.1768690    -0.0001310
  C        1.0385970     1.1986830    -0.0000890
  C       -1.2978830    -0.3751090     0.0001540
  C       -0.2757380     1.7018570     0.0000510
  H        0.0506260    -1.9247470    -0.0002200
  H        1.9024710     1.8518520    -0.0001620
  H       -0.4079780     2.7850560     0.0002120
  H        3.2235170    -0.3366370     0.0005700
  H        2.4001700    -1.8548790     0.0010060
units angstrom
no_reorient  #important for SAPT in psi4, default
symmetry c1  #important for SAPT in psi4, default
}

set PROPERTIES_ORIGIN ["COM"]
properties('MP2/aug-cc-pvtz', properties = ['dipole'])
--------------------------------------------------------------------------

    Molecular point group: c1
  Charge       = 0
  Multiplicity = 1
  Basis Set: AUG-CC-PVTZ
    Blend: AUG-CC-PVTZ
  Basis Set: (AUG-CC-PVTZ AUX)
    Blend: AUG-CC-PVTZ-JKFIT

    Orbital Energies [Eh]
    ---------------------

    Doubly Occupied:

       1A    -20.511833     2A    -15.633077     3A    -15.628982
       4A    -15.548776     5A    -11.384084     6A    -11.378099
       7A    -11.307183     8A    -11.232180     9A     -1.388905
      10A     -1.323912    11A     -1.241335    12A     -1.198384
      13A     -1.056303    14A     -0.906968    15A     -0.883355
      16A     -0.784722    17A     -0.751149    18A     -0.722471
      19A     -0.689413    20A     -0.638185    21A     -0.636436
      22A     -0.620842    23A     -0.567334    24A     -0.547170
      25A     -0.460821    26A     -0.450964    27A     -0.442561
      28A     -0.415783    29A     -0.325311

  @DF-RHF Final Energy:  -392.75007481752021

   => Energetics <=

    Nuclear Repulsion Energy =            354.6491969648438385
    One-Electron Energy =               -1237.4454683887215651
    Two-Electron Energy =                 490.0461966063574550
    Total Energy =                       -392.7500748175202148
  Basis Set: (AUG-CC-PVTZ AUX)
    Blend: AUG-CC-PVTZ-RI
    Molecular point group: c1

    Geometry (in Angstrom), charge = 0, multiplicity = 1:

       Center              X                  Y                   Z               Mass
    ------------   -----------------  -----------------  -----------------  -----------------
         O           -2.168028315219    -1.165396586808     0.000146484556    15.994914619570
         N            0.091953684781    -0.906333586808    -0.000014515444    14.003074004430
         N            2.419909684781    -0.845378586808    -0.000519515444    14.003074004430
         N           -1.343932315219     1.024699613192     0.000231084556    14.003074004430
         C            1.236046684781    -0.174731586808    -0.000118515444    12.000000000000
         C            1.104037684781     1.200820413192    -0.000076515444    12.000000000000
         C           -1.232442315219    -0.372971586808     0.000166484556    12.000000000000
         C           -0.210297315219     1.703994413192     0.000063484556    12.000000000000
         H            0.116066684781    -1.922609586808    -0.000207515444     1.007825032230
         H            1.967911684781     1.853989413192    -0.000149515444     1.007825032230
         H           -0.342537315219     2.787193413192     0.000224484556     1.007825032230
         H            3.288957684781    -0.334499586808     0.000582484556     1.007825032230
         H            2.465610684781    -1.852741586808     0.001018484556     1.007825032230

  Basis Set: AUG-CC-PVTZ
    Blend: AUG-CC-PVTZ
  Basis Set: (AUG-CC-PVTZ AUX)
    Blend: AUG-CC-PVTZ-JKFIT
	 Reference Energy          =    -392.7500748175202148 [Eh]
	 Singles Energy            =      -0.0000000000000000 [Eh]
	 Same-Spin Energy          =      -0.4068003072985468 [Eh]
	 Opposite-Spin Energy      =      -1.2145616734239240 [Eh]
	 Correlation Energy        =      -1.6213619807224706 [Eh]
	 Total Energy              =    -394.3714367982427120 [Eh]

	 ================> DF-SCS-MP2 Energies <==================
	-----------------------------------------------------------
	 SCS Same-Spin Scale       =       0.3333333333333333 [-]
	 SCS Opposite-Spin Scale   =       1.2000000000000000 [-]
	 SCS Same-Spin Energy      =      -0.1356001024328489 [Eh]
	 SCS Opposite-Spin Energy  =      -1.4574740081087088 [Eh]
	 SCS Correlation Energy    =      -1.5930741105415578 [Eh]
	 SCS Total Energy          =    -394.3431489280617939 [Eh]
	-----------------------------------------------------------

  Dipole Moment: [D]
     X:     8.1012      Y:    -0.9510      Z:     0.0030     Total:     8.1569

*** Psi4 exiting successfully. Buy a developer a beer!
