                               Psi4 1.4a3.dev225

  ==> Input File <==

--------------------------------------------------------------------------
#psi4
#
memory 32 gb

molecule  {
0 1
  O        2.2358750    -1.1647400    -0.0019990
  N       -0.0266920    -0.9090020    -0.0014130
  N       -2.3606070    -0.8668920    -0.0783920
  N        1.3942980     1.0030250     0.0093070
  C       -1.1689180    -0.1740660     0.0003700
  C       -1.0354193     1.2463396     0.0002083
  C        1.2955060    -0.3793770     0.0033320
  C        0.2772380     1.7038820     0.0017870
  H       -0.0608440    -1.9231390    -0.0684580
  H       -1.9045160     1.8491770     0.0118680
  H        0.4106550     2.7868440     0.0040290
  H       -3.1798030    -0.3063160     0.1264620
  H       -2.3838550    -1.7605480     0.4013470
units angstrom
no_reorient  #important for SAPT in psi4, default
symmetry c1  #important for SAPT in psi4, default
}

set PROPERTIES_ORIGIN ["COM"]
properties('MP2/aug-cc-pvtz', properties = ['dipole'])
--------------------------------------------------------------------------

    Molecular point group: c1
  Charge       = 0
  Multiplicity = 1
  Basis Set: AUG-CC-PVTZ
    Blend: AUG-CC-PVTZ
  Basis Set: (AUG-CC-PVTZ AUX)
    Blend: AUG-CC-PVTZ-JKFIT

    Orbital Energies [Eh]
    ---------------------

    Doubly Occupied:

       1A    -20.511439     2A    -15.638631     3A    -15.632564
       4A    -15.547151     5A    -11.391636     6A    -11.377681
       7A    -11.307355     8A    -11.239019     9A     -1.391247
      10A     -1.324264    11A     -1.244817    12A     -1.202150
      13A     -1.056593    14A     -0.907841    15A     -0.885796
      16A     -0.778023    17A     -0.752658    18A     -0.717917
      19A     -0.688208    20A     -0.650297    21A     -0.634738
      22A     -0.620931    23A     -0.568407    24A     -0.547571
      25A     -0.464532    26A     -0.451512    27A     -0.449164
      28A     -0.416595    29A     -0.327997

  @DF-RHF Final Energy:  -392.74738118897881

   => Energetics <=

    Nuclear Repulsion Energy =            354.3252859100260821
    One-Electron Energy =               -1236.6918556322125369
    Two-Electron Energy =                 489.6191885332076481
    Total Energy =                       -392.7473811889788067
  Basis Set: (AUG-CC-PVTZ AUX)
    Blend: AUG-CC-PVTZ-RI
    Molecular point group: c1

    Geometry (in Angstrom), charge = 0, multiplicity = 1:

       Center              X                  Y                   Z               Mass
    ------------   -----------------  -----------------  -----------------  -----------------
         O            2.171896518993    -1.164379398696     0.002250047686    15.994914619570
         N           -0.090670481007    -0.908641398696     0.002836047686    14.003074004430
         N           -2.424585481007    -0.866531398696    -0.074142952314    14.003074004430
         N            1.330319518993     1.003385601304     0.013556047686    14.003074004430
         C           -1.232896481007    -0.173705398696     0.004619047686    12.000000000000
         C           -1.099397781007     1.246700201304     0.004457347686    12.000000000000
         C            1.231527518993    -0.379016398696     0.007581047686    12.000000000000
         C            0.213259518993     1.704242601304     0.006036047686    12.000000000000
         H           -0.124822481007    -1.922778398696    -0.064208952314     1.007825032230
         H           -1.968494481007     1.849537601304     0.016117047686     1.007825032230
         H            0.346676518993     2.787204601304     0.008278047686     1.007825032230
         H           -3.243781481007    -0.305955398696     0.130711047686     1.007825032230
         H           -2.447833481007    -1.760187398696     0.405596047686     1.007825032230

  Basis Set: AUG-CC-PVTZ
    Blend: AUG-CC-PVTZ
  Basis Set: (AUG-CC-PVTZ AUX)
    Blend: AUG-CC-PVTZ-JKFIT
	 Reference Energy          =    -392.7473811889788067 [Eh]
	 Singles Energy            =      -0.0000000000000000 [Eh]
	 Same-Spin Energy          =      -0.4070069692107663 [Eh]
	 Opposite-Spin Energy      =      -1.2150759073450685 [Eh]
	 Correlation Energy        =      -1.6220828765558348 [Eh]
	 Total Energy              =    -394.3694640655346575 [Eh]

	 ================> DF-SCS-MP2 Energies <==================
	-----------------------------------------------------------
	 SCS Same-Spin Scale       =       0.3333333333333333 [-]
	 SCS Opposite-Spin Scale   =       1.2000000000000000 [-]
	 SCS Same-Spin Energy      =      -0.1356689897369221 [Eh]
	 SCS Opposite-Spin Energy  =      -1.4580910888140821 [Eh]
	 SCS Correlation Energy    =      -1.5937600785510042 [Eh]
	 SCS Total Energy          =    -394.3411412675297925 [Eh]
	-----------------------------------------------------------

  Dipole Moment: [D]
     X:    -7.8110      Y:    -0.5838      Z:     0.8574     Total:     7.8796

*** Psi4 exiting successfully. Buy a developer a beer!
