                               Psi4 1.4a3.dev225

  ==> Input File <==

--------------------------------------------------------------------------
#psi4
#
memory 32 gb

molecule  {
0 1
  O        2.2358750    -1.1647400    -0.0019990
  N       -0.0266920    -0.9090020    -0.0014130
  N       -2.3606070    -0.8668920    -0.0783920
  N        1.3942980     1.0030250     0.0093070
  C       -1.1689180    -0.1740660     0.0003700
  C       -1.0400980     1.1965590     0.0002140
  C        1.2955060    -0.3793770     0.0033320
  C        0.2941793     1.6932528     0.0019010
  H       -0.0608440    -1.9231390    -0.0684580
  H       -1.9045160     1.8491770     0.0118680
  H        0.4106550     2.7868440     0.0040290
  H       -3.1798030    -0.3063160     0.1264620
  H       -2.3838550    -1.7605480     0.4013470
units angstrom
no_reorient  #important for SAPT in psi4, default
symmetry c1  #important for SAPT in psi4, default
}

set PROPERTIES_ORIGIN ["COM"]
properties('MP2/aug-cc-pvtz', properties = ['dipole'])
--------------------------------------------------------------------------

    Molecular point group: c1
  Charge       = 0
  Multiplicity = 1
  Basis Set: AUG-CC-PVTZ
    Blend: AUG-CC-PVTZ
  Basis Set: (AUG-CC-PVTZ AUX)
    Blend: AUG-CC-PVTZ-JKFIT

    Orbital Energies [Eh]
    ---------------------

    Doubly Occupied:

       1A    -20.514775     2A    -15.633522     3A    -15.625292
       4A    -15.552813     5A    -11.380758     6A    -11.379168
       7A    -11.312303     8A    -11.236869     9A     -1.393175
      10A     -1.322751    11A     -1.247897    12A     -1.204742
      13A     -1.057567    14A     -0.907635    15A     -0.884891
      16A     -0.775097    17A     -0.750741    18A     -0.714697
      19A     -0.687945    20A     -0.645553    21A     -0.629694
      22A     -0.624314    23A     -0.574505    24A     -0.548174
      25A     -0.466745    26A     -0.453614    27A     -0.449047
      28A     -0.418756    29A     -0.331867

  @DF-RHF Final Energy:  -392.75148354418633

   => Energetics <=

    Nuclear Repulsion Energy =            355.1982449062970204
    One-Electron Energy =               -1238.4496413398019286
    Two-Electron Energy =                 490.4999128893185230
    Total Energy =                       -392.7514835441863283
  Basis Set: (AUG-CC-PVTZ AUX)
    Blend: AUG-CC-PVTZ-RI
    Molecular point group: c1

    Geometry (in Angstrom), charge = 0, multiplicity = 1:

       Center              X                  Y                   Z               Mass
    ------------   -----------------  -----------------  -----------------  -----------------
         O            2.170571348986    -1.157851153863     0.002237112187    15.994914619570
         N           -0.091995651014    -0.902113153863     0.002823112187    14.003074004430
         N           -2.425910651014    -0.860003153863    -0.074155887813    14.003074004430
         N            1.328994348986     1.009913846137     0.013543112187    14.003074004430
         C           -1.234221651014    -0.167177153863     0.004606112187    12.000000000000
         C           -1.105401651014     1.203447846137     0.004450112187    12.000000000000
         C            1.230202348986    -0.372488153863     0.007568112187    12.000000000000
         C            0.228875648986     1.700141646137     0.006137112187    12.000000000000
         H           -0.126147651014    -1.916250153863    -0.064221887813     1.007825032230
         H           -1.969819651014     1.856065846137     0.016104112187     1.007825032230
         H            0.345351348986     2.793732846137     0.008265112187     1.007825032230
         H           -3.245106651014    -0.299427153863     0.130698112187     1.007825032230
         H           -2.449158651014    -1.753659153863     0.405583112187     1.007825032230

  Basis Set: AUG-CC-PVTZ
    Blend: AUG-CC-PVTZ
  Basis Set: (AUG-CC-PVTZ AUX)
    Blend: AUG-CC-PVTZ-JKFIT
	 Reference Energy          =    -392.7514835441863283 [Eh]
	 Singles Energy            =      -0.0000000000000000 [Eh]
	 Same-Spin Energy          =      -0.4064395038600920 [Eh]
	 Opposite-Spin Energy      =      -1.2144698490674182 [Eh]
	 Correlation Energy        =      -1.6209093529275100 [Eh]
	 Total Energy              =    -394.3723928971138548 [Eh]

	 ================> DF-SCS-MP2 Energies <==================
	-----------------------------------------------------------
	 SCS Same-Spin Scale       =       0.3333333333333333 [-]
	 SCS Opposite-Spin Scale   =       1.2000000000000000 [-]
	 SCS Same-Spin Energy      =      -0.1354798346200307 [Eh]
	 SCS Opposite-Spin Energy  =      -1.4573638188809017 [Eh]
	 SCS Correlation Energy    =      -1.5928436535009323 [Eh]
	 SCS Total Energy          =    -394.3443271976872779 [Eh]
	-----------------------------------------------------------

  Dipole Moment: [D]
     X:    -7.4805      Y:    -0.4156      Z:     0.8620     Total:     7.5414

*** Psi4 exiting successfully. Buy a developer a beer!
