                               Psi4 1.3.2 release

  ==> Input File <==

--------------------------------------------------------------------------
#psi4
#
memory 32 gb

molecule  {
0 1
  O       -2.2334690    -1.1675340     0.0001340
  N        0.0265130    -0.9084710    -0.0000270
  N        2.3544690    -0.8475160    -0.0005320
  N       -1.3973450     1.0028810     0.0002180
  C        1.1706060    -0.1768690    -0.0001310
  C        1.0385970     1.1986830    -0.0000890
  C       -1.2978830    -0.3751090     0.0001540
  C       -0.2757380     1.7018570     0.0000510
  H        0.0482540    -1.8247751    -0.0002010
  H        1.9024710     1.8518520    -0.0001620
  H       -0.4079780     2.7850560     0.0002120
  H        3.2235170    -0.3366370     0.0005700
  H        2.4001700    -1.8548790     0.0010060
units angstrom
no_reorient  #important for SAPT in psi4, default
symmetry c1  #important for SAPT in psi4, default
}

set PROPERTIES_ORIGIN ["COM"]
properties('MP2/aug-cc-pvtz', properties = ['dipole'])
--------------------------------------------------------------------------

    Molecular point group: c1
  Charge       = 0
  Multiplicity = 1
  Basis Set: AUG-CC-PVTZ
    Blend: AUG-CC-PVTZ
  Basis Set: (AUG-CC-PVTZ AUX)
    Blend: AUG-CC-PVTZ-JKFIT

    Orbital Energies [Eh]
    ---------------------

    Doubly Occupied:

       1A    -20.510238     2A    -15.629776     3A    -15.622940
       4A    -15.545851     5A    -11.384846     6A    -11.376215
       7A    -11.309448     8A    -11.233004     9A     -1.392652
      10A     -1.326809    11A     -1.244560    12A     -1.207250
      13A     -1.060047    14A     -0.917654    15A     -0.885042
      16A     -0.796155    17A     -0.758237    18A     -0.730376
      19A     -0.692285    20A     -0.639917    21A     -0.638592
      22A     -0.621955    23A     -0.570971    24A     -0.548556
      25A     -0.461015    26A     -0.448447    27A     -0.443732
      28A     -0.415857    29A     -0.326225

  @DF-RHF Final Energy:  -392.74517010726998

   => Energetics <=

    Nuclear Repulsion Energy =            355.8506134671723657
    One-Electron Energy =               -1239.7142666589948021
    Two-Electron Energy =                 491.1184830845524516
    Total Energy =                       -392.7451701072699848
  Basis Set: (AUG-CC-PVTZ AUX)
    Blend: AUG-CC-PVTZ-RI
    Molecular point group: c1

    Geometry (in Angstrom), charge = 0, multiplicity = 1:

       Center              X                  Y                   Z               Mass
    ------------   -----------------  -----------------  -----------------  -----------------
         O           -2.169523574008    -1.163822037268     0.000146387776    15.994914619570
         N            0.090458425992    -0.904759037268    -0.000014612224    14.003074004430
         N            2.418414425992    -0.843804037268    -0.000519612224    14.003074004430
         N           -1.333399574008     1.006592962732     0.000230387776    14.003074004430
         C            1.234551425992    -0.173157037268    -0.000118612224    12.000000000000
         C            1.102542425992     1.202394962732    -0.000076612224    12.000000000000
         C           -1.233937574008    -0.371397037268     0.000166387776    12.000000000000
         C           -0.211792574008     1.705568962732     0.000063387776    12.000000000000
         H            0.112199425992    -1.821063137268    -0.000188612224     1.007825032230
         H            1.966416425992     1.855563962732    -0.000149612224     1.007825032230
         H           -0.344032574008     2.788767962732     0.000224387776     1.007825032230
         H            3.287462425992    -0.332925037268     0.000582387776     1.007825032230
         H            2.464115425992    -1.851167037268     0.001018387776     1.007825032230

  Basis Set: AUG-CC-PVTZ
    Blend: AUG-CC-PVTZ
  Basis Set: (AUG-CC-PVTZ AUX)
    Blend: AUG-CC-PVTZ-JKFIT
	 Reference Energy          =    -392.7451701072699848 [Eh]
	 Singles Energy            =      -0.0000000000000000 [Eh]
	 Same-Spin Energy          =      -0.4060267009010544 [Eh]
	 Opposite-Spin Energy      =      -1.2125014653554120 [Eh]
	 Correlation Energy        =      -1.6185281662564663 [Eh]
	 Total Energy              =    -394.3636982735264382 [Eh]

	 ================> DF-SCS-MP2 Energies <==================
	-----------------------------------------------------------
	 SCS Same-Spin Scale       =       0.3333333333333333 [-]
	 SCS Opposite-Spin Scale   =       1.2000000000000000 [-]
	 SCS Same-Spin Energy      =      -0.1353422336336848 [Eh]
	 SCS Opposite-Spin Energy  =      -1.4550017584264945 [Eh]
	 SCS Correlation Energy    =      -1.5903439920601792 [Eh]
	 SCS Total Energy          =    -394.3355140993301688 [Eh]
	-----------------------------------------------------------

  Dipole Moment: [D]
     X:     8.1500      Y:    -0.7664      Z:     0.0030     Total:     8.1859

*** Psi4 exiting successfully. Buy a developer a beer!
