                               Psi4 1.4a3.dev225

  ==> Input File <==

--------------------------------------------------------------------------
#psi4
#
memory 32 gb

molecule  {
0 1
  O        2.2358750    -1.1647400    -0.0019990
  N       -0.0266920    -0.9090020    -0.0014130
  N       -2.3606070    -0.8668920    -0.0783920
  N        1.3942980     1.0030250     0.0093070
  C       -1.1689180    -0.1740660     0.0003700
  C       -1.0400980     1.1965590     0.0002140
  C        1.2955060    -0.3793770     0.0033320
  C        0.2772380     1.7038820     0.0017870
  H       -0.0608440    -1.9231390    -0.0684580
  H       -1.9045160     1.8491770     0.0118680
  H        0.4106550     2.7868440     0.0040290
  H       -3.1393910    -0.3339700     0.1163563
  H       -2.3838550    -1.7605480     0.4013470
units angstrom
no_reorient  #important for SAPT in psi4, default
symmetry c1  #important for SAPT in psi4, default
}

set PROPERTIES_ORIGIN ["COM"]
properties('MP2/aug-cc-pvtz', properties = ['dipole'])
--------------------------------------------------------------------------

    Molecular point group: c1
  Charge       = 0
  Multiplicity = 1
  Basis Set: AUG-CC-PVTZ
    Blend: AUG-CC-PVTZ
  Basis Set: (AUG-CC-PVTZ AUX)
    Blend: AUG-CC-PVTZ-JKFIT

    Orbital Energies [Eh]
    ---------------------

    Doubly Occupied:

       1A    -20.512818     2A    -15.634339     3A    -15.622173
       4A    -15.552312     5A    -11.381574     6A    -11.379040
       7A    -11.313161     8A    -11.237908     9A     -1.391871
      10A     -1.325312    11A     -1.247822    12A     -1.203791
      13A     -1.061088    14A     -0.910203    15A     -0.887175
      16A     -0.776319    17A     -0.754466    18A     -0.720055
      19A     -0.692883    20A     -0.646820    21A     -0.630631
      22A     -0.623859    23A     -0.574274    24A     -0.548470
      25A     -0.464144    26A     -0.452108    27A     -0.449293
      28A     -0.418892    29A     -0.332033

  @DF-RHF Final Energy:  -392.75043451960437

   => Energetics <=

    Nuclear Repulsion Energy =            355.2526156727773241
    One-Electron Energy =               -1238.5164338955576113
    Two-Electron Energy =                 490.5133837031759185
    Total Energy =                       -392.7504345196043687
  Basis Set: (AUG-CC-PVTZ AUX)
    Blend: AUG-CC-PVTZ-RI
    Molecular point group: c1

    Geometry (in Angstrom), charge = 0, multiplicity = 1:

       Center              X                  Y                   Z               Mass
    ------------   -----------------  -----------------  -----------------  -----------------
         O            2.172035349342    -1.158748822078     0.002341150714    15.994914619570
         N           -0.090531650658    -0.903010822078     0.002927150714    14.003074004430
         N           -2.424446650658    -0.860900822078    -0.074051849286    14.003074004430
         N            1.330458349342     1.009016177922     0.013647150714    14.003074004430
         C           -1.232757650658    -0.168074822078     0.004710150714    12.000000000000
         C           -1.103937650658     1.202550177922     0.004554150714    12.000000000000
         C            1.231666349342    -0.373385822078     0.007672150714    12.000000000000
         C            0.213398349342     1.709873177922     0.006127150714    12.000000000000
         H           -0.124683650658    -1.917147822078    -0.064117849286     1.007825032230
         H           -1.968355650658     1.855168177922     0.016208150714     1.007825032230
         H            0.346815349342     2.792835177922     0.008369150714     1.007825032230
         H           -3.203230650658    -0.327978822078     0.120696450714     1.007825032230
         H           -2.447694650658    -1.754556822078     0.405687150714     1.007825032230

  Basis Set: AUG-CC-PVTZ
    Blend: AUG-CC-PVTZ
  Basis Set: (AUG-CC-PVTZ AUX)
    Blend: AUG-CC-PVTZ-JKFIT
	 Reference Energy          =    -392.7504345196040845 [Eh]
	 Singles Energy            =      -0.0000000000000000 [Eh]
	 Same-Spin Energy          =      -0.4065194187654475 [Eh]
	 Opposite-Spin Energy      =      -1.2141961057785364 [Eh]
	 Correlation Energy        =      -1.6207155245439839 [Eh]
	 Total Energy              =    -394.3711500441480666 [Eh]

	 ================> DF-SCS-MP2 Energies <==================
	-----------------------------------------------------------
	 SCS Same-Spin Scale       =       0.3333333333333333 [-]
	 SCS Opposite-Spin Scale   =       1.2000000000000000 [-]
	 SCS Same-Spin Energy      =      -0.1355064729218158 [Eh]
	 SCS Opposite-Spin Energy  =      -1.4570353269342438 [Eh]
	 SCS Correlation Energy    =      -1.5925417998560596 [Eh]
	 SCS Total Energy          =    -394.3429763194601492 [Eh]
	-----------------------------------------------------------

  Dipole Moment: [D]
     X:    -7.5543      Y:    -0.4222      Z:     0.8571     Total:     7.6145

*** Psi4 exiting successfully. Buy a developer a beer!
