                               Psi4 1.3.2 release

  ==> Input File <==

--------------------------------------------------------------------------
#psi4
#
memory 32 gb

molecule  {
0 1
  O       -2.2334690    -1.1675340     0.0001340
  N        0.0265130    -0.9084710    -0.0000270
  N        2.3544690    -0.8475160    -0.0005320
  N       -1.3973450     1.0028810     0.0002180
  C        1.1706060    -0.1768690    -0.0001310
  C        1.0002957     1.1082253    -0.0000999
  C       -1.2978830    -0.3751090     0.0001540
  C       -0.2757380     1.7018570     0.0000510
  H        0.0506260    -1.9247470    -0.0002200
  H        1.9024710     1.8518520    -0.0001620
  H       -0.4079780     2.7850560     0.0002120
  H        3.2235170    -0.3366370     0.0005700
  H        2.4001700    -1.8548790     0.0010060
units angstrom
no_reorient  #important for SAPT in psi4, default
symmetry c1  #important for SAPT in psi4, default
}

set PROPERTIES_ORIGIN ["COM"]
properties('MP2/aug-cc-pvtz', properties = ['dipole'])
--------------------------------------------------------------------------

    Molecular point group: c1
  Charge       = 0
  Multiplicity = 1
  Basis Set: AUG-CC-PVTZ
    Blend: AUG-CC-PVTZ
  Basis Set: (AUG-CC-PVTZ AUX)
    Blend: AUG-CC-PVTZ-JKFIT

    Orbital Energies [Eh]
    ---------------------

    Doubly Occupied:

       1A    -20.509659     2A    -15.625016     3A    -15.621625
       4A    -15.551382     5A    -11.376378     6A    -11.367044
       7A    -11.314505     8A    -11.231065     9A     -1.389094
      10A     -1.323034    11A     -1.243493    12A     -1.198102
      13A     -1.069052    14A     -0.916485    15A     -0.878962
      16A     -0.782681    17A     -0.748006    18A     -0.718555
      19A     -0.693963    20A     -0.645262    21A     -0.641187
      22A     -0.608319    23A     -0.562534    24A     -0.547849
      25A     -0.462449    26A     -0.447941    27A     -0.439774
      28A     -0.417963    29A     -0.332327

  @DF-RHF Final Energy:  -392.73760302988842

   => Energetics <=

    Nuclear Repulsion Energy =            357.0400366494727677
    One-Electron Energy =               -1242.2278650712701165
    Two-Electron Energy =                 492.4502253919089299
    Total Energy =                       -392.7376030298884189
  Basis Set: (AUG-CC-PVTZ AUX)
    Blend: AUG-CC-PVTZ-RI
    Molecular point group: c1

    Geometry (in Angstrom), charge = 0, multiplicity = 1:

       Center              X                  Y                   Z               Mass
    ------------   -----------------  -----------------  -----------------  -----------------
         O           -2.165406034307    -1.153139294667     0.000147738138    15.994914619570
         N            0.094575965693    -0.894076294667    -0.000013261862    14.003074004430
         N            2.422531965693    -0.833121294667    -0.000518261862    14.003074004430
         N           -1.329282034307     1.017275705333     0.000231738138    14.003074004430
         C            1.238668965693    -0.162474294667    -0.000117261862    12.000000000000
         C            1.068358665693     1.122620005333    -0.000086161862    12.000000000000
         C           -1.229820034307    -0.360714294667     0.000167738138    12.000000000000
         C           -0.207675034307     1.716251705333     0.000064738138    12.000000000000
         H            0.118688965693    -1.910352294667    -0.000206261862     1.007825032230
         H            1.970533965693     1.866246705333    -0.000148261862     1.007825032230
         H           -0.339915034307     2.799450705333     0.000225738138     1.007825032230
         H            3.291579965693    -0.322242294667     0.000583738138     1.007825032230
         H            2.468232965693    -1.840484294667     0.001019738138     1.007825032230

  Basis Set: AUG-CC-PVTZ
    Blend: AUG-CC-PVTZ
  Basis Set: (AUG-CC-PVTZ AUX)
    Blend: AUG-CC-PVTZ-JKFIT
	 Reference Energy          =    -392.7376030298884189 [Eh]
	 Singles Energy            =      -0.0000000000000000 [Eh]
	 Same-Spin Energy          =      -0.4072222862196930 [Eh]
	 Opposite-Spin Energy      =      -1.2148926017901971 [Eh]
	 Correlation Energy        =      -1.6221148880098901 [Eh]
	 Total Energy              =    -394.3597179178983083 [Eh]

	 ================> DF-SCS-MP2 Energies <==================
	-----------------------------------------------------------
	 SCS Same-Spin Scale       =       0.3333333333333333 [-]
	 SCS Opposite-Spin Scale   =       1.2000000000000000 [-]
	 SCS Same-Spin Energy      =      -0.1357407620732310 [Eh]
	 SCS Opposite-Spin Energy  =      -1.4578711221482366 [Eh]
	 SCS Correlation Energy    =      -1.5936118842214675 [Eh]
	 SCS Total Energy          =    -394.3312149141098644 [Eh]
	-----------------------------------------------------------

  Dipole Moment: [D]
     X:     7.8688      Y:    -0.5837      Z:     0.0031     Total:     7.8905

*** Psi4 exiting successfully. Buy a developer a beer!
