                               Psi4 1.3.2 release

  ==> Input File <==

--------------------------------------------------------------------------
#psi4
#
memory 32 gb

molecule  {
0 1
  O       -2.2334690    -1.1675340     0.0001340
  N        0.0265130    -0.9084710    -0.0000270
  N        2.3544690    -0.8475160    -0.0005320
  N       -1.3973450     1.0028810     0.0002180
  C        1.1706060    -0.1768690    -0.0001310
  C        1.0385970     1.1986830    -0.0000890
  C       -1.2883728    -0.3520763     0.0001578
  C       -0.2757380     1.7018570     0.0000510
  H        0.0506260    -1.9247470    -0.0002200
  H        1.9024710     1.8518520    -0.0001620
  H       -0.4079780     2.7850560     0.0002120
  H        3.2235170    -0.3366370     0.0005700
  H        2.4001700    -1.8548790     0.0010060
units angstrom
no_reorient  #important for SAPT in psi4, default
symmetry c1  #important for SAPT in psi4, default
}

set PROPERTIES_ORIGIN ["COM"]
properties('MP2/aug-cc-pvtz', properties = ['dipole'])
--------------------------------------------------------------------------

    Molecular point group: c1
  Charge       = 0
  Multiplicity = 1
  Basis Set: AUG-CC-PVTZ
    Blend: AUG-CC-PVTZ
  Basis Set: (AUG-CC-PVTZ AUX)
    Blend: AUG-CC-PVTZ-JKFIT

    Orbital Energies [Eh]
    ---------------------

    Doubly Occupied:

       1A    -20.502826     2A    -15.633598     3A    -15.630539
       4A    -15.546990     5A    -11.385897     6A    -11.374903
       7A    -11.312146     8A    -11.235191     9A     -1.380937
      10A     -1.318058    11A     -1.244157    12A     -1.203114
      13A     -1.060335    14A     -0.913450    15A     -0.884244
      16A     -0.785583    17A     -0.756432    18A     -0.723603
      19A     -0.692741    20A     -0.639334    21A     -0.639132
      22A     -0.614593    23A     -0.566660    24A     -0.545858
      25A     -0.460383    26A     -0.441883    27A     -0.439159
      28A     -0.418205    29A     -0.327294

  @DF-RHF Final Energy:  -392.74927642482487

   => Energetics <=

    Nuclear Repulsion Energy =            355.2771143278135355
    One-Electron Energy =               -1238.6982888671693672
    Two-Electron Energy =                 490.6718981145310181
    Total Energy =                       -392.7492764248248704
  Basis Set: (AUG-CC-PVTZ AUX)
    Blend: AUG-CC-PVTZ-RI
    Molecular point group: c1

    Geometry (in Angstrom), charge = 0, multiplicity = 1:

       Center              X                  Y                   Z               Mass
    ------------   -----------------  -----------------  -----------------  -----------------
         O           -2.170572831380    -1.165403747080     0.000146149568    15.994914619570
         N            0.089409168620    -0.906340747080    -0.000014850432    14.003074004430
         N            2.417365168620    -0.845385747080    -0.000519850432    14.003074004430
         N           -1.334448831380     1.005011252920     0.000230149568    14.003074004430
         C            1.233502168620    -0.174738747080    -0.000118850432    12.000000000000
         C            1.101493168620     1.200813252920    -0.000076850432    12.000000000000
         C           -1.225476631380    -0.349946047080     0.000169949568    12.000000000000
         C           -0.212841831380     1.703987252920     0.000063149568    12.000000000000
         H            0.113522168620    -1.922616747080    -0.000207850432     1.007825032230
         H            1.965367168620     1.853982252920    -0.000149850432     1.007825032230
         H           -0.345081831380     2.787186252920     0.000224149568     1.007825032230
         H            3.286413168620    -0.334506747080     0.000582149568     1.007825032230
         H            2.463066168620    -1.852748747080     0.001018149568     1.007825032230

  Basis Set: AUG-CC-PVTZ
    Blend: AUG-CC-PVTZ
  Basis Set: (AUG-CC-PVTZ AUX)
    Blend: AUG-CC-PVTZ-JKFIT
	 Reference Energy          =    -392.7492764248248704 [Eh]
	 Singles Energy            =      -0.0000000000000000 [Eh]
	 Same-Spin Energy          =      -0.4072492900290497 [Eh]
	 Opposite-Spin Energy      =      -1.2145630791004329 [Eh]
	 Correlation Energy        =      -1.6218123691294828 [Eh]
	 Total Energy              =    -394.3710887939543568 [Eh]

	 ================> DF-SCS-MP2 Energies <==================
	-----------------------------------------------------------
	 SCS Same-Spin Scale       =       0.3333333333333333 [-]
	 SCS Opposite-Spin Scale   =       1.2000000000000000 [-]
	 SCS Same-Spin Energy      =      -0.1357497633430166 [Eh]
	 SCS Opposite-Spin Energy  =      -1.4574756949205194 [Eh]
	 SCS Correlation Energy    =      -1.5932254582635359 [Eh]
	 SCS Total Energy          =    -394.3425018830884028 [Eh]
	-----------------------------------------------------------

  Dipole Moment: [D]
     X:     8.3454      Y:    -0.7056      Z:     0.0030     Total:     8.3752

*** Psi4 exiting successfully. Buy a developer a beer!
