                               Psi4 1.4a3.dev225

  ==> Input File <==

--------------------------------------------------------------------------
#psi4
#
memory 32 gb

molecule  {
0 1
  O        2.2358750    -1.1647400    -0.0019990
  N       -0.0266920    -0.9090020    -0.0014130
  N       -2.3606070    -0.8668920    -0.0783920
  N        1.3942980     1.0030250     0.0093070
  C       -1.1689180    -0.1740660     0.0003700
  C       -1.0400980     1.1965590     0.0002140
  C        1.2955060    -0.3793770     0.0033320
  C        0.2772380     1.7038820     0.0017870
  H       -0.0608440    -1.9231390    -0.0684580
  H       -1.9045160     1.8491770     0.0118680
  H        0.4167686     2.8364687     0.0041317
  H       -3.1798030    -0.3063160     0.1264620
  H       -2.3838550    -1.7605480     0.4013470
units angstrom
no_reorient  #important for SAPT in psi4, default
symmetry c1  #important for SAPT in psi4, default
}

set PROPERTIES_ORIGIN ["COM"]
properties('MP2/aug-cc-pvtz', properties = ['dipole'])
--------------------------------------------------------------------------

    Molecular point group: c1
  Charge       = 0
  Multiplicity = 1
  Basis Set: AUG-CC-PVTZ
    Blend: AUG-CC-PVTZ
  Basis Set: (AUG-CC-PVTZ AUX)
    Blend: AUG-CC-PVTZ-JKFIT

    Orbital Energies [Eh]
    ---------------------

    Doubly Occupied:

       1A    -20.512957     2A    -15.634409     3A    -15.627106
       4A    -15.552538     5A    -11.381689     6A    -11.379386
       7A    -11.318441     8A    -11.238094     9A     -1.391896
      10A     -1.323340    11A     -1.244316    12A     -1.201512
      13A     -1.060119    14A     -0.905402    15A     -0.883790
      16A     -0.776008    17A     -0.750458    18A     -0.713610
      19A     -0.685961    20A     -0.644563    21A     -0.629473
      22A     -0.623748    23A     -0.569776    24A     -0.547884
      25A     -0.464204    26A     -0.452071    27A     -0.448965
      28A     -0.418046    29A     -0.332021

  @DF-RHF Final Energy:  -392.74853046048486

   => Energetics <=

    Nuclear Repulsion Energy =            354.7232332621439923
    One-Electron Energy =               -1237.5199674708003386
    Two-Electron Energy =                 490.0482037481714315
    Total Energy =                       -392.7485304604848579
  Basis Set: (AUG-CC-PVTZ AUX)
    Blend: AUG-CC-PVTZ-RI
    Molecular point group: c1

    Geometry (in Angstrom), charge = 0, multiplicity = 1:

       Center              X                  Y                   Z               Mass
    ------------   -----------------  -----------------  -----------------  -----------------
         O            2.172346640505    -1.159450201045     0.002248499608    15.994914619570
         N           -0.090220359495    -0.903712201045     0.002834499608    14.003074004430
         N           -2.424135359495    -0.861602201045    -0.074144500392    14.003074004430
         N            1.330769640505     1.008314798955     0.013554499608    14.003074004430
         C           -1.232446359495    -0.168776201045     0.004617499608    12.000000000000
         C           -1.103626359495     1.201848798955     0.004461499608    12.000000000000
         C            1.231977640505    -0.374087201045     0.007579499608    12.000000000000
         C            0.213709640505     1.709171798955     0.006034499608    12.000000000000
         H           -0.124372359495    -1.917849201045    -0.064210500392     1.007825032230
         H           -1.968044359495     1.854466798955     0.016115499608     1.007825032230
         H            0.353240240505     2.841758498955     0.008379199608     1.007825032230
         H           -3.243331359495    -0.301026201045     0.130709499608     1.007825032230
         H           -2.447383359495    -1.755258201045     0.405594499608     1.007825032230

  Basis Set: AUG-CC-PVTZ
    Blend: AUG-CC-PVTZ
  Basis Set: (AUG-CC-PVTZ AUX)
    Blend: AUG-CC-PVTZ-JKFIT
	 Reference Energy          =    -392.7485304604848579 [Eh]
	 Singles Energy            =      -0.0000000000000000 [Eh]
	 Same-Spin Energy          =      -0.4069478624845737 [Eh]
	 Opposite-Spin Energy      =      -1.2153966619490384 [Eh]
	 Correlation Energy        =      -1.6223445244336121 [Eh]
	 Total Energy              =    -394.3708749849184869 [Eh]

	 ================> DF-SCS-MP2 Energies <==================
	-----------------------------------------------------------
	 SCS Same-Spin Scale       =       0.3333333333333333 [-]
	 SCS Opposite-Spin Scale   =       1.2000000000000000 [-]
	 SCS Same-Spin Energy      =      -0.1356492874948579 [Eh]
	 SCS Opposite-Spin Energy  =      -1.4584759943388461 [Eh]
	 SCS Correlation Energy    =      -1.5941252818337039 [Eh]
	 SCS Total Energy          =    -394.3426557423185841 [Eh]
	-----------------------------------------------------------

  Dipole Moment: [D]
     X:    -7.5934      Y:    -0.4334      Z:     0.8617     Total:     7.6545

*** Psi4 exiting successfully. Buy a developer a beer!
