                               Psi4 1.3.2 release

  ==> Input File <==

--------------------------------------------------------------------------
#psi4
#
memory 32 gb

molecule  {
0 1
  O       -2.2334690    -1.1675340     0.0001340
  N        0.0265130    -0.9084710    -0.0000270
  N        2.3544690    -0.8475160    -0.0005320
  N       -1.3973450     1.0028810     0.0002180
  C        1.1945926    -0.1743556    -0.0001334
  C        1.0385970     1.1986830    -0.0000890
  C       -1.2978830    -0.3751090     0.0001540
  C       -0.2757380     1.7018570     0.0000510
  H        0.0506260    -1.9247470    -0.0002200
  H        1.9024710     1.8518520    -0.0001620
  H       -0.4079780     2.7850560     0.0002120
  H        3.2235170    -0.3366370     0.0005700
  H        2.4001700    -1.8548790     0.0010060
units angstrom
no_reorient  #important for SAPT in psi4, default
symmetry c1  #important for SAPT in psi4, default
}

set PROPERTIES_ORIGIN ["COM"]
properties('MP2/aug-cc-pvtz', properties = ['dipole'])
--------------------------------------------------------------------------

    Molecular point group: c1
  Charge       = 0
  Multiplicity = 1
  Basis Set: AUG-CC-PVTZ
    Blend: AUG-CC-PVTZ
  Basis Set: (AUG-CC-PVTZ AUX)
    Blend: AUG-CC-PVTZ-JKFIT

    Orbital Energies [Eh]
    ---------------------

    Doubly Occupied:

       1A    -20.507875     2A    -15.632245     3A    -15.629113
       4A    -15.544860     5A    -11.384470     6A    -11.374274
       7A    -11.308774     8A    -11.232252     9A     -1.385891
      10A     -1.324585    11A     -1.244557    12A     -1.196330
      13A     -1.057129    14A     -0.909676    15A     -0.881171
      16A     -0.786337    17A     -0.751975    18A     -0.724968
      19A     -0.689514    20A     -0.637520    21A     -0.636411
      22A     -0.618508    23A     -0.566692    24A     -0.550764
      25A     -0.459212    26A     -0.446320    27A     -0.440114
      28A     -0.414505    29A     -0.325220

  @DF-RHF Final Energy:  -392.75020486333443

   => Energetics <=

    Nuclear Repulsion Energy =            354.9725560973547545
    One-Electron Energy =               -1238.1229989116602610
    Two-Electron Energy =                 490.4002379509710750
    Total Energy =                       -392.7502048633344316
  Basis Set: (AUG-CC-PVTZ AUX)
    Blend: AUG-CC-PVTZ-RI
    Molecular point group: c1

    Geometry (in Angstrom), charge = 0, multiplicity = 1:

       Center              X                  Y                   Z               Mass
    ------------   -----------------  -----------------  -----------------  -----------------
         O           -2.172137237875    -1.163186308614     0.000146819577    15.994914619570
         N            0.087844762125    -0.904123308614    -0.000014180423    14.003074004430
         N            2.415800762125    -0.843168308614    -0.000519180423    14.003074004430
         N           -1.336013237875     1.007228691386     0.000230819577    14.003074004430
         C            1.255924362125    -0.170007908614    -0.000120580423    12.000000000000
         C            1.099928762125     1.203030691386    -0.000076180423    12.000000000000
         C           -1.236551237875    -0.370761308614     0.000166819577    12.000000000000
         C           -0.214406237875     1.706204691386     0.000063819577    12.000000000000
         H            0.111957762125    -1.920399308614    -0.000207180423     1.007825032230
         H            1.963802762125     1.856199691386    -0.000149180423     1.007825032230
         H           -0.346646237875     2.789403691386     0.000224819577     1.007825032230
         H            3.284848762125    -0.332289308614     0.000582819577     1.007825032230
         H            2.461501762125    -1.850531308614     0.001018819577     1.007825032230

  Basis Set: AUG-CC-PVTZ
    Blend: AUG-CC-PVTZ
  Basis Set: (AUG-CC-PVTZ AUX)
    Blend: AUG-CC-PVTZ-JKFIT
	 Reference Energy          =    -392.7502048633344316 [Eh]
	 Singles Energy            =      -0.0000000000000000 [Eh]
	 Same-Spin Energy          =      -0.4068746609427094 [Eh]
	 Opposite-Spin Energy      =      -1.2142043871357173 [Eh]
	 Correlation Energy        =      -1.6210790480784267 [Eh]
	 Total Energy              =    -394.3712839114128315 [Eh]

	 ================> DF-SCS-MP2 Energies <==================
	-----------------------------------------------------------
	 SCS Same-Spin Scale       =       0.3333333333333333 [-]
	 SCS Opposite-Spin Scale   =       1.2000000000000000 [-]
	 SCS Same-Spin Energy      =      -0.1356248869809031 [Eh]
	 SCS Opposite-Spin Energy  =      -1.4570452645628607 [Eh]
	 SCS Correlation Energy    =      -1.5926701515437638 [Eh]
	 SCS Total Energy          =    -394.3428750148781887 [Eh]
	-----------------------------------------------------------

  Dipole Moment: [D]
     X:     8.2939      Y:    -0.8934      Z:     0.0030     Total:     8.3419

*** Psi4 exiting successfully. Buy a developer a beer!
