                               Psi4 1.3.2 release

  ==> Input File <==

--------------------------------------------------------------------------
#psi4
#
memory 32 gb

molecule  {
0 1
  O       -2.2334690    -1.1675340     0.0001340
  N        0.0265130    -0.9084710    -0.0000270
  N        2.3544690    -0.8475160    -0.0005320
  N       -1.3973450     1.0028810     0.0002180
  C        1.1706060    -0.1768690    -0.0001310
  C        1.0385970     1.1986830    -0.0000890
  C       -1.2978830    -0.3751090     0.0001540
  C       -0.2757380     1.7018570     0.0000510
  H        0.0506260    -1.9247470    -0.0002200
  H        1.9024710     1.8518520    -0.0001620
  H       -0.4079780     2.7850560     0.0002120
  H        3.1857632    -0.2772598     0.0004054
  H        2.4001700    -1.8548790     0.0010060
units angstrom
no_reorient  #important for SAPT in psi4, default
symmetry c1  #important for SAPT in psi4, default
}

set PROPERTIES_ORIGIN ["COM"]
properties('MP2/aug-cc-pvtz', properties = ['dipole'])
--------------------------------------------------------------------------

    Molecular point group: c1
  Charge       = 0
  Multiplicity = 1
  Basis Set: AUG-CC-PVTZ
    Blend: AUG-CC-PVTZ
  Basis Set: (AUG-CC-PVTZ AUX)
    Blend: AUG-CC-PVTZ-JKFIT

    Orbital Energies [Eh]
    ---------------------

    Doubly Occupied:

       1A    -20.509263     2A    -15.631753     3A    -15.629175
       4A    -15.545729     5A    -11.383170     6A    -11.375566
       7A    -11.309109     8A    -11.232847     9A     -1.388658
      10A     -1.323817    11A     -1.243195    12A     -1.199127
      13A     -1.057369    14A     -0.908710    15A     -0.882882
      16A     -0.786528    17A     -0.753235    18A     -0.719474
      19A     -0.693267    20A     -0.638495    21A     -0.637034
      22A     -0.620276    23A     -0.569646    24A     -0.547952
      25A     -0.460352    26A     -0.447579    27A     -0.441962
      28A     -0.415339    29A     -0.325833

  @DF-RHF Final Energy:  -392.75079854023886

   => Energetics <=

    Nuclear Repulsion Energy =            355.2949459039549538
    One-Electron Energy =               -1238.7368075356862391
    Two-Electron Energy =                 490.6910630914924241
    Total Energy =                       -392.7507985402388613
  Basis Set: (AUG-CC-PVTZ AUX)
    Blend: AUG-CC-PVTZ-RI
    Molecular point group: c1

    Geometry (in Angstrom), charge = 0, multiplicity = 1:

       Center              X                  Y                   Z               Mass
    ------------   -----------------  -----------------  -----------------  -----------------
         O           -2.169202449942    -1.163453601092     0.000148054123    15.994914619570
         N            0.090779550058    -0.904390601092    -0.000012945877    14.003074004430
         N            2.418735550058    -0.843435601092    -0.000517945877    14.003074004430
         N           -1.333078449942     1.006961398908     0.000232054123    14.003074004430
         C            1.234872550058    -0.172788601092    -0.000116945877    12.000000000000
         C            1.102863550058     1.202763398908    -0.000074945877    12.000000000000
         C           -1.233616449942    -0.371028601092     0.000168054123    12.000000000000
         C           -0.211471449942     1.705937398908     0.000065054123    12.000000000000
         H            0.114892550058    -1.920666601092    -0.000205945877     1.007825032230
         H            1.966737550058     1.855932398908    -0.000147945877     1.007825032230
         H           -0.343711449942     2.789136398908     0.000226054123     1.007825032230
         H            3.250029750058    -0.273179401092     0.000419454123     1.007825032230
         H            2.464436550058    -1.850798601092     0.001020054123     1.007825032230

  Basis Set: AUG-CC-PVTZ
    Blend: AUG-CC-PVTZ
  Basis Set: (AUG-CC-PVTZ AUX)
    Blend: AUG-CC-PVTZ-JKFIT
	 Reference Energy          =    -392.7507985402388613 [Eh]
	 Singles Energy            =      -0.0000000000000000 [Eh]
	 Same-Spin Energy          =      -0.4068922609964168 [Eh]
	 Opposite-Spin Energy      =      -1.2141121599483415 [Eh]
	 Correlation Energy        =      -1.6210044209447583 [Eh]
	 Total Energy              =    -394.3718029611836187 [Eh]

	 ================> DF-SCS-MP2 Energies <==================
	-----------------------------------------------------------
	 SCS Same-Spin Scale       =       0.3333333333333333 [-]
	 SCS Opposite-Spin Scale   =       1.2000000000000000 [-]
	 SCS Same-Spin Energy      =      -0.1356307536654723 [Eh]
	 SCS Opposite-Spin Energy  =      -1.4569345919380099 [Eh]
	 SCS Correlation Energy    =      -1.5925653456034823 [Eh]
	 SCS Total Energy          =    -394.3433638858423365 [Eh]
	-----------------------------------------------------------

  Dipole Moment: [D]
     X:     8.1033      Y:    -0.8419      Z:     0.0028     Total:     8.1469

*** Psi4 exiting successfully. Buy a developer a beer!
