                               Psi4 1.3.2 release

  ==> Input File <==

--------------------------------------------------------------------------
#psi4
#
memory 32 gb

molecule  {
0 1
  O       -2.2334690    -1.1675340     0.0001340
  N        0.0265130    -0.9084710    -0.0000270
  N        2.3544690    -0.8475160    -0.0005320
  N       -1.3973450     1.0028810     0.0002180
  C        1.2188530    -0.2584590    -0.0001403
  C        1.0385970     1.1986830    -0.0000890
  C       -1.2978830    -0.3751090     0.0001540
  C       -0.2757380     1.7018570     0.0000510
  H        0.0506260    -1.9247470    -0.0002200
  H        1.9024710     1.8518520    -0.0001620
  H       -0.4079780     2.7850560     0.0002120
  H        3.2235170    -0.3366370     0.0005700
  H        2.4001700    -1.8548790     0.0010060
units angstrom
no_reorient  #important for SAPT in psi4, default
symmetry c1  #important for SAPT in psi4, default
}

set PROPERTIES_ORIGIN ["COM"]
properties('MP2/aug-cc-pvtz', properties = ['dipole'])
--------------------------------------------------------------------------

    Molecular point group: c1
  Charge       = 0
  Multiplicity = 1
  Basis Set: AUG-CC-PVTZ
    Blend: AUG-CC-PVTZ
  Basis Set: (AUG-CC-PVTZ AUX)
    Blend: AUG-CC-PVTZ-JKFIT

    Orbital Energies [Eh]
    ---------------------

    Doubly Occupied:

       1A    -20.506114     2A    -15.647889     3A    -15.633700
       4A    -15.533524     5A    -11.391073     6A    -11.373265
       7A    -11.299236     8A    -11.231238     9A     -1.388794
      10A     -1.346682    11A     -1.254244    12A     -1.198140
      13A     -1.035402    14A     -0.910616    15A     -0.886711
      16A     -0.802802    17A     -0.767022    18A     -0.732257
      19A     -0.678124    20A     -0.645761    21A     -0.633574
      22A     -0.609968    23A     -0.561173    24A     -0.552107
      25A     -0.453244    26A     -0.445538    27A     -0.442120
      28A     -0.408967    29A     -0.311125

  @DF-RHF Final Energy:  -392.73830519108435

   => Energetics <=

    Nuclear Repulsion Energy =            354.7968875898180272
    One-Electron Energy =               -1237.7095637738345886
    Two-Electron Energy =                 490.1743709929322677
    Total Energy =                       -392.7383051910843506
  Basis Set: (AUG-CC-PVTZ AUX)
    Blend: AUG-CC-PVTZ-RI
    Molecular point group: c1

    Geometry (in Angstrom), charge = 0, multiplicity = 1:

       Center              X                  Y                   Z               Mass
    ------------   -----------------  -----------------  -----------------  -----------------
         O           -2.174758962014    -1.154097591445     0.000147565233    15.994914619570
         N            0.085223037986    -0.895034591445    -0.000013434767    14.003074004430
         N            2.413179037986    -0.834079591445    -0.000518434767    14.003074004430
         N           -1.338634962014     1.016317408555     0.000231565233    14.003074004430
         C            1.277563037986    -0.245022591445    -0.000126734767    12.000000000000
         C            1.097307037986     1.212119408555    -0.000075434767    12.000000000000
         C           -1.239172962014    -0.361672591445     0.000167565233    12.000000000000
         C           -0.217027962014     1.715293408555     0.000064565233    12.000000000000
         H            0.109336037986    -1.911310591445    -0.000206434767     1.007825032230
         H            1.961181037986     1.865288408555    -0.000148434767     1.007825032230
         H           -0.349267962014     2.798492408555     0.000225565233     1.007825032230
         H            3.282227037986    -0.323200591445     0.000583565233     1.007825032230
         H            2.458880037986    -1.841442591445     0.001019565233     1.007825032230

  Basis Set: AUG-CC-PVTZ
    Blend: AUG-CC-PVTZ
  Basis Set: (AUG-CC-PVTZ AUX)
    Blend: AUG-CC-PVTZ-JKFIT
	 Reference Energy          =    -392.7383051910843506 [Eh]
	 Singles Energy            =      -0.0000000000000000 [Eh]
	 Same-Spin Energy          =      -0.4070844543826482 [Eh]
	 Opposite-Spin Energy      =      -1.2138083337323471 [Eh]
	 Correlation Energy        =      -1.6208927881149953 [Eh]
	 Total Energy              =    -394.3591979791993367 [Eh]

	 ================> DF-SCS-MP2 Energies <==================
	-----------------------------------------------------------
	 SCS Same-Spin Scale       =       0.3333333333333333 [-]
	 SCS Opposite-Spin Scale   =       1.2000000000000000 [-]
	 SCS Same-Spin Energy      =      -0.1356948181275494 [Eh]
	 SCS Opposite-Spin Energy  =      -1.4565700004788165 [Eh]
	 SCS Correlation Energy    =      -1.5922648186063659 [Eh]
	 SCS Total Energy          =    -394.3305700096906889 [Eh]
	-----------------------------------------------------------

  Dipole Moment: [D]
     X:     8.9099      Y:    -1.4846      Z:     0.0028     Total:     9.0327

*** Psi4 exiting successfully. Buy a developer a beer!
