                               Psi4 1.3.2 release

  ==> Input File <==

--------------------------------------------------------------------------
#psi4
#
memory 32 gb

molecule  {
0 1
  O       -2.2334690    -1.1675340     0.0001340
  N        0.0265130    -0.9084710    -0.0000270
  N        2.3544690    -0.8475160    -0.0005320
  N       -1.3973450     1.0028810     0.0002180
  C        1.1706060    -0.1768690    -0.0001310
  C        1.0385970     1.1986830    -0.0000890
  C       -1.2978830    -0.3751090     0.0001540
  C       -0.2757380     1.7018570     0.0000510
  H        0.0506260    -1.9247470    -0.0002200
  H        1.9024710     1.8518520    -0.0001620
  H       -0.4200963     2.8843190     0.0002268
  H        3.2235170    -0.3366370     0.0005700
  H        2.4001700    -1.8548790     0.0010060
units angstrom
no_reorient  #important for SAPT in psi4, default
symmetry c1  #important for SAPT in psi4, default
}

set PROPERTIES_ORIGIN ["COM"]
properties('MP2/aug-cc-pvtz', properties = ['dipole'])
--------------------------------------------------------------------------

    Molecular point group: c1
  Charge       = 0
  Multiplicity = 1
  Basis Set: AUG-CC-PVTZ
    Blend: AUG-CC-PVTZ
  Basis Set: (AUG-CC-PVTZ AUX)
    Blend: AUG-CC-PVTZ-JKFIT

    Orbital Energies [Eh]
    ---------------------

    Doubly Occupied:

       1A    -20.509930     2A    -15.632546     3A    -15.629450
       4A    -15.546803     5A    -11.384869     6A    -11.376753
       7A    -11.319789     8A    -11.233657     9A     -1.389325
      10A     -1.323899    11A     -1.243193    12A     -1.199018
      13A     -1.057739    14A     -0.903595    15A     -0.882213
      16A     -0.784646    17A     -0.753324    18A     -0.719688
      19A     -0.686408    20A     -0.639137    21A     -0.630629
      22A     -0.620613    23A     -0.559681    24A     -0.548445
      25A     -0.460870    26A     -0.448129    27A     -0.442516
      28A     -0.414056    29A     -0.326307

  @DF-RHF Final Energy:  -392.74394280351828

   => Energetics <=

    Nuclear Repulsion Energy =            354.7017101858690467
    One-Electron Energy =               -1237.5568467226066787
    Two-Electron Energy =                 490.1111937332193520
    Total Energy =                       -392.7439428035182800
  Basis Set: (AUG-CC-PVTZ AUX)
    Blend: AUG-CC-PVTZ-RI
    Molecular point group: c1

    Geometry (in Angstrom), charge = 0, multiplicity = 1:

       Center              X                  Y                   Z               Mass
    ------------   -----------------  -----------------  -----------------  -----------------
         O           -2.169435116906    -1.163815603315     0.000146425895    15.994914619570
         N            0.090546883094    -0.904752603315    -0.000014574105    14.003074004430
         N            2.418502883094    -0.843797603315    -0.000519574105    14.003074004430
         N           -1.333311116906     1.006599396685     0.000230425895    14.003074004430
         C            1.234639883094    -0.173150603315    -0.000118574105    12.000000000000
         C            1.102630883094     1.202401396685    -0.000076574105    12.000000000000
         C           -1.233849116906    -0.371390603315     0.000166425895    12.000000000000
         C           -0.211704116906     1.705575396685     0.000063425895    12.000000000000
         H            0.114659883094    -1.921028603315    -0.000207574105     1.007825032230
         H            1.966504883094     1.855570396685    -0.000149574105     1.007825032230
         H           -0.356062416906     2.888037396685     0.000239225895     1.007825032230
         H            3.287550883094    -0.332918603315     0.000582425895     1.007825032230
         H            2.464203883094    -1.851160603315     0.001018425895     1.007825032230

  Basis Set: AUG-CC-PVTZ
    Blend: AUG-CC-PVTZ
  Basis Set: (AUG-CC-PVTZ AUX)
    Blend: AUG-CC-PVTZ-JKFIT
	 Reference Energy          =    -392.7439428035182800 [Eh]
	 Singles Energy            =      -0.0000000000000000 [Eh]
	 Same-Spin Energy          =      -0.4071500001902570 [Eh]
	 Opposite-Spin Energy      =      -1.2150511466856497 [Eh]
	 Correlation Energy        =      -1.6222011468759068 [Eh]
	 Total Energy              =    -394.3661439503941892 [Eh]

	 ================> DF-SCS-MP2 Energies <==================
	-----------------------------------------------------------
	 SCS Same-Spin Scale       =       0.3333333333333333 [-]
	 SCS Opposite-Spin Scale   =       1.2000000000000000 [-]
	 SCS Same-Spin Energy      =      -0.1357166667300857 [Eh]
	 SCS Opposite-Spin Energy  =      -1.4580613760227796 [Eh]
	 SCS Correlation Energy    =      -1.5937780427528654 [Eh]
	 SCS Total Energy          =    -394.3377208462711678 [Eh]
	-----------------------------------------------------------

  Dipole Moment: [D]
     X:     8.1266      Y:    -0.9329      Z:     0.0030     Total:     8.1800

*** Psi4 exiting successfully. Buy a developer a beer!
