                               Psi4 1.3.2 release

  ==> Input File <==

--------------------------------------------------------------------------
#psi4
#
memory 32 gb

molecule  {
0 1
  O       -2.2334690    -1.1675340     0.0001340
  N        0.0265130    -0.9084710    -0.0000270
  N        2.3544690    -0.8475160    -0.0005320
  N       -1.3973450     1.0028810     0.0002180
  C        1.1706060    -0.1768690    -0.0001310
  C        1.0385970     1.1986830    -0.0000890
  C       -1.4424670    -0.3779568     0.0001785
  C       -0.2757380     1.7018570     0.0000510
  H        0.0506260    -1.9247470    -0.0002200
  H        1.9024710     1.8518520    -0.0001620
  H       -0.4079780     2.7850560     0.0002120
  H        3.2235170    -0.3366370     0.0005700
  H        2.4001700    -1.8548790     0.0010060
units angstrom
no_reorient  #important for SAPT in psi4, default
symmetry c1  #important for SAPT in psi4, default
}

set PROPERTIES_ORIGIN ["COM"]
properties('MP2/aug-cc-pvtz', properties = ['dipole'])
--------------------------------------------------------------------------

    Molecular point group: c1
  Charge       = 0
  Multiplicity = 1
  Basis Set: AUG-CC-PVTZ
    Blend: AUG-CC-PVTZ
  Basis Set: (AUG-CC-PVTZ AUX)
    Blend: AUG-CC-PVTZ-JKFIT

    Orbital Energies [Eh]
    ---------------------

    Doubly Occupied:

       1A    -20.541886     2A    -15.617564     3A    -15.601845
       4A    -15.536571     5A    -11.380656     6A    -11.370560
       7A    -11.306421     8A    -11.220771     9A     -1.464156
      10A     -1.314452    11A     -1.233381    12A     -1.175147
      13A     -1.046970    14A     -0.901915    15A     -0.855617
      16A     -0.768265    17A     -0.744826    18A     -0.707200
      19A     -0.689470    20A     -0.659244    21A     -0.632782
      22A     -0.619951    23A     -0.574448    24A     -0.572189
      25A     -0.478700    26A     -0.466565    27A     -0.429532
      28A     -0.393942    29A     -0.320565

  @DF-RHF Final Energy:  -392.73084741338187

   => Energetics <=

    Nuclear Repulsion Energy =            354.5396529567086077
    One-Electron Energy =               -1237.2898186475570128
    Two-Electron Energy =                 490.0193182774665956
    Total Energy =                       -392.7308474133818663
  Basis Set: (AUG-CC-PVTZ AUX)
    Blend: AUG-CC-PVTZ-RI
    Molecular point group: c1

    Geometry (in Angstrom), charge = 0, multiplicity = 1:

       Center              X                  Y                   Z               Mass
    ------------   -----------------  -----------------  -----------------  -----------------
         O           -2.153920489129    -1.162606945230     0.000143912602    15.994914619570
         N            0.106061510871    -0.903543945230    -0.000017087398    14.003074004430
         N            2.434017510871    -0.842588945230    -0.000522087398    14.003074004430
         N           -1.317796489129     1.007808054770     0.000227912602    14.003074004430
         C            1.250154510871    -0.171941945230    -0.000121087398    12.000000000000
         C            1.118145510871     1.203610054770    -0.000079087398    12.000000000000
         C           -1.362918489129    -0.373029745230     0.000188412602    12.000000000000
         C           -0.196189489129     1.706784054770     0.000060912602    12.000000000000
         H            0.130174510871    -1.919819945230    -0.000210087398     1.007825032230
         H            1.982019510871     1.856779054770    -0.000152087398     1.007825032230
         H           -0.328429489129     2.789983054770     0.000221912602     1.007825032230
         H            3.303065510871    -0.331709945230     0.000579912602     1.007825032230
         H            2.479718510871    -1.849951945230     0.001015912602     1.007825032230

  Basis Set: AUG-CC-PVTZ
    Blend: AUG-CC-PVTZ
  Basis Set: (AUG-CC-PVTZ AUX)
    Blend: AUG-CC-PVTZ-JKFIT
	 Reference Energy          =    -392.7308474133818663 [Eh]
	 Singles Energy            =      -0.0000000000000000 [Eh]
	 Same-Spin Energy          =      -0.4056148570290958 [Eh]
	 Opposite-Spin Energy      =      -1.2114707657763675 [Eh]
	 Correlation Energy        =      -1.6170856228054633 [Eh]
	 Total Energy              =    -394.3479330361873281 [Eh]

	 ================> DF-SCS-MP2 Energies <==================
	-----------------------------------------------------------
	 SCS Same-Spin Scale       =       0.3333333333333333 [-]
	 SCS Opposite-Spin Scale   =       1.2000000000000000 [-]
	 SCS Same-Spin Energy      =      -0.1352049523430319 [Eh]
	 SCS Opposite-Spin Energy  =      -1.4537649189316408 [Eh]
	 SCS Correlation Energy    =      -1.5889698712746727 [Eh]
	 SCS Total Energy          =    -394.3198172846565512 [Eh]
	-----------------------------------------------------------

  Dipole Moment: [D]
     X:     6.7486      Y:    -1.3276      Z:     0.0031     Total:     6.8780

*** Psi4 exiting successfully. Buy a developer a beer!
