                               Psi4 1.3.2 release

  ==> Input File <==

--------------------------------------------------------------------------
#psi4
#
memory 32 gb

molecule  {
0 1
  O       -2.2334690    -1.1675340     0.0001340
  N        0.0750093    -0.7671121    -0.0000276
  N        2.3544690    -0.8475160    -0.0005320
  N       -1.3973450     1.0028810     0.0002180
  C        1.1706060    -0.1768690    -0.0001310
  C        1.0385970     1.1986830    -0.0000890
  C       -1.2978830    -0.3751090     0.0001540
  C       -0.2757380     1.7018570     0.0000510
  H        0.0506260    -1.9247470    -0.0002200
  H        1.9024710     1.8518520    -0.0001620
  H       -0.4079780     2.7850560     0.0002120
  H        3.2235170    -0.3366370     0.0005700
  H        2.4001700    -1.8548790     0.0010060
units angstrom
no_reorient  #important for SAPT in psi4, default
symmetry c1  #important for SAPT in psi4, default
}

set PROPERTIES_ORIGIN ["COM"]
properties('MP2/aug-cc-pvtz', properties = ['dipole'])
--------------------------------------------------------------------------

    Molecular point group: c1
  Charge       = 0
  Multiplicity = 1
  Basis Set: AUG-CC-PVTZ
    Blend: AUG-CC-PVTZ
  Basis Set: (AUG-CC-PVTZ AUX)
    Blend: AUG-CC-PVTZ-JKFIT

    Orbital Energies [Eh]
    ---------------------

    Doubly Occupied:

       1A    -20.520299     2A    -15.646116     3A    -15.626850
       4A    -15.540370     5A    -11.383404     6A    -11.372554
       7A    -11.301823     8A    -11.225628     9A     -1.402853
      10A     -1.345965    11A     -1.248840    12A     -1.199442
      13A     -1.055911    14A     -0.912902    15A     -0.894216
      16A     -0.790957    17A     -0.754035    18A     -0.701227
      19A     -0.682571    20A     -0.660266    21A     -0.635180
      22A     -0.614303    23A     -0.562203    24A     -0.551017
      25A     -0.457751    26A     -0.454522    27A     -0.451782
      28A     -0.410271    29A     -0.320993

  @DF-RHF Final Energy:  -392.71337527110239

   => Energetics <=

    Nuclear Repulsion Energy =            357.6831804617089574
    One-Electron Energy =               -1243.3446123925521078
    Two-Electron Energy =                 492.9480566597407574
    Total Energy =                       -392.7133752711023931
  Basis Set: (AUG-CC-PVTZ AUX)
    Blend: AUG-CC-PVTZ-RI
    Molecular point group: c1

    Geometry (in Angstrom), charge = 0, multiplicity = 1:

       Center              X                  Y                   Z               Mass
    ------------   -----------------  -----------------  -----------------  -----------------
         O           -2.175660712163    -1.180740713145     0.000146635882    15.994914619570
         N            0.132817587837    -0.780318813145    -0.000014964118    14.003074004430
         N            2.412277287837    -0.860722713145    -0.000519364118    14.003074004430
         N           -1.339536712163     0.989674286855     0.000230635882    14.003074004430
         C            1.228414287837    -0.190075713145    -0.000118364118    12.000000000000
         C            1.096405287837     1.185476286855    -0.000076364118    12.000000000000
         C           -1.240074712163    -0.388315713145     0.000166635882    12.000000000000
         C           -0.217929712163     1.688650286855     0.000063635882    12.000000000000
         H            0.108434287837    -1.937953713145    -0.000207364118     1.007825032230
         H            1.960279287837     1.838645286855    -0.000149364118     1.007825032230
         H           -0.350169712163     2.771849286855     0.000224635882     1.007825032230
         H            3.281325287837    -0.349843713145     0.000582635882     1.007825032230
         H            2.457978287837    -1.868085713145     0.001018635882     1.007825032230

  Basis Set: AUG-CC-PVTZ
    Blend: AUG-CC-PVTZ
  Basis Set: (AUG-CC-PVTZ AUX)
    Blend: AUG-CC-PVTZ-JKFIT
	 Reference Energy          =    -392.7133752711023931 [Eh]
	 Singles Energy            =      -0.0000000000000000 [Eh]
	 Same-Spin Energy          =      -0.4099845262872462 [Eh]
	 Opposite-Spin Energy      =      -1.2184716618286311 [Eh]
	 Correlation Energy        =      -1.6284561881158772 [Eh]
	 Total Energy              =    -394.3418314592182696 [Eh]

	 ================> DF-SCS-MP2 Energies <==================
	-----------------------------------------------------------
	 SCS Same-Spin Scale       =       0.3333333333333333 [-]
	 SCS Opposite-Spin Scale   =       1.2000000000000000 [-]
	 SCS Same-Spin Energy      =      -0.1366615087624154 [Eh]
	 SCS Opposite-Spin Energy  =      -1.4621659941943572 [Eh]
	 SCS Correlation Energy    =      -1.5988275029567727 [Eh]
	 SCS Total Energy          =    -394.3122027740591875 [Eh]
	-----------------------------------------------------------

  Dipole Moment: [D]
     X:     7.9558      Y:    -1.2093      Z:     0.0031     Total:     8.0471

*** Psi4 exiting successfully. Buy a developer a beer!
