                               Psi4 1.3.2 release

  ==> Input File <==

--------------------------------------------------------------------------
#psi4
#
memory 32 gb

molecule  {
0 1
  O       -2.2334690    -1.1675340     0.0001340
  N        0.0265130    -0.9084710    -0.0000270
  N        2.3544690    -0.8475160    -0.0005320
  N       -1.3973450     1.0028810     0.0002180
  C        1.2662381    -0.1643097    -0.0001401
  C        1.0385970     1.1986830    -0.0000890
  C       -1.2978830    -0.3751090     0.0001540
  C       -0.2757380     1.7018570     0.0000510
  H        0.0506260    -1.9247470    -0.0002200
  H        1.9024710     1.8518520    -0.0001620
  H       -0.4079780     2.7850560     0.0002120
  H        3.2235170    -0.3366370     0.0005700
  H        2.4001700    -1.8548790     0.0010060
units angstrom
no_reorient  #important for SAPT in psi4, default
symmetry c1  #important for SAPT in psi4, default
}

set PROPERTIES_ORIGIN ["COM"]
properties('MP2/aug-cc-pvtz', properties = ['dipole'])
--------------------------------------------------------------------------

    Molecular point group: c1
  Charge       = 0
  Multiplicity = 1
  Basis Set: AUG-CC-PVTZ
    Blend: AUG-CC-PVTZ
  Basis Set: (AUG-CC-PVTZ AUX)
    Blend: AUG-CC-PVTZ-JKFIT

    Orbital Energies [Eh]
    ---------------------

    Doubly Occupied:

       1A    -20.503834     2A    -15.641946     3A    -15.620125
       4A    -15.542283     5A    -11.385467     6A    -11.370088
       7A    -11.308437     8A    -11.231518     9A     -1.379340
      10A     -1.337357    11A     -1.244429    12A     -1.186305
      13A     -1.055936    14A     -0.911593    15A     -0.876926
      16A     -0.796111    17A     -0.751839    18A     -0.727328
      19A     -0.683084    20A     -0.639021    21A     -0.633806
      22A     -0.612416    23A     -0.559495    24A     -0.556747
      25A     -0.456694    26A     -0.442629    27A     -0.432859
      28A     -0.411625    29A     -0.324010

  @DF-RHF Final Energy:  -392.73756494977442

   => Energetics <=

    Nuclear Repulsion Energy =            354.3785084522046986
    One-Electron Energy =               -1236.9856524231061030
    Two-Electron Energy =                 489.8695790211270378
    Total Energy =                       -392.7375649497744234
  Basis Set: (AUG-CC-PVTZ AUX)
    Blend: AUG-CC-PVTZ-RI
    Molecular point group: c1

    Geometry (in Angstrom), charge = 0, multiplicity = 1:

       Center              X                  Y                   Z               Mass
    ------------   -----------------  -----------------  -----------------  -----------------
         O           -2.179879679749    -1.164271928742     0.000147543619    15.994914619570
         N            0.080102320251    -0.905208928742    -0.000013456381    14.003074004430
         N            2.408058320251    -0.844253928742    -0.000518456381    14.003074004430
         N           -1.343755679749     1.006143071258     0.000231543619    14.003074004430
         C            1.319827420251    -0.161047628742    -0.000126556381    12.000000000000
         C            1.092186320251     1.201945071258    -0.000075456381    12.000000000000
         C           -1.244293679749    -0.371846928742     0.000167543619    12.000000000000
         C           -0.222148679749     1.705119071258     0.000064543619    12.000000000000
         H            0.104215320251    -1.921484928742    -0.000206456381     1.007825032230
         H            1.956060320251     1.855114071258    -0.000148456381     1.007825032230
         H           -0.354388679749     2.788318071258     0.000225543619     1.007825032230
         H            3.277106320251    -0.333374928742     0.000583543619     1.007825032230
         H            2.453759320251    -1.851616928742     0.001019543619     1.007825032230

  Basis Set: AUG-CC-PVTZ
    Blend: AUG-CC-PVTZ
  Basis Set: (AUG-CC-PVTZ AUX)
    Blend: AUG-CC-PVTZ-JKFIT
	 Reference Energy          =    -392.7375649497744234 [Eh]
	 Singles Energy            =      -0.0000000000000000 [Eh]
	 Same-Spin Energy          =      -0.4071212033498956 [Eh]
	 Opposite-Spin Energy      =      -1.2149004018577230 [Eh]
	 Correlation Energy        =      -1.6220216052076186 [Eh]
	 Total Energy              =    -394.3595865549820587 [Eh]

	 ================> DF-SCS-MP2 Energies <==================
	-----------------------------------------------------------
	 SCS Same-Spin Scale       =       0.3333333333333333 [-]
	 SCS Opposite-Spin Scale   =       1.2000000000000000 [-]
	 SCS Same-Spin Energy      =      -0.1357070677832985 [Eh]
	 SCS Opposite-Spin Energy  =      -1.4578804822292675 [Eh]
	 SCS Correlation Energy    =      -1.5935875500125660 [Eh]
	 SCS Total Energy          =    -394.3311524997869810 [Eh]
	-----------------------------------------------------------

  Dipole Moment: [D]
     X:     8.7503      Y:    -0.9731      Z:     0.0029     Total:     8.8042

*** Psi4 exiting successfully. Buy a developer a beer!
