                               Psi4 1.4a3.dev225

  ==> Input File <==

--------------------------------------------------------------------------
#psi4
#
memory 32 gb

molecule  {
0 1
  O        2.2358750    -1.1647400    -0.0019990
  N       -0.0266920    -0.9090020    -0.0014130
  N       -2.3606070    -0.8668920    -0.0783920
  N        1.3942980     1.0030250     0.0093070
  C       -1.1689180    -0.1740660     0.0003700
  C       -1.0419695     1.1766468     0.0002163
  C        1.2955060    -0.3793770     0.0033320
  C        0.2772380     1.7038820     0.0017870
  H       -0.0608440    -1.9231390    -0.0684580
  H       -1.9045160     1.8491770     0.0118680
  H        0.4106550     2.7868440     0.0040290
  H       -3.1798030    -0.3063160     0.1264620
  H       -2.3838550    -1.7605480     0.4013470
units angstrom
no_reorient  #important for SAPT in psi4, default
symmetry c1  #important for SAPT in psi4, default
}

set PROPERTIES_ORIGIN ["COM"]
properties('MP2/aug-cc-pvtz', properties = ['dipole'])
--------------------------------------------------------------------------

    Molecular point group: c1
  Charge       = 0
  Multiplicity = 1
  Basis Set: AUG-CC-PVTZ
    Blend: AUG-CC-PVTZ
  Basis Set: (AUG-CC-PVTZ AUX)
    Blend: AUG-CC-PVTZ-JKFIT

    Orbital Energies [Eh]
    ---------------------

    Doubly Occupied:

       1A    -20.513186     2A    -15.632349     3A    -15.624543
       4A    -15.554031     5A    -11.379365     6A    -11.376895
       7A    -11.315141     8A    -11.237034     9A     -1.391771
      10A     -1.322676    11A     -1.244007    12A     -1.201172
      13A     -1.061809    14A     -0.910264    15A     -0.882844
      16A     -0.774952    17A     -0.749308    18A     -0.715059
      19A     -0.687772    20A     -0.646099    21A     -0.629373
      22A     -0.622921    23A     -0.575661    24A     -0.547736
      25A     -0.463727    26A     -0.452219    27A     -0.448246
      28A     -0.419410    29A     -0.333403

  @DF-RHF Final Energy:  -392.75071111519395

   => Energetics <=

    Nuclear Repulsion Energy =            355.2450950315133014
    One-Electron Energy =               -1238.5656653656960771
    Two-Electron Energy =                 490.5698592189888245
    Total Energy =                       -392.7507111151939512
  Basis Set: (AUG-CC-PVTZ AUX)
    Blend: AUG-CC-PVTZ-RI
    Molecular point group: c1

    Geometry (in Angstrom), charge = 0, multiplicity = 1:

       Center              X                  Y                   Z               Mass
    ------------   -----------------  -----------------  -----------------  -----------------
         O            2.172604372839    -1.156847977279     0.002249183158    15.994914619570
         N           -0.089962627161    -0.901109977279     0.002835183158    14.003074004430
         N           -2.423877627161    -0.858999977279    -0.074143816842    14.003074004430
         N            1.331027372839     1.010917022721     0.013555183158    14.003074004430
         C           -1.232188627161    -0.166173977279     0.004618183158    12.000000000000
         C           -1.105240127161     1.184538822721     0.004464483158    12.000000000000
         C            1.232235372839    -0.371484977279     0.007580183158    12.000000000000
         C            0.213967372839     1.711774022721     0.006035183158    12.000000000000
         H           -0.124114627161    -1.915246977279    -0.064209816842     1.007825032230
         H           -1.967786627161     1.857069022721     0.016116183158     1.007825032230
         H            0.347384372839     2.794736022721     0.008277183158     1.007825032230
         H           -3.243073627161    -0.298423977279     0.130710183158     1.007825032230
         H           -2.447125627161    -1.752655977279     0.405595183158     1.007825032230

  Basis Set: AUG-CC-PVTZ
    Blend: AUG-CC-PVTZ
  Basis Set: (AUG-CC-PVTZ AUX)
    Blend: AUG-CC-PVTZ-JKFIT
	 Reference Energy          =    -392.7507111151939512 [Eh]
	 Singles Energy            =      -0.0000000000000000 [Eh]
	 Same-Spin Energy          =      -0.4067061097731293 [Eh]
	 Opposite-Spin Energy      =      -1.2149445404656010 [Eh]
	 Correlation Energy        =      -1.6216506502387302 [Eh]
	 Total Energy              =    -394.3723617654326858 [Eh]

	 ================> DF-SCS-MP2 Energies <==================
	-----------------------------------------------------------
	 SCS Same-Spin Scale       =       0.3333333333333333 [-]
	 SCS Opposite-Spin Scale   =       1.2000000000000000 [-]
	 SCS Same-Spin Energy      =      -0.1355687032577098 [Eh]
	 SCS Opposite-Spin Energy  =      -1.4579334485587212 [Eh]
	 SCS Correlation Energy    =      -1.5935021518164310 [Eh]
	 SCS Total Energy          =    -394.3442132670103888 [Eh]
	-----------------------------------------------------------

  Dipole Moment: [D]
     X:    -7.5122      Y:    -0.3323      Z:     0.8636     Total:     7.5690

*** Psi4 exiting successfully. Buy a developer a beer!
