                               Psi4 1.3.2 release

  ==> Input File <==

--------------------------------------------------------------------------
#psi4
#
memory 32 gb

molecule  {
0 1
  O       -2.2334690    -1.1675340     0.0001340
  N        0.0265130    -0.9084710    -0.0000270
  N        2.3544690    -0.8475160    -0.0005320
  N       -1.3973450     1.0028810     0.0002180
  C        1.1706060    -0.1768690    -0.0001310
  C        1.0385970     1.1986830    -0.0000890
  C       -1.2978830    -0.3751090     0.0001540
  C       -0.3691281     1.7376101     0.0000609
  H        0.0506260    -1.9247470    -0.0002200
  H        1.9024710     1.8518520    -0.0001620
  H       -0.4079780     2.7850560     0.0002120
  H        3.2235170    -0.3366370     0.0005700
  H        2.4001700    -1.8548790     0.0010060
units angstrom
no_reorient  #important for SAPT in psi4, default
symmetry c1  #important for SAPT in psi4, default
}

set PROPERTIES_ORIGIN ["COM"]
properties('MP2/aug-cc-pvtz', properties = ['dipole'])
--------------------------------------------------------------------------

    Molecular point group: c1
  Charge       = 0
  Multiplicity = 1
  Basis Set: AUG-CC-PVTZ
    Blend: AUG-CC-PVTZ
  Basis Set: (AUG-CC-PVTZ AUX)
    Blend: AUG-CC-PVTZ-JKFIT

    Orbital Energies [Eh]
    ---------------------

    Doubly Occupied:

       1A    -20.518823     2A    -15.627961     3A    -15.619538
       4A    -15.551527     5A    -11.385321     6A    -11.372719
       7A    -11.311492     8A    -11.230237     9A     -1.393888
      10A     -1.319353    11A     -1.253018    12A     -1.205936
      13A     -1.037758    14A     -0.913218    15A     -0.882317
      16A     -0.776443    17A     -0.750575    18A     -0.724229
      19A     -0.699503    20A     -0.636102    21A     -0.632049
      22A     -0.614286    23A     -0.583549    24A     -0.548917
      25A     -0.466848    26A     -0.452573    27A     -0.440071
      28A     -0.412957    29A     -0.320796

  @DF-RHF Final Energy:  -392.74264456747551

   => Energetics <=

    Nuclear Repulsion Energy =            354.5730835094150279
    One-Electron Energy =               -1237.2674486933212847
    Two-Electron Energy =                 489.9517206164307481
    Total Energy =                       -392.7426445674755087
  Basis Set: (AUG-CC-PVTZ AUX)
    Blend: AUG-CC-PVTZ-RI
    Molecular point group: c1

    Geometry (in Angstrom), charge = 0, multiplicity = 1:

       Center              X                  Y                   Z               Mass
    ------------   -----------------  -----------------  -----------------  -----------------
         O           -2.159452808606    -1.166778389697     0.000145490366    15.994914619570
         N            0.100529191394    -0.907715389697    -0.000015509634    14.003074004430
         N            2.428485191394    -0.846760389697    -0.000520509634    14.003074004430
         N           -1.323328808606     1.003636610303     0.000229490366    14.003074004430
         C            1.244622191394    -0.176113389697    -0.000119509634    12.000000000000
         C            1.112613191394     1.199438610303    -0.000077509634    12.000000000000
         C           -1.223866808606    -0.374353389697     0.000165490366    12.000000000000
         C           -0.295111908606     1.738365710303     0.000072390366    12.000000000000
         H            0.124642191394    -1.923991389697    -0.000208509634     1.007825032230
         H            1.976487191394     1.852607610303    -0.000150509634     1.007825032230
         H           -0.333961808606     2.785811610303     0.000223490366     1.007825032230
         H            3.297533191394    -0.335881389697     0.000581490366     1.007825032230
         H            2.474186191394    -1.854123389697     0.001017490366     1.007825032230

  Basis Set: AUG-CC-PVTZ
    Blend: AUG-CC-PVTZ
  Basis Set: (AUG-CC-PVTZ AUX)
    Blend: AUG-CC-PVTZ-JKFIT
	 Reference Energy          =    -392.7426445674755087 [Eh]
	 Singles Energy            =      -0.0000000000000000 [Eh]
	 Same-Spin Energy          =      -0.4055543640387322 [Eh]
	 Opposite-Spin Energy      =      -1.2131662020920730 [Eh]
	 Correlation Energy        =      -1.6187205661308053 [Eh]
	 Total Energy              =    -394.3613651336063413 [Eh]

	 ================> DF-SCS-MP2 Energies <==================
	-----------------------------------------------------------
	 SCS Same-Spin Scale       =       0.3333333333333333 [-]
	 SCS Opposite-Spin Scale   =       1.2000000000000000 [-]
	 SCS Same-Spin Energy      =      -0.1351847880129107 [Eh]
	 SCS Opposite-Spin Energy  =      -1.4557994425104877 [Eh]
	 SCS Correlation Energy    =      -1.5909842305233983 [Eh]
	 SCS Total Energy          =    -394.3336287979989265 [Eh]
	-----------------------------------------------------------

  Dipole Moment: [D]
     X:     7.4448      Y:    -0.7016      Z:     0.0031     Total:     7.4778

*** Psi4 exiting successfully. Buy a developer a beer!
