                               Psi4 1.3.2 release

  ==> Input File <==

--------------------------------------------------------------------------
#psi4
#
memory 32 gb

molecule  {
0 1
  O       -2.2334690    -1.1675340     0.0001340
  N        0.0803339    -0.9864967    -0.0000550
  N        2.3544690    -0.8475160    -0.0005320
  N       -1.3973450     1.0028810     0.0002180
  C        1.1706060    -0.1768690    -0.0001310
  C        1.0385970     1.1986830    -0.0000890
  C       -1.2978830    -0.3751090     0.0001540
  C       -0.2757380     1.7018570     0.0000510
  H        0.0506260    -1.9247470    -0.0002200
  H        1.9024710     1.8518520    -0.0001620
  H       -0.4079780     2.7850560     0.0002120
  H        3.2235170    -0.3366370     0.0005700
  H        2.4001700    -1.8548790     0.0010060
units angstrom
no_reorient  #important for SAPT in psi4, default
symmetry c1  #important for SAPT in psi4, default
}

set PROPERTIES_ORIGIN ["COM"]
properties('MP2/aug-cc-pvtz', properties = ['dipole'])
--------------------------------------------------------------------------

    Molecular point group: c1
  Charge       = 0
  Multiplicity = 1
  Basis Set: AUG-CC-PVTZ
    Blend: AUG-CC-PVTZ
  Basis Set: (AUG-CC-PVTZ AUX)
    Blend: AUG-CC-PVTZ-JKFIT

    Orbital Energies [Eh]
    ---------------------

    Doubly Occupied:

       1A    -20.516538     2A    -15.623431     3A    -15.622093
       4A    -15.549353     5A    -11.384045     6A    -11.383072
       7A    -11.312363     8A    -11.233138     9A     -1.385136
      10A     -1.324217    11A     -1.237970    12A     -1.200637
      13A     -1.057005    14A     -0.916658    15A     -0.869516
      16A     -0.791183    17A     -0.754975    18A     -0.717768
      19A     -0.688490    20A     -0.640163    21A     -0.630710
      22A     -0.620930    23A     -0.575363    24A     -0.546969
      25A     -0.461771    26A     -0.450943    27A     -0.440731
      28A     -0.416407    29A     -0.326693

  @DF-RHF Final Energy:  -392.73981582788531

   => Energetics <=

    Nuclear Repulsion Energy =            353.8108872571655183
    One-Electron Energy =               -1235.7448722549729609
    Two-Electron Energy =                 489.1941691699221337
    Total Energy =                       -392.7398158278853089
  Basis Set: (AUG-CC-PVTZ AUX)
    Blend: AUG-CC-PVTZ-RI
    Molecular point group: c1

    Geometry (in Angstrom), charge = 0, multiplicity = 1:

       Center              X                  Y                   Z               Mass
    ------------   -----------------  -----------------  -----------------  -----------------
         O           -2.176332169095    -1.153075290321     0.000150091150    15.994914619570
         N            0.137470730905    -0.972037990321    -0.000038908850    14.003074004430
         N            2.411605830905    -0.833057290321    -0.000515908850    14.003074004430
         N           -1.340208169095     1.017339709679     0.000234091150    14.003074004430
         C            1.227742830905    -0.162410290321    -0.000114908850    12.000000000000
         C            1.095733830905     1.213141709679    -0.000072908850    12.000000000000
         C           -1.240746169095    -0.360650290321     0.000170091150    12.000000000000
         C           -0.218601169095     1.716315709679     0.000067091150    12.000000000000
         H            0.107762830905    -1.910288290321    -0.000203908850     1.007825032230
         H            1.959607830905     1.866310709679    -0.000145908850     1.007825032230
         H           -0.350841169095     2.799514709679     0.000228091150     1.007825032230
         H            3.280653830905    -0.322178290321     0.000586091150     1.007825032230
         H            2.457306830905    -1.840420290321     0.001022091150     1.007825032230

  Basis Set: AUG-CC-PVTZ
    Blend: AUG-CC-PVTZ
  Basis Set: (AUG-CC-PVTZ AUX)
    Blend: AUG-CC-PVTZ-JKFIT
	 Reference Energy          =    -392.7398158278853089 [Eh]
	 Singles Energy            =      -0.0000000000000000 [Eh]
	 Same-Spin Energy          =      -0.4063366505730662 [Eh]
	 Opposite-Spin Energy      =      -1.2142564564310718 [Eh]
	 Correlation Energy        =      -1.6205931070041379 [Eh]
	 Total Energy              =    -394.3604089348894490 [Eh]

	 ================> DF-SCS-MP2 Energies <==================
	-----------------------------------------------------------
	 SCS Same-Spin Scale       =       0.3333333333333333 [-]
	 SCS Opposite-Spin Scale   =       1.2000000000000000 [-]
	 SCS Same-Spin Energy      =      -0.1354455501910221 [Eh]
	 SCS Opposite-Spin Energy  =      -1.4571077477172862 [Eh]
	 SCS Correlation Energy    =      -1.5925532979083084 [Eh]
	 SCS Total Energy          =    -394.3323691257936048 [Eh]
	-----------------------------------------------------------

  Dipole Moment: [D]
     X:     7.8097      Y:    -0.7643      Z:     0.0030     Total:     7.8470

*** Psi4 exiting successfully. Buy a developer a beer!
