                               Psi4 1.3.2 release

  ==> Input File <==

--------------------------------------------------------------------------
#psi4
#
memory 32 gb

molecule  {
0 1
  O       -2.2334690    -1.1675340     0.0001340
  N        0.0265130    -0.9084710    -0.0000270
  N        2.3544690    -0.8475160    -0.0005320
  N       -1.3973450     1.0028810     0.0002180
  C        1.1706060    -0.1768690    -0.0001310
  C        1.0385970     1.1986830    -0.0000890
  C       -1.2978830    -0.3751090     0.0001540
  C       -0.2757380     1.7018570     0.0000510
  H        0.0506260    -1.9247470    -0.0002200
  H        2.0620032     1.9724732    -0.0001755
  H       -0.4079780     2.7850560     0.0002120
  H        3.2235170    -0.3366370     0.0005700
  H        2.4001700    -1.8548790     0.0010060
units angstrom
no_reorient  #important for SAPT in psi4, default
symmetry c1  #important for SAPT in psi4, default
}

set PROPERTIES_ORIGIN ["COM"]
properties('MP2/aug-cc-pvtz', properties = ['dipole'])
--------------------------------------------------------------------------

    Molecular point group: c1
  Charge       = 0
  Multiplicity = 1
  Basis Set: AUG-CC-PVTZ
    Blend: AUG-CC-PVTZ
  Basis Set: (AUG-CC-PVTZ AUX)
    Blend: AUG-CC-PVTZ-JKFIT

    Orbital Energies [Eh]
    ---------------------

    Doubly Occupied:

       1A    -20.510172     2A    -15.633486     3A    -15.628919
       4A    -15.547398     5A    -11.386384     6A    -11.376776
       7A    -11.311180     8A    -11.253653     9A     -1.389763
      10A     -1.324059    11A     -1.243743    12A     -1.200024
      13A     -1.053250    14A     -0.910648    15A     -0.881250
      16A     -0.783944    17A     -0.744952    18A     -0.720221
      19A     -0.692200    20A     -0.639750    21A     -0.633276
      22A     -0.602874    23A     -0.549744    24A     -0.548451
      25A     -0.461744    26A     -0.448096    27A     -0.442696
      28A     -0.416440    29A     -0.326892

  @DF-RHF Final Energy:  -392.72872396593613

   => Energetics <=

    Nuclear Repulsion Energy =            354.2691207980189461
    One-Electron Energy =               -1236.6717237769871645
    Two-Electron Energy =                 489.6738790130320353
    Total Energy =                       -392.7287239659361262
  Basis Set: (AUG-CC-PVTZ AUX)
    Blend: AUG-CC-PVTZ-RI
    Molecular point group: c1

    Geometry (in Angstrom), charge = 0, multiplicity = 1:

       Center              X                  Y                   Z               Mass
    ------------   -----------------  -----------------  -----------------  -----------------
         O           -2.170993011261    -1.164009449644     0.000146682745    15.994914619570
         N            0.088988988739    -0.904946449644    -0.000014317255    14.003074004430
         N            2.416944988739    -0.843991449644    -0.000519317255    14.003074004430
         N           -1.334869011261     1.006405550356     0.000230682745    14.003074004430
         C            1.233081988739    -0.173344449644    -0.000118317255    12.000000000000
         C            1.101072988739     1.202207550356    -0.000076317255    12.000000000000
         C           -1.235407011261    -0.371584449644     0.000166682745    12.000000000000
         C           -0.213262011261     1.705381550356     0.000063682745    12.000000000000
         H            0.113101988739    -1.921222449644    -0.000207317255     1.007825032230
         H            2.124479188739     1.975997750356    -0.000162817255     1.007825032230
         H           -0.345502011261     2.788580550356     0.000224682745     1.007825032230
         H            3.285992988739    -0.333112449644     0.000582682745     1.007825032230
         H            2.462645988739    -1.851354449644     0.001018682745     1.007825032230

  Basis Set: AUG-CC-PVTZ
    Blend: AUG-CC-PVTZ
  Basis Set: (AUG-CC-PVTZ AUX)
    Blend: AUG-CC-PVTZ-JKFIT
	 Reference Energy          =    -392.7287239659361262 [Eh]
	 Singles Energy            =      -0.0000000000000000 [Eh]
	 Same-Spin Energy          =      -0.4072745358638018 [Eh]
	 Opposite-Spin Energy      =      -1.2160087035164420 [Eh]
	 Correlation Energy        =      -1.6232832393802439 [Eh]
	 Total Energy              =    -394.3520072053163972 [Eh]

	 ================> DF-SCS-MP2 Energies <==================
	-----------------------------------------------------------
	 SCS Same-Spin Scale       =       0.3333333333333333 [-]
	 SCS Opposite-Spin Scale   =       1.2000000000000000 [-]
	 SCS Same-Spin Energy      =      -0.1357581786212673 [Eh]
	 SCS Opposite-Spin Energy  =      -1.4592104442197302 [Eh]
	 SCS Correlation Energy    =      -1.5949686228409976 [Eh]
	 SCS Total Energy          =    -394.3236925887771349 [Eh]
	-----------------------------------------------------------

  Dipole Moment: [D]
     X:     8.0853      Y:    -0.8815      Z:     0.0030     Total:     8.1332

*** Psi4 exiting successfully. Buy a developer a beer!
