                               Psi4 1.3.2 release

  ==> Input File <==

--------------------------------------------------------------------------
#psi4
#
memory 32 gb

molecule  {
0 1
  O       -2.2334690    -1.1675340     0.0001340
  N        0.0265130    -0.9084710    -0.0000270
  N        2.3544690    -0.8475160    -0.0005320
  N       -1.3973450     1.0028810     0.0002180
  C        1.1706060    -0.1768690    -0.0001310
  C        1.0385970     1.1986830    -0.0000890
  C       -1.2978830    -0.3751090     0.0001540
  C       -0.3076360     1.6089479     0.0000524
  H        0.0506260    -1.9247470    -0.0002200
  H        1.9024710     1.8518520    -0.0001620
  H       -0.4079780     2.7850560     0.0002120
  H        3.2235170    -0.3366370     0.0005700
  H        2.4001700    -1.8548790     0.0010060
units angstrom
no_reorient  #important for SAPT in psi4, default
symmetry c1  #important for SAPT in psi4, default
}

set PROPERTIES_ORIGIN ["COM"]
properties('MP2/aug-cc-pvtz', properties = ['dipole'])
--------------------------------------------------------------------------

    Molecular point group: c1
  Charge       = 0
  Multiplicity = 1
  Basis Set: AUG-CC-PVTZ
    Blend: AUG-CC-PVTZ
  Basis Set: (AUG-CC-PVTZ AUX)
    Blend: AUG-CC-PVTZ-JKFIT

    Orbital Energies [Eh]
    ---------------------

    Doubly Occupied:

       1A    -20.515562     2A    -15.632339     3A    -15.626147
       4A    -15.547088     5A    -11.380703     6A    -11.380015
       7A    -11.304191     8A    -11.229633     9A     -1.395648
      10A     -1.324670    11A     -1.262551    12A     -1.210844
      13A     -1.058496    14A     -0.899702    15A     -0.889029
      16A     -0.786559    17A     -0.755943    18A     -0.718940
      19A     -0.686958    20A     -0.642766    21A     -0.635077
      22A     -0.623856    23A     -0.556780    24A     -0.551587
      25A     -0.475743    26A     -0.456124    27A     -0.443392
      28A     -0.412869    29A     -0.328805

  @DF-RHF Final Energy:  -392.74094574560991

   => Energetics <=

    Nuclear Repulsion Energy =            357.0989441406367177
    One-Electron Energy =               -1242.2157377389189605
    Two-Electron Energy =                 492.3758478526723366
    Total Energy =                       -392.7409457456099062
  Basis Set: (AUG-CC-PVTZ AUX)
    Blend: AUG-CC-PVTZ-RI
    Molecular point group: c1

    Geometry (in Angstrom), charge = 0, multiplicity = 1:

       Center              X                  Y                   Z               Mass
    ------------   -----------------  -----------------  -----------------  -----------------
         O           -2.166098013259    -1.152874381700     0.000146408927    15.994914619570
         N            0.093883986741    -0.893811381700    -0.000014591073    14.003074004430
         N            2.421839986741    -0.832856381700    -0.000519591073    14.003074004430
         N           -1.329974013259     1.017540618300     0.000230408927    14.003074004430
         C            1.237976986741    -0.162209381700    -0.000118591073    12.000000000000
         C            1.105967986741     1.213342618300    -0.000076591073    12.000000000000
         C           -1.230512013259    -0.360449381700     0.000166408927    12.000000000000
         C           -0.240265013259     1.623607518300     0.000064808927    12.000000000000
         H            0.117996986741    -1.910087381700    -0.000207591073     1.007825032230
         H            1.969841986741     1.866511618300    -0.000149591073     1.007825032230
         H           -0.340607013259     2.799715618300     0.000224408927     1.007825032230
         H            3.290887986741    -0.321977381700     0.000582408927     1.007825032230
         H            2.467540986741    -1.840219381700     0.001018408927     1.007825032230

  Basis Set: AUG-CC-PVTZ
    Blend: AUG-CC-PVTZ
  Basis Set: (AUG-CC-PVTZ AUX)
    Blend: AUG-CC-PVTZ-JKFIT
	 Reference Energy          =    -392.7409457456099062 [Eh]
	 Singles Energy            =      -0.0000000000000000 [Eh]
	 Same-Spin Energy          =      -0.4061864144036664 [Eh]
	 Opposite-Spin Energy      =      -1.2129823260326078 [Eh]
	 Correlation Energy        =      -1.6191687404362742 [Eh]
	 Total Energy              =    -394.3601144860462000 [Eh]

	 ================> DF-SCS-MP2 Energies <==================
	-----------------------------------------------------------
	 SCS Same-Spin Scale       =       0.3333333333333333 [-]
	 SCS Opposite-Spin Scale   =       1.2000000000000000 [-]
	 SCS Same-Spin Energy      =      -0.1353954714678888 [Eh]
	 SCS Opposite-Spin Energy  =      -1.4555787912391294 [Eh]
	 SCS Correlation Energy    =      -1.5909742627070182 [Eh]
	 SCS Total Energy          =    -394.3319200083168994 [Eh]
	-----------------------------------------------------------

  Dipole Moment: [D]
     X:     7.8720      Y:    -1.1133      Z:     0.0030     Total:     7.9504

*** Psi4 exiting successfully. Buy a developer a beer!
