                               Psi4 1.3.2 release

  ==> Input File <==

--------------------------------------------------------------------------
#psi4
#
memory 32 gb

molecule  {
0 1
  O       -2.2334690    -1.1675340     0.0001340
  N        0.0265130    -0.9084710    -0.0000270
  N        2.3544690    -0.8475160    -0.0005320
  N       -1.3973450     1.0028810     0.0002180
  C        1.1706060    -0.1768690    -0.0001310
  C        1.0385970     1.1986830    -0.0000890
  C       -1.2978830    -0.3751090     0.0001540
  C       -0.0889577     1.6303509     0.0000311
  H        0.0506260    -1.9247470    -0.0002200
  H        1.9024710     1.8518520    -0.0001620
  H       -0.4079780     2.7850560     0.0002120
  H        3.2235170    -0.3366370     0.0005700
  H        2.4001700    -1.8548790     0.0010060
units angstrom
no_reorient  #important for SAPT in psi4, default
symmetry c1  #important for SAPT in psi4, default
}

set PROPERTIES_ORIGIN ["COM"]
properties('MP2/aug-cc-pvtz', properties = ['dipole'])
--------------------------------------------------------------------------

    Molecular point group: c1
  Charge       = 0
  Multiplicity = 1
  Basis Set: AUG-CC-PVTZ
    Blend: AUG-CC-PVTZ
  Basis Set: (AUG-CC-PVTZ AUX)
    Blend: AUG-CC-PVTZ-JKFIT

    Orbital Energies [Eh]
    ---------------------

    Doubly Occupied:

       1A    -20.490547     2A    -15.650150     3A    -15.641620
       4A    -15.531074     5A    -11.408876     6A    -11.356460
       7A    -11.291542     8A    -11.230382     9A     -1.383374
      10A     -1.330472    11A     -1.244356    12A     -1.178627
      13A     -1.095759    14A     -0.930151    15A     -0.868694
      16A     -0.798546    17A     -0.756122    18A     -0.723891
      19A     -0.693619    20A     -0.659712    21A     -0.648333
      22A     -0.605621    23A     -0.546380    24A     -0.513962
      25A     -0.473960    26A     -0.443288    27A     -0.435595
      28A     -0.404881    29A     -0.326867

  @DF-RHF Final Energy:  -392.68483809818696

   => Energetics <=

    Nuclear Repulsion Energy =            356.9121420695704501
    One-Electron Energy =               -1241.8682397786237743
    Two-Electron Energy =                 492.2712596108663661
    Total Energy =                       -392.6848380981869582
  Basis Set: (AUG-CC-PVTZ AUX)
    Blend: AUG-CC-PVTZ-RI
    Molecular point group: c1

    Geometry (in Angstrom), charge = 0, multiplicity = 1:

       Center              X                  Y                   Z               Mass
    ------------   -----------------  -----------------  -----------------  -----------------
         O           -2.189729700204    -1.155187318080     0.000148710732    15.994914619570
         N            0.070252299796    -0.896124318080    -0.000012289268    14.003074004430
         N            2.398208299796    -0.835169318080    -0.000517289268    14.003074004430
         N           -1.353605700204     1.015227681920     0.000232710732    14.003074004430
         C            1.214345299796    -0.164522318080    -0.000116289268    12.000000000000
         C            1.082336299796     1.211029681920    -0.000074289268    12.000000000000
         C           -1.254143700204    -0.362762318080     0.000168710732    12.000000000000
         C           -0.045218400204     1.642697581920     0.000045810732    12.000000000000
         H            0.094365299796    -1.912400318080    -0.000205289268     1.007825032230
         H            1.946210299796     1.864198681920    -0.000147289268     1.007825032230
         H           -0.364238700204     2.797402681920     0.000226710732     1.007825032230
         H            3.267256299796    -0.324290318080     0.000584710732     1.007825032230
         H            2.443909299796    -1.842532318080     0.001020710732     1.007825032230

  Basis Set: AUG-CC-PVTZ
    Blend: AUG-CC-PVTZ
  Basis Set: (AUG-CC-PVTZ AUX)
    Blend: AUG-CC-PVTZ-JKFIT
	 Reference Energy          =    -392.6848380981869582 [Eh]
	 Singles Energy            =      -0.0000000000000000 [Eh]
	 Same-Spin Energy          =      -0.4091429601561140 [Eh]
	 Opposite-Spin Energy      =      -1.2180837765877657 [Eh]
	 Correlation Energy        =      -1.6272267367438795 [Eh]
	 Total Energy              =    -394.3120648349308226 [Eh]

	 ================> DF-SCS-MP2 Energies <==================
	-----------------------------------------------------------
	 SCS Same-Spin Scale       =       0.3333333333333333 [-]
	 SCS Opposite-Spin Scale   =       1.2000000000000000 [-]
	 SCS Same-Spin Energy      =      -0.1363809867187046 [Eh]
	 SCS Opposite-Spin Energy  =      -1.4617005319053187 [Eh]
	 SCS Correlation Energy    =      -1.5980815186240234 [Eh]
	 SCS Total Energy          =    -394.2829196168110002 [Eh]
	-----------------------------------------------------------

  Dipole Moment: [D]
     X:     9.4808      Y:    -1.1801      Z:     0.0028     Total:     9.5539

*** Psi4 exiting successfully. Buy a developer a beer!
