                               Psi4 1.3.2 release

  ==> Input File <==

--------------------------------------------------------------------------
#psi4
#
memory 32 gb

molecule  {
0 1
  O       -2.2334690    -1.1675340     0.0001340
  N        0.0265130    -0.9084710    -0.0000270
  N        2.3544690    -0.8475160    -0.0005320
  N       -1.3973450     1.0028810     0.0002180
  C        1.1706060    -0.1768690    -0.0001310
  C        1.0385970     1.1986830    -0.0000890
  C       -1.2978830    -0.3751090     0.0001540
  C       -0.2757380     1.7018570     0.0000510
  H        0.0506260    -1.9247470    -0.0002200
  H        1.9024710     1.8518520    -0.0001620
  H       -0.4079780     2.7850560     0.0002120
  H        3.1373095    -0.3873150     0.0004607
  H        2.4001700    -1.8548790     0.0010060
units angstrom
no_reorient  #important for SAPT in psi4, default
symmetry c1  #important for SAPT in psi4, default
}

set PROPERTIES_ORIGIN ["COM"]
properties('MP2/aug-cc-pvtz', properties = ['dipole'])
--------------------------------------------------------------------------

    Molecular point group: c1
  Charge       = 0
  Multiplicity = 1
  Basis Set: AUG-CC-PVTZ
    Blend: AUG-CC-PVTZ
  Basis Set: (AUG-CC-PVTZ AUX)
    Blend: AUG-CC-PVTZ-JKFIT

    Orbital Energies [Eh]
    ---------------------

    Doubly Occupied:

       1A    -20.509753     2A    -15.632620     3A    -15.619693
       4A    -15.546428     5A    -11.384685     6A    -11.376161
       7A    -11.309529     8A    -11.233373     9A     -1.389475
      10A     -1.328726    11A     -1.250692    12A     -1.203019
      13A     -1.059886    14A     -0.913077    15A     -0.890726
      16A     -0.786150    17A     -0.767018    18A     -0.728746
      19A     -0.696604    20A     -0.639368    21A     -0.637424
      22A     -0.620763    23A     -0.570091    24A     -0.549305
      25A     -0.460764    26A     -0.448158    27A     -0.443579
      28A     -0.415957    29A     -0.326492

  @DF-RHF Final Energy:  -392.74418288123519

   => Energetics <=

    Nuclear Repulsion Energy =            355.7802303232917325
    One-Electron Energy =               -1239.5723041286264561
    Two-Electron Energy =                 491.0478909240994767
    Total Energy =                       -392.7441828812351901
  Basis Set: (AUG-CC-PVTZ AUX)
    Blend: AUG-CC-PVTZ-RI
    Molecular point group: c1

    Geometry (in Angstrom), charge = 0, multiplicity = 1:

       Center              X                  Y                   Z               Mass
    ------------   -----------------  -----------------  -----------------  -----------------
         O           -2.168762685737    -1.162454743676     0.000147552222    15.994914619570
         N            0.091219314263    -0.903391743676    -0.000013447778    14.003074004430
         N            2.419175314263    -0.842436743676    -0.000518447778    14.003074004430
         N           -1.332638685737     1.007960256324     0.000231552222    14.003074004430
         C            1.235312314263    -0.171789743676    -0.000117447778    12.000000000000
         C            1.103303314263     1.203762256324    -0.000075447778    12.000000000000
         C           -1.233176685737    -0.370029743676     0.000167552222    12.000000000000
         C           -0.211031685737     1.706936256324     0.000064552222    12.000000000000
         H            0.115332314263    -1.919667743676    -0.000206447778     1.007825032230
         H            1.967177314263     1.856931256324    -0.000148447778     1.007825032230
         H           -0.343271685737     2.790135256324     0.000225552222     1.007825032230
         H            3.202015814263    -0.382235743676     0.000474252222     1.007825032230
         H            2.464876314263    -1.849799743676     0.001019552222     1.007825032230

  Basis Set: AUG-CC-PVTZ
    Blend: AUG-CC-PVTZ
  Basis Set: (AUG-CC-PVTZ AUX)
    Blend: AUG-CC-PVTZ-JKFIT
	 Reference Energy          =    -392.7441828812351901 [Eh]
	 Singles Energy            =      -0.0000000000000000 [Eh]
	 Same-Spin Energy          =      -0.4062751788628006 [Eh]
	 Opposite-Spin Energy      =      -1.2126856338442940 [Eh]
	 Correlation Energy        =      -1.6189608127070945 [Eh]
	 Total Energy              =    -394.3631436939422770 [Eh]

	 ================> DF-SCS-MP2 Energies <==================
	-----------------------------------------------------------
	 SCS Same-Spin Scale       =       0.3333333333333333 [-]
	 SCS Opposite-Spin Scale   =       1.2000000000000000 [-]
	 SCS Same-Spin Energy      =      -0.1354250596209335 [Eh]
	 SCS Opposite-Spin Energy  =      -1.4552227606131527 [Eh]
	 SCS Correlation Energy    =      -1.5906478202340861 [Eh]
	 SCS Total Energy          =    -394.3348307014692864 [Eh]
	-----------------------------------------------------------

  Dipole Moment: [D]
     X:     8.0119      Y:    -0.9002      Z:     0.0029     Total:     8.0624

*** Psi4 exiting successfully. Buy a developer a beer!
