                               Psi4 1.3.2 release

  ==> Input File <==

--------------------------------------------------------------------------
#psi4
#
memory 32 gb

molecule  {
0 1
  O       -2.2334690    -1.1675340     0.0001340
  N        0.0265130    -0.9084710    -0.0000270
  N        2.3544690    -0.8475160    -0.0005320
  N       -1.3973450     1.0028810     0.0002180
  C        1.1706060    -0.1768690    -0.0001310
  C        1.0385970     1.1986830    -0.0000890
  C       -1.4504979    -0.5043711     0.0001507
  C       -0.2757380     1.7018570     0.0000510
  H        0.0506260    -1.9247470    -0.0002200
  H        1.9024710     1.8518520    -0.0001620
  H       -0.4079780     2.7850560     0.0002120
  H        3.2235170    -0.3366370     0.0005700
  H        2.4001700    -1.8548790     0.0010060
units angstrom
no_reorient  #important for SAPT in psi4, default
symmetry c1  #important for SAPT in psi4, default
}

set PROPERTIES_ORIGIN ["COM"]
properties('MP2/aug-cc-pvtz', properties = ['dipole'])
--------------------------------------------------------------------------

    Molecular point group: c1
  Charge       = 0
  Multiplicity = 1
  Basis Set: AUG-CC-PVTZ
    Blend: AUG-CC-PVTZ
  Basis Set: (AUG-CC-PVTZ AUX)
    Blend: AUG-CC-PVTZ-JKFIT

    Orbital Energies [Eh]
    ---------------------

    Doubly Occupied:

       1A    -20.566844     2A    -15.612241     3A    -15.602075
       4A    -15.529348     5A    -11.377125     6A    -11.365066
       7A    -11.289078     8A    -11.209898     9A     -1.552705
      10A     -1.311933    11A     -1.216012    12A     -1.161040
      13A     -1.032477    14A     -0.883775    15A     -0.854131
      16A     -0.768318    17A     -0.743608    18A     -0.717728
      19A     -0.701109    20A     -0.670415    21A     -0.669249
      22A     -0.611524    23A     -0.584279    24A     -0.571509
      25A     -0.494429    26A     -0.461636    27A     -0.428434
      28A     -0.370347    29A     -0.307987

  @DF-RHF Final Energy:  -392.66793701609168

   => Energetics <=

    Nuclear Repulsion Energy =            354.9373795112488779
    One-Electron Energy =               -1237.8819966561359252
    Two-Electron Energy =                 490.2766801287953626
    Total Energy =                       -392.6679370160916847
  Basis Set: (AUG-CC-PVTZ AUX)
    Blend: AUG-CC-PVTZ-RI
    Molecular point group: c1

    Geometry (in Angstrom), charge = 0, multiplicity = 1:

       Center              X                  Y                   Z               Mass
    ------------   -----------------  -----------------  -----------------  -----------------
         O           -2.153052621971    -1.148945858771     0.000146916837    15.994914619570
         N            0.106929378029    -0.889882858771    -0.000014083163    14.003074004430
         N            2.434885378029    -0.828927858771    -0.000519083163    14.003074004430
         N           -1.316928621971     1.021469141229     0.000230916837    14.003074004430
         C            1.251022378029    -0.158280858771    -0.000118083163    12.000000000000
         C            1.119013378029     1.217271141229    -0.000076083163    12.000000000000
         C           -1.370081521971    -0.485782958771     0.000163616837    12.000000000000
         C           -0.195321621971     1.720445141229     0.000063916837    12.000000000000
         H            0.131042378029    -1.906158858771    -0.000207083163     1.007825032230
         H            1.982887378029     1.870440141229    -0.000149083163     1.007825032230
         H           -0.327561621971     2.803644141229     0.000224916837     1.007825032230
         H            3.303933378029    -0.318048858771     0.000582916837     1.007825032230
         H            2.480586378029    -1.836290858771     0.001018916837     1.007825032230

  Basis Set: AUG-CC-PVTZ
    Blend: AUG-CC-PVTZ
  Basis Set: (AUG-CC-PVTZ AUX)
    Blend: AUG-CC-PVTZ-JKFIT
	 Reference Energy          =    -392.6679370160916847 [Eh]
	 Singles Energy            =      -0.0000000000000000 [Eh]
	 Same-Spin Energy          =      -0.4038768190878667 [Eh]
	 Opposite-Spin Energy      =      -1.2099453275977310 [Eh]
	 Correlation Energy        =      -1.6138221466855978 [Eh]
	 Total Energy              =    -394.2817591627772913 [Eh]

	 ================> DF-SCS-MP2 Energies <==================
	-----------------------------------------------------------
	 SCS Same-Spin Scale       =       0.3333333333333333 [-]
	 SCS Opposite-Spin Scale   =       1.2000000000000000 [-]
	 SCS Same-Spin Energy      =      -0.1346256063626222 [Eh]
	 SCS Opposite-Spin Energy  =      -1.4519343931172772 [Eh]
	 SCS Correlation Energy    =      -1.5865599994798996 [Eh]
	 SCS Total Energy          =    -394.2544970155715873 [Eh]
	-----------------------------------------------------------

  Dipole Moment: [D]
     X:     5.9081      Y:    -2.1991      Z:     0.0031     Total:     6.3041

*** Psi4 exiting successfully. Buy a developer a beer!
