                               Psi4 1.3.2 release

  ==> Input File <==

--------------------------------------------------------------------------
#psi4
#
memory 32 gb

molecule  {
0 1
  O       -2.2334690    -1.1675340     0.0001340
  N        0.0070921    -0.9543668    -0.0000264
  N        2.3544690    -0.8475160    -0.0005320
  N       -1.3973450     1.0028810     0.0002180
  C        1.1706060    -0.1768690    -0.0001310
  C        1.0385970     1.1986830    -0.0000890
  C       -1.2978830    -0.3751090     0.0001540
  C       -0.2757380     1.7018570     0.0000510
  H        0.0506260    -1.9247470    -0.0002200
  H        1.9024710     1.8518520    -0.0001620
  H       -0.4079780     2.7850560     0.0002120
  H        3.2235170    -0.3366370     0.0005700
  H        2.4001700    -1.8548790     0.0010060
units angstrom
no_reorient  #important for SAPT in psi4, default
symmetry c1  #important for SAPT in psi4, default
}

set PROPERTIES_ORIGIN ["COM"]
properties('MP2/aug-cc-pvtz', properties = ['dipole'])
--------------------------------------------------------------------------

    Molecular point group: c1
  Charge       = 0
  Multiplicity = 1
  Basis Set: AUG-CC-PVTZ
    Blend: AUG-CC-PVTZ
  Basis Set: (AUG-CC-PVTZ AUX)
    Blend: AUG-CC-PVTZ-JKFIT

    Orbital Energies [Eh]
    ---------------------

    Doubly Occupied:

       1A    -20.505830     2A    -15.629829     3A    -15.626925
       4A    -15.547784     5A    -11.387823     6A    -11.373887
       7A    -11.311241     8A    -11.235148     9A     -1.385789
      10A     -1.317037    11A     -1.241072    12A     -1.199723
      13A     -1.058581    14A     -0.913204    15A     -0.876307
      16A     -0.783726    17A     -0.755267    18A     -0.728798
      19A     -0.689847    20A     -0.638429    21A     -0.632521
      22A     -0.620332    23A     -0.568992    24A     -0.547288
      25A     -0.461774    26A     -0.446036    27A     -0.438097
      28A     -0.416084    29A     -0.327253

  @DF-RHF Final Energy:  -392.74838947047158

   => Energetics <=

    Nuclear Repulsion Energy =            354.4284922360763517
    One-Electron Energy =               -1237.0245158988846015
    Two-Electron Energy =                 489.8476341923366135
    Total Energy =                       -392.7483894704715794
  Basis Set: (AUG-CC-PVTZ AUX)
    Blend: AUG-CC-PVTZ-RI
    Molecular point group: c1

    Geometry (in Angstrom), charge = 0, multiplicity = 1:

       Center              X                  Y                   Z               Mass
    ------------   -----------------  -----------------  -----------------  -----------------
         O           -2.167096035996    -1.157127020793     0.000146484556    15.994914619570
         N            0.073465064004    -0.943959820793    -0.000013915444    14.003074004430
         N            2.420841964004    -0.837109020793    -0.000519515444    14.003074004430
         N           -1.330972035996     1.013287979207     0.000230484556    14.003074004430
         C            1.236978964004    -0.166462020793    -0.000118515444    12.000000000000
         C            1.104969964004     1.209089979207    -0.000076515444    12.000000000000
         C           -1.231510035996    -0.364702020793     0.000166484556    12.000000000000
         C           -0.209365035996     1.712263979207     0.000063484556    12.000000000000
         H            0.116998964004    -1.914340020793    -0.000207515444     1.007825032230
         H            1.968843964004     1.862258979207    -0.000149515444     1.007825032230
         H           -0.341605035996     2.795462979207     0.000224484556     1.007825032230
         H            3.289889964004    -0.326230020793     0.000582484556     1.007825032230
         H            2.466542964004    -1.844472020793     0.001018484556     1.007825032230

  Basis Set: AUG-CC-PVTZ
    Blend: AUG-CC-PVTZ
  Basis Set: (AUG-CC-PVTZ AUX)
    Blend: AUG-CC-PVTZ-JKFIT
	 Reference Energy          =    -392.7483894704715794 [Eh]
	 Singles Energy            =      -0.0000000000000000 [Eh]
	 Same-Spin Energy          =      -0.4061361240827930 [Eh]
	 Opposite-Spin Energy      =      -1.2135753645390006 [Eh]
	 Correlation Energy        =      -1.6197114886217936 [Eh]
	 Total Energy              =    -394.3681009590933968 [Eh]

	 ================> DF-SCS-MP2 Energies <==================
	-----------------------------------------------------------
	 SCS Same-Spin Scale       =       0.3333333333333333 [-]
	 SCS Opposite-Spin Scale   =       1.2000000000000000 [-]
	 SCS Same-Spin Energy      =      -0.1353787080275977 [Eh]
	 SCS Opposite-Spin Energy  =      -1.4562904374468006 [Eh]
	 SCS Correlation Energy    =      -1.5916691454743983 [Eh]
	 SCS Total Energy          =    -394.3400586159459635 [Eh]
	-----------------------------------------------------------

  Dipole Moment: [D]
     X:     8.1996      Y:    -0.7316      Z:     0.0030     Total:     8.2322

*** Psi4 exiting successfully. Buy a developer a beer!
