                               Psi4 1.3.2 release

  ==> Input File <==

--------------------------------------------------------------------------
#psi4
#
memory 32 gb

molecule  {
0 1
  O       -2.2334690    -1.1675340     0.0001340
  N        0.0265130    -0.9084710    -0.0000270
  N        2.3544690    -0.8475160    -0.0005320
  N       -1.3973450     1.0028810     0.0002180
  C        1.1706060    -0.1768690    -0.0001310
  C        1.0385970     1.1986830    -0.0000890
  C       -1.2978830    -0.3751090     0.0001540
  C       -0.4454755     1.5960780     0.0000763
  H        0.0506260    -1.9247470    -0.0002200
  H        1.9024710     1.8518520    -0.0001620
  H       -0.4079780     2.7850560     0.0002120
  H        3.2235170    -0.3366370     0.0005700
  H        2.4001700    -1.8548790     0.0010060
units angstrom
no_reorient  #important for SAPT in psi4, default
symmetry c1  #important for SAPT in psi4, default
}

set PROPERTIES_ORIGIN ["COM"]
properties('MP2/aug-cc-pvtz', properties = ['dipole'])
--------------------------------------------------------------------------

    Molecular point group: c1
  Charge       = 0
  Multiplicity = 1
  Basis Set: AUG-CC-PVTZ
    Blend: AUG-CC-PVTZ
  Basis Set: (AUG-CC-PVTZ AUX)
    Blend: AUG-CC-PVTZ-JKFIT

    Orbital Energies [Eh]
    ---------------------

    Doubly Occupied:

       1A    -20.531778     2A    -15.628898     3A    -15.613714
       4A    -15.550176     5A    -11.396556     6A    -11.364251
       7A    -11.298998     8A    -11.225036     9A     -1.411035
      10A     -1.329559    11A     -1.303615    12A     -1.213041
      13A     -1.031178    14A     -0.914949    15A     -0.879250
      16A     -0.778157    17A     -0.754978    18A     -0.714152
      19A     -0.685325    20A     -0.647652    21A     -0.642561
      22A     -0.616955    23A     -0.574799    24A     -0.559304
      25A     -0.501685    26A     -0.465031    27A     -0.441923
      28A     -0.397090    29A     -0.321460

  @DF-RHF Final Energy:  -392.68937589277789

   => Energetics <=

    Nuclear Repulsion Energy =            357.8306206669045650
    One-Electron Energy =               -1243.4537827033689155
    Two-Electron Energy =                 492.9337861436864614
    Total Energy =                       -392.6893758927778890
  Basis Set: (AUG-CC-PVTZ AUX)
    Blend: AUG-CC-PVTZ-RI
    Molecular point group: c1

    Geometry (in Angstrom), charge = 0, multiplicity = 1:

       Center              X                  Y                   Z               Mass
    ------------   -----------------  -----------------  -----------------  -----------------
         O           -2.151202251254    -1.151483583217     0.000143826149    15.994914619570
         N            0.108779748746    -0.892420583217    -0.000017173851    14.003074004430
         N            2.436735748746    -0.831465583217    -0.000522173851    14.003074004430
         N           -1.315078251254     1.018931416783     0.000227826149    14.003074004430
         C            1.252872748746    -0.160818583217    -0.000121173851    12.000000000000
         C            1.120863748746     1.214733416783    -0.000079173851    12.000000000000
         C           -1.215616251254    -0.359058583217     0.000163826149    12.000000000000
         C           -0.363208751254     1.612128416783     0.000086126149    12.000000000000
         H            0.132892748746    -1.908696583217    -0.000210173851     1.007825032230
         H            1.984737748746     1.867902416783    -0.000152173851     1.007825032230
         H           -0.325711251254     2.801106416783     0.000221826149     1.007825032230
         H            3.305783748746    -0.320586583217     0.000579826149     1.007825032230
         H            2.482436748746    -1.838828583217     0.001015826149     1.007825032230

  Basis Set: AUG-CC-PVTZ
    Blend: AUG-CC-PVTZ
  Basis Set: (AUG-CC-PVTZ AUX)
    Blend: AUG-CC-PVTZ-JKFIT
	 Reference Energy          =    -392.6893758927778890 [Eh]
	 Singles Energy            =      -0.0000000000000000 [Eh]
	 Same-Spin Energy          =      -0.4041937436110347 [Eh]
	 Opposite-Spin Energy      =      -1.2111981837619001 [Eh]
	 Correlation Energy        =      -1.6153919273729349 [Eh]
	 Total Energy              =    -394.3047678201508006 [Eh]

	 ================> DF-SCS-MP2 Energies <==================
	-----------------------------------------------------------
	 SCS Same-Spin Scale       =       0.3333333333333333 [-]
	 SCS Opposite-Spin Scale   =       1.2000000000000000 [-]
	 SCS Same-Spin Energy      =      -0.1347312478703449 [Eh]
	 SCS Opposite-Spin Energy  =      -1.4534378205142802 [Eh]
	 SCS Correlation Energy    =      -1.5881690683846250 [Eh]
	 SCS Total Energy          =    -394.2775449611625049 [Eh]
	-----------------------------------------------------------

  Dipole Moment: [D]
     X:     6.7642      Y:    -1.1279      Z:     0.0032     Total:     6.8576

*** Psi4 exiting successfully. Buy a developer a beer!
