                               Psi4 1.3.2 release

  ==> Input File <==

--------------------------------------------------------------------------
#psi4
#
memory 32 gb

molecule  {
0 1
  O       -2.2334690    -1.1675340     0.0001340
  N        0.0265130    -0.9084710    -0.0000270
  N        2.3544690    -0.8475160    -0.0005320
  N       -1.3973450     1.0028810     0.0002180
  C        1.1706060    -0.1768690    -0.0001310
  C        1.0290441     1.2982257    -0.0000860
  C       -1.2978830    -0.3751090     0.0001540
  C       -0.2757380     1.7018570     0.0000510
  H        0.0506260    -1.9247470    -0.0002200
  H        1.9024710     1.8518520    -0.0001620
  H       -0.4079780     2.7850560     0.0002120
  H        3.2235170    -0.3366370     0.0005700
  H        2.4001700    -1.8548790     0.0010060
units angstrom
no_reorient  #important for SAPT in psi4, default
symmetry c1  #important for SAPT in psi4, default
}

set PROPERTIES_ORIGIN ["COM"]
properties('MP2/aug-cc-pvtz', properties = ['dipole'])
--------------------------------------------------------------------------

    Molecular point group: c1
  Charge       = 0
  Multiplicity = 1
  Basis Set: AUG-CC-PVTZ
    Blend: AUG-CC-PVTZ
  Basis Set: (AUG-CC-PVTZ AUX)
    Blend: AUG-CC-PVTZ-JKFIT

    Orbital Energies [Eh]
    ---------------------

    Doubly Occupied:

       1A    -20.506821     2A    -15.640628     3A    -15.639528
       4A    -15.536118     5A    -11.401808     6A    -11.373024
       7A    -11.297614     8A    -11.236003     9A     -1.387844
      10A     -1.325770    11A     -1.244444    12A     -1.198946
      13A     -1.051716    14A     -0.910565    15A     -0.883237
      16A     -0.788810    17A     -0.758891    18A     -0.727728
      19A     -0.689125    20A     -0.652459    21A     -0.637887
      22A     -0.614833    23A     -0.554300    24A     -0.548744
      25A     -0.462028    26A     -0.444957    27A     -0.444566
      28A     -0.410673    29A     -0.320019

  @DF-RHF Final Energy:  -392.73939183965962

   => Energetics <=

    Nuclear Repulsion Energy =            353.9296539613958998
    One-Electron Energy =               -1235.9599207670723899
    Two-Electron Energy =                 489.2908749660169292
    Total Energy =                       -392.7393918396596177
  Basis Set: (AUG-CC-PVTZ AUX)
    Blend: AUG-CC-PVTZ-RI
    Molecular point group: c1

    Geometry (in Angstrom), charge = 0, multiplicity = 1:

       Center              X                  Y                   Z               Mass
    ------------   -----------------  -----------------  -----------------  -----------------
         O           -2.168512758609    -1.173671875962     0.000146236021    15.994914619570
         N            0.091469241391    -0.914608875962    -0.000014763979    14.003074004430
         N            2.419425241391    -0.853653875962    -0.000519763979    14.003074004430
         N           -1.332388758609     0.996743124038     0.000230236021    14.003074004430
         C            1.235562241391    -0.183006875962    -0.000118763979    12.000000000000
         C            1.094000341391     1.292087824038    -0.000073763979    12.000000000000
         C           -1.232926758609    -0.381246875962     0.000166236021    12.000000000000
         C           -0.210781758609     1.695719124038     0.000063236021    12.000000000000
         H            0.115582241391    -1.930884875962    -0.000207763979     1.007825032230
         H            1.967427241391     1.845714124038    -0.000149763979     1.007825032230
         H           -0.343021758609     2.778918124038     0.000224236021     1.007825032230
         H            3.288473241391    -0.342774875962     0.000582236021     1.007825032230
         H            2.465126241391    -1.861016875962     0.001018236021     1.007825032230

  Basis Set: AUG-CC-PVTZ
    Blend: AUG-CC-PVTZ
  Basis Set: (AUG-CC-PVTZ AUX)
    Blend: AUG-CC-PVTZ-JKFIT
	 Reference Energy          =    -392.7393918396596177 [Eh]
	 Singles Energy            =      -0.0000000000000000 [Eh]
	 Same-Spin Energy          =      -0.4068466140026648 [Eh]
	 Opposite-Spin Energy      =      -1.2140614815112047 [Eh]
	 Correlation Energy        =      -1.6209080955138695 [Eh]
	 Total Energy              =    -394.3602999351734866 [Eh]

	 ================> DF-SCS-MP2 Energies <==================
	-----------------------------------------------------------
	 SCS Same-Spin Scale       =       0.3333333333333333 [-]
	 SCS Opposite-Spin Scale   =       1.2000000000000000 [-]
	 SCS Same-Spin Energy      =      -0.1356155380008882 [Eh]
	 SCS Opposite-Spin Energy  =      -1.4568737778134457 [Eh]
	 SCS Correlation Energy    =      -1.5924893158143341 [Eh]
	 SCS Total Energy          =    -394.3318811554739796 [Eh]
	-----------------------------------------------------------

  Dipole Moment: [D]
     X:     8.5842      Y:    -1.2257      Z:     0.0029     Total:     8.6713

*** Psi4 exiting successfully. Buy a developer a beer!
