                               Psi4 1.3.2 release

  ==> Input File <==

--------------------------------------------------------------------------
#psi4
#
memory 32 gb

molecule  {
0 1
  O       -2.2471562    -1.1510851     0.0001373
  N        0.0265130    -0.9084710    -0.0000270
  N        2.3544690    -0.8475160    -0.0005320
  N       -1.3973450     1.0028810     0.0002180
  C        1.1706060    -0.1768690    -0.0001310
  C        1.0385970     1.1986830    -0.0000890
  C       -1.2978830    -0.3751090     0.0001540
  C       -0.2757380     1.7018570     0.0000510
  H        0.0506260    -1.9247470    -0.0002200
  H        1.9024710     1.8518520    -0.0001620
  H       -0.4079780     2.7850560     0.0002120
  H        3.2235170    -0.3366370     0.0005700
  H        2.4001700    -1.8548790     0.0010060
units angstrom
no_reorient  #important for SAPT in psi4, default
symmetry c1  #important for SAPT in psi4, default
}

set PROPERTIES_ORIGIN ["COM"]
properties('MP2/aug-cc-pvtz', properties = ['dipole'])
--------------------------------------------------------------------------

    Molecular point group: c1
  Charge       = 0
  Multiplicity = 1
  Basis Set: AUG-CC-PVTZ
    Blend: AUG-CC-PVTZ
  Basis Set: (AUG-CC-PVTZ AUX)
    Blend: AUG-CC-PVTZ-JKFIT

    Orbital Energies [Eh]
    ---------------------

    Doubly Occupied:

       1A    -20.509266     2A    -15.633025     3A    -15.629123
       4A    -15.545083     5A    -11.384442     6A    -11.375477
       7A    -11.308298     8A    -11.232528     9A     -1.388319
      10A     -1.323793    11A     -1.242716    12A     -1.199051
      13A     -1.057532    14A     -0.909400    15A     -0.883821
      16A     -0.784644    17A     -0.752913    18A     -0.722234
      19A     -0.691215    20A     -0.638714    21A     -0.636462
      22A     -0.620315    23A     -0.569113    24A     -0.547817
      25A     -0.459760    26A     -0.446625    27A     -0.442568
      28A     -0.415572    29A     -0.325355

  @DF-RHF Final Energy:  -392.75111258995832

   => Energetics <=

    Nuclear Repulsion Energy =            355.1412271742468647
    One-Electron Energy =               -1238.4343190848680933
    Two-Electron Energy =                 490.5419793206629038
    Total Energy =                       -392.7511125899583249
  Basis Set: (AUG-CC-PVTZ AUX)
    Blend: AUG-CC-PVTZ-RI
    Molecular point group: c1

    Geometry (in Angstrom), charge = 0, multiplicity = 1:

       Center              X                  Y                   Z               Mass
    ------------   -----------------  -----------------  -----------------  -----------------
         O           -2.181260767939    -1.148835131136     0.000149384880    15.994914619570
         N            0.092408432061    -0.906221031136    -0.000014915120    14.003074004430
         N            2.420364432061    -0.845266031136    -0.000519915120    14.003074004430
         N           -1.331449567939     1.005130968864     0.000230084880    14.003074004430
         C            1.236501432061    -0.174619031136    -0.000118915120    12.000000000000
         C            1.104492432061     1.200932968864    -0.000076915120    12.000000000000
         C           -1.231987567939    -0.372859031136     0.000166084880    12.000000000000
         C           -0.209842567939     1.704106968864     0.000063084880    12.000000000000
         H            0.116521432061    -1.922497031136    -0.000207915120     1.007825032230
         H            1.968366432061     1.854101968864    -0.000149915120     1.007825032230
         H           -0.342082567939     2.787305968864     0.000224084880     1.007825032230
         H            3.289412432061    -0.334387031136     0.000582084880     1.007825032230
         H            2.466065432061    -1.852629031136     0.001018084880     1.007825032230

  Basis Set: AUG-CC-PVTZ
    Blend: AUG-CC-PVTZ
  Basis Set: (AUG-CC-PVTZ AUX)
    Blend: AUG-CC-PVTZ-JKFIT
	 Reference Energy          =    -392.7511125899583249 [Eh]
	 Singles Energy            =      -0.0000000000000000 [Eh]
	 Same-Spin Energy          =      -0.4068656863453560 [Eh]
	 Opposite-Spin Energy      =      -1.2141773349161915 [Eh]
	 Correlation Energy        =      -1.6210430212615474 [Eh]
	 Total Energy              =    -394.3721556112198527 [Eh]

	 ================> DF-SCS-MP2 Energies <==================
	-----------------------------------------------------------
	 SCS Same-Spin Scale       =       0.3333333333333333 [-]
	 SCS Opposite-Spin Scale   =       1.2000000000000000 [-]
	 SCS Same-Spin Energy      =      -0.1356218954484520 [Eh]
	 SCS Opposite-Spin Energy  =      -1.4570128018994297 [Eh]
	 SCS Correlation Energy    =      -1.5926346973478818 [Eh]
	 SCS Total Energy          =    -394.3437472873062006 [Eh]
	-----------------------------------------------------------

  Dipole Moment: [D]
     X:     8.1552      Y:    -0.9035      Z:     0.0030     Total:     8.2051

*** Psi4 exiting successfully. Buy a developer a beer!
