                               Psi4 1.4a3.dev225

  ==> Input File <==

--------------------------------------------------------------------------
#psi4
#
memory 32 gb

molecule  {
0 1
  O        2.2358750    -1.1647400    -0.0019990
  N       -0.0266920    -0.9090020    -0.0014130
  N       -2.3606070    -0.8668920    -0.0783920
  N        1.3942980     1.0030250     0.0093070
  C       -1.1689180    -0.1740660     0.0003700
  C       -1.0400980     1.1965590     0.0002140
  C        1.3108564    -0.3921972     0.0032450
  C        0.2772380     1.7038820     0.0017870
  H       -0.0608440    -1.9231390    -0.0684580
  H       -1.9045160     1.8491770     0.0118680
  H        0.4106550     2.7868440     0.0040290
  H       -3.1798030    -0.3063160     0.1264620
  H       -2.3838550    -1.7605480     0.4013470
units angstrom
no_reorient  #important for SAPT in psi4, default
symmetry c1  #important for SAPT in psi4, default
}

set PROPERTIES_ORIGIN ["COM"]
properties('MP2/aug-cc-pvtz', properties = ['dipole'])
--------------------------------------------------------------------------

    Molecular point group: c1
  Charge       = 0
  Multiplicity = 1
  Basis Set: AUG-CC-PVTZ
    Blend: AUG-CC-PVTZ
  Basis Set: (AUG-CC-PVTZ AUX)
    Blend: AUG-CC-PVTZ-JKFIT

    Orbital Energies [Eh]
    ---------------------

    Doubly Occupied:

       1A    -20.518241     2A    -15.631538     3A    -15.625375
       4A    -15.550417     5A    -11.379613     6A    -11.379479
       7A    -11.310918     8A    -11.235346     9A     -1.400950
      10A     -1.325581    11A     -1.242544    12A     -1.197740
      13A     -1.057857    14A     -0.906477    15A     -0.881459
      16A     -0.773777    17A     -0.747483    18A     -0.713964
      19A     -0.687042    20A     -0.645228    21A     -0.629788
      22A     -0.627993    23A     -0.575892    24A     -0.550370
      25A     -0.464798    26A     -0.457000    27A     -0.449817
      28A     -0.415228    29A     -0.330532

  @DF-RHF Final Energy:  -392.75135086587233

   => Energetics <=

    Nuclear Repulsion Energy =            354.8815522358960948
    One-Electron Energy =               -1237.8409137292003379
    Two-Electron Energy =                 490.2080106274318609
    Total Energy =                       -392.7513508658723254
  Basis Set: (AUG-CC-PVTZ AUX)
    Blend: AUG-CC-PVTZ-RI
    Molecular point group: c1

    Geometry (in Angstrom), charge = 0, multiplicity = 1:

       Center              X                  Y                   Z               Mass
    ------------   -----------------  -----------------  -----------------  -----------------
         O            2.170743271169    -1.157614381279     0.002258833451    15.994914619570
         N           -0.091823728831    -0.901876381279     0.002844833451    14.003074004430
         N           -2.425738728831    -0.859766381279    -0.074134166549    14.003074004430
         N            1.329166271169     1.010150618721     0.013564833451    14.003074004430
         C           -1.234049728831    -0.166940381279     0.004627833451    12.000000000000
         C           -1.105229728831     1.203684618721     0.004471833451    12.000000000000
         C            1.245724671169    -0.385071581279     0.007502833451    12.000000000000
         C            0.212106271169     1.711007618721     0.006044833451    12.000000000000
         H           -0.125975728831    -1.916013381279    -0.064200166549     1.007825032230
         H           -1.969647728831     1.856302618721     0.016125833451     1.007825032230
         H            0.345523271169     2.793969618721     0.008286833451     1.007825032230
         H           -3.244934728831    -0.299190381279     0.130719833451     1.007825032230
         H           -2.448986728831    -1.753422381279     0.405604833451     1.007825032230

  Basis Set: AUG-CC-PVTZ
    Blend: AUG-CC-PVTZ
  Basis Set: (AUG-CC-PVTZ AUX)
    Blend: AUG-CC-PVTZ-JKFIT
	 Reference Energy          =    -392.7513508658723254 [Eh]
	 Singles Energy            =      -0.0000000000000000 [Eh]
	 Same-Spin Energy          =      -0.4064611107724513 [Eh]
	 Opposite-Spin Energy      =      -1.2144720742463926 [Eh]
	 Correlation Energy        =      -1.6209331850188438 [Eh]
	 Total Energy              =    -394.3722840508911531 [Eh]

	 ================> DF-SCS-MP2 Energies <==================
	-----------------------------------------------------------
	 SCS Same-Spin Scale       =       0.3333333333333333 [-]
	 SCS Opposite-Spin Scale   =       1.2000000000000000 [-]
	 SCS Same-Spin Energy      =      -0.1354870369241504 [Eh]
	 SCS Opposite-Spin Energy  =      -1.4573664890956710 [Eh]
	 SCS Correlation Energy    =      -1.5928535260198213 [Eh]
	 SCS Total Energy          =    -394.3442043918921627 [Eh]
	-----------------------------------------------------------

  Dipole Moment: [D]
     X:    -7.3991      Y:    -0.5276      Z:     0.8614     Total:     7.4677

*** Psi4 exiting successfully. Buy a developer a beer!
