                               Psi4 1.3.2 release

  ==> Input File <==

--------------------------------------------------------------------------
#psi4
#
memory 32 gb

molecule  {
0 1
  O       -2.2334690    -1.1675340     0.0001340
  N        0.0265130    -0.9084710    -0.0000270
  N        2.3544690    -0.8475160    -0.0005320
  N       -1.3973450     1.0028810     0.0002180
  C        1.1706060    -0.1768690    -0.0001310
  C        1.0385970     1.1986830    -0.0000890
  C       -1.2978830    -0.3751090     0.0001540
  C       -0.2757380     1.7018570     0.0000510
  H        0.0506260    -1.9247470    -0.0002200
  H        1.9024710     1.8518520    -0.0001620
  H       -0.4079780     2.7850560     0.0002120
  H        3.1653552    -0.2485954     0.0003213
  H        2.4001700    -1.8548790     0.0010060
units angstrom
no_reorient  #important for SAPT in psi4, default
symmetry c1  #important for SAPT in psi4, default
}

set PROPERTIES_ORIGIN ["COM"]
properties('MP2/aug-cc-pvtz', properties = ['dipole'])
--------------------------------------------------------------------------

    Molecular point group: c1
  Charge       = 0
  Multiplicity = 1
  Basis Set: AUG-CC-PVTZ
    Blend: AUG-CC-PVTZ
  Basis Set: (AUG-CC-PVTZ AUX)
    Blend: AUG-CC-PVTZ-JKFIT

    Orbital Energies [Eh]
    ---------------------

    Doubly Occupied:

       1A    -20.509269     2A    -15.631598     3A    -15.629239
       4A    -15.545776     5A    -11.382713     6A    -11.375527
       7A    -11.309249     8A    -11.233015     9A     -1.388665
      10A     -1.324098    11A     -1.243424    12A     -1.199222
      13A     -1.057310    14A     -0.908397    15A     -0.882554
      16A     -0.788069    17A     -0.753130    18A     -0.718001
      19A     -0.694070    20A     -0.638501    21A     -0.637210
      22A     -0.620327    23A     -0.569819    24A     -0.548022
      25A     -0.460447    26A     -0.447600    27A     -0.441942
      28A     -0.415353    29A     -0.325959

  @DF-RHF Final Energy:  -392.75006450549455

   => Energetics <=

    Nuclear Repulsion Energy =            355.3501601071253049
    One-Electron Energy =               -1238.8434384065819813
    Two-Electron Energy =                 490.7432137939621839
    Total Energy =                       -392.7500645054945494
  Basis Set: (AUG-CC-PVTZ AUX)
    Blend: AUG-CC-PVTZ-RI
    Molecular point group: c1

    Geometry (in Angstrom), charge = 0, multiplicity = 1:

       Center              X                  Y                   Z               Mass
    ------------   -----------------  -----------------  -----------------  -----------------
         O           -2.169017227598    -1.163713758254     0.000148817412    15.994914619570
         N            0.090964772402    -0.904650758254    -0.000012182588    14.003074004430
         N            2.418920772402    -0.843695758254    -0.000517182588    14.003074004430
         N           -1.332893227598     1.006701241746     0.000232817412    14.003074004430
         C            1.235057772402    -0.173048758254    -0.000116182588    12.000000000000
         C            1.103048772402     1.202503241746    -0.000074182588    12.000000000000
         C           -1.233431227598    -0.371288758254     0.000168817412    12.000000000000
         C           -0.211286227598     1.705677241746     0.000065817412    12.000000000000
         H            0.115077772402    -1.920926758254    -0.000205182588     1.007825032230
         H            1.966922772402     1.855672241746    -0.000147182588     1.007825032230
         H           -0.343526227598     2.788876241746     0.000226817412     1.007825032230
         H            3.229806972402    -0.244775158254     0.000336117412     1.007825032230
         H            2.464621772402    -1.851058758254     0.001020817412     1.007825032230

  Basis Set: AUG-CC-PVTZ
    Blend: AUG-CC-PVTZ
  Basis Set: (AUG-CC-PVTZ AUX)
    Blend: AUG-CC-PVTZ-JKFIT
	 Reference Energy          =    -392.7500645054945494 [Eh]
	 Singles Energy            =      -0.0000000000000000 [Eh]
	 Same-Spin Energy          =      -0.4069380938357203 [Eh]
	 Opposite-Spin Energy      =      -1.2141636218658163 [Eh]
	 Correlation Energy        =      -1.6211017157015366 [Eh]
	 Total Energy              =    -394.3711662211960629 [Eh]

	 ================> DF-SCS-MP2 Energies <==================
	-----------------------------------------------------------
	 SCS Same-Spin Scale       =       0.3333333333333333 [-]
	 SCS Opposite-Spin Scale   =       1.2000000000000000 [-]
	 SCS Same-Spin Energy      =      -0.1356460312785734 [Eh]
	 SCS Opposite-Spin Energy  =      -1.4569963462389794 [Eh]
	 SCS Correlation Energy    =      -1.5926423775175529 [Eh]
	 SCS Total Energy          =    -394.3427068830121129 [Eh]
	-----------------------------------------------------------

  Dipole Moment: [D]
     X:     8.0829      Y:    -0.8298      Z:     0.0027     Total:     8.1254

*** Psi4 exiting successfully. Buy a developer a beer!
