                               Psi4 1.3.2 release

  ==> Input File <==

--------------------------------------------------------------------------
#psi4
#
memory 32 gb

molecule  {
0 1
  O       -2.2334690    -1.1675340     0.0001340
  N        0.0265130    -0.9084710    -0.0000270
  N        2.3544690    -0.8475160    -0.0005320
  N       -1.3973450     1.0028810     0.0002180
  C        1.1706060    -0.1768690    -0.0001310
  C        1.0385970     1.1986830    -0.0000890
  C       -1.2978830    -0.3751090     0.0001540
  C       -0.2757380     1.7018570     0.0000510
  H        0.0506260    -1.9247470    -0.0002200
  H        1.9024710     1.8518520    -0.0001620
  H       -0.4079780     2.7850560     0.0002120
  H        3.3959320    -0.2352810     0.0007886
  H        2.4001700    -1.8548790     0.0010060
units angstrom
no_reorient  #important for SAPT in psi4, default
symmetry c1  #important for SAPT in psi4, default
}

set PROPERTIES_ORIGIN ["COM"]
properties('MP2/aug-cc-pvtz', properties = ['dipole'])
--------------------------------------------------------------------------

    Molecular point group: c1
  Charge       = 0
  Multiplicity = 1
  Basis Set: AUG-CC-PVTZ
    Blend: AUG-CC-PVTZ
  Basis Set: (AUG-CC-PVTZ AUX)
    Blend: AUG-CC-PVTZ-JKFIT

    Orbital Energies [Eh]
    ---------------------

    Doubly Occupied:

       1A    -20.508367     2A    -15.642588     3A    -15.631076
       4A    -15.544213     5A    -11.383270     6A    -11.374712
       7A    -11.307566     8A    -11.230955     9A     -1.387413
      10A     -1.317557    11A     -1.233451    12A     -1.191411
      13A     -1.054024    14A     -0.906209    15A     -0.873068
      16A     -0.781807    17A     -0.740862    18A     -0.707919
      19A     -0.661501    20A     -0.636968    21A     -0.635124
      22A     -0.618924    23A     -0.567452    24A     -0.545309
      25A     -0.459084    26A     -0.446369    27A     -0.439254
      28A     -0.414119    29A     -0.323958

  @DF-RHF Final Energy:  -392.72077310713769

   => Energetics <=

    Nuclear Repulsion Energy =            354.2373028395340384
    One-Electron Energy =               -1236.7870949017594739
    Two-Electron Energy =                 489.8290189550876903
    Total Energy =                       -392.7207731071376884
  Basis Set: (AUG-CC-PVTZ AUX)
    Blend: AUG-CC-PVTZ-RI
    Molecular point group: c1

    Geometry (in Angstrom), charge = 0, multiplicity = 1:

       Center              X                  Y                   Z               Mass
    ------------   -----------------  -----------------  -----------------  -----------------
         O           -2.171109935135    -1.163834599315     0.000144576212    15.994914619570
         N            0.088872064865    -0.904771599315    -0.000016423788    14.003074004430
         N            2.416828064865    -0.843816599315    -0.000521423788    14.003074004430
         N           -1.334985935135     1.006580400685     0.000228576212    14.003074004430
         C            1.232965064865    -0.173169599315    -0.000120423788    12.000000000000
         C            1.100956064865     1.202382400685    -0.000078423788    12.000000000000
         C           -1.235523935135    -0.371409599315     0.000164576212    12.000000000000
         C           -0.213378935135     1.705556400685     0.000061576212    12.000000000000
         H            0.112985064865    -1.921047599315    -0.000209423788     1.007825032230
         H            1.964830064865     1.855551400685    -0.000151423788     1.007825032230
         H           -0.345618935135     2.788755400685     0.000222576212     1.007825032230
         H            3.458291064865    -0.231581599315     0.000799176212     1.007825032230
         H            2.462529064865    -1.851179599315     0.001016576212     1.007825032230

  Basis Set: AUG-CC-PVTZ
    Blend: AUG-CC-PVTZ
  Basis Set: (AUG-CC-PVTZ AUX)
    Blend: AUG-CC-PVTZ-JKFIT
	 Reference Energy          =    -392.7207731071376884 [Eh]
	 Singles Energy            =      -0.0000000000000000 [Eh]
	 Same-Spin Energy          =      -0.4081627382535725 [Eh]
	 Opposite-Spin Energy      =      -1.2178627887516282 [Eh]
	 Correlation Energy        =      -1.6260255270052006 [Eh]
	 Total Energy              =    -394.3467986341428855 [Eh]

	 ================> DF-SCS-MP2 Energies <==================
	-----------------------------------------------------------
	 SCS Same-Spin Scale       =       0.3333333333333333 [-]
	 SCS Opposite-Spin Scale   =       1.2000000000000000 [-]
	 SCS Same-Spin Energy      =      -0.1360542460845242 [Eh]
	 SCS Opposite-Spin Energy  =      -1.4614353465019538 [Eh]
	 SCS Correlation Energy    =      -1.5974895925864780 [Eh]
	 SCS Total Energy          =    -394.3182626997241869 [Eh]
	-----------------------------------------------------------

  Dipole Moment: [D]
     X:     8.3977      Y:    -0.7941      Z:     0.0032     Total:     8.4352

*** Psi4 exiting successfully. Buy a developer a beer!
