                               Psi4 1.3.2 release

  ==> Input File <==

--------------------------------------------------------------------------
#psi4
#
memory 32 gb

molecule  {
0 1
  O       -2.2334690    -1.1675340     0.0001340
  N        0.0265130    -0.9084710    -0.0000270
  N        2.3544690    -0.8475160    -0.0005320
  N       -1.3973450     1.0028810     0.0002180
  C        1.1706060    -0.1768690    -0.0001310
  C        1.0385970     1.1986830    -0.0000890
  C       -1.4834038    -0.3003959     0.0001794
  C       -0.2757380     1.7018570     0.0000510
  H        0.0506260    -1.9247470    -0.0002200
  H        1.9024710     1.8518520    -0.0001620
  H       -0.4079780     2.7850560     0.0002120
  H        3.2235170    -0.3366370     0.0005700
  H        2.4001700    -1.8548790     0.0010060
units angstrom
no_reorient  #important for SAPT in psi4, default
symmetry c1  #important for SAPT in psi4, default
}

set PROPERTIES_ORIGIN ["COM"]
properties('MP2/aug-cc-pvtz', properties = ['dipole'])
--------------------------------------------------------------------------

    Molecular point group: c1
  Charge       = 0
  Multiplicity = 1
  Basis Set: AUG-CC-PVTZ
    Blend: AUG-CC-PVTZ
  Basis Set: (AUG-CC-PVTZ AUX)
    Blend: AUG-CC-PVTZ-JKFIT

    Orbital Energies [Eh]
    ---------------------

    Doubly Occupied:

       1A    -20.535467     2A    -15.616812     3A    -15.589697
       4A    -15.538473     5A    -11.383326     6A    -11.368984
       7A    -11.316497     8A    -11.226109     9A     -1.438605
      10A     -1.310281    11A     -1.249203    12A     -1.171718
      13A     -1.054146    14A     -0.915982    15A     -0.847186
      16A     -0.764399    17A     -0.748564    18A     -0.700973
      19A     -0.687975    20A     -0.654255    21A     -0.626032
      22A     -0.617686    23A     -0.578316    24A     -0.568020
      25A     -0.468503    26A     -0.468463    27A     -0.421833
      28A     -0.397979    29A     -0.326781

  @DF-RHF Final Energy:  -392.72697600388278

   => Energetics <=

    Nuclear Repulsion Energy =            354.2619450034716806
    One-Electron Energy =               -1236.7933158991443179
    Two-Electron Energy =                 489.8043948917897978
    Total Energy =                       -392.7269760038827826
  Basis Set: (AUG-CC-PVTZ AUX)
    Blend: AUG-CC-PVTZ-RI
    Molecular point group: c1

    Geometry (in Angstrom), charge = 0, multiplicity = 1:

       Center              X                  Y                   Z               Mass
    ------------   -----------------  -----------------  -----------------  -----------------
         O           -2.149496613317    -1.170988640661     0.000143815343    15.994914619570
         N            0.110485386683    -0.911925640661    -0.000017184657    14.003074004430
         N            2.438441386683    -0.850970640661    -0.000522184657    14.003074004430
         N           -1.313372613317     0.999426359339     0.000227815343    14.003074004430
         C            1.254578386683    -0.180323640661    -0.000121184657    12.000000000000
         C            1.122569386683     1.195228359339    -0.000079184657    12.000000000000
         C           -1.399431413317    -0.303850540661     0.000189215343    12.000000000000
         C           -0.191765613317     1.698402359339     0.000060815343    12.000000000000
         H            0.134598386683    -1.928201640661    -0.000210184657     1.007825032230
         H            1.986443386683     1.848397359339    -0.000152184657     1.007825032230
         H           -0.324005613317     2.781601359339     0.000221815343     1.007825032230
         H            3.307489386683    -0.340091640661     0.000579815343     1.007825032230
         H            2.484142386683    -1.858333640661     0.001015815343     1.007825032230

  Basis Set: AUG-CC-PVTZ
    Blend: AUG-CC-PVTZ
  Basis Set: (AUG-CC-PVTZ AUX)
    Blend: AUG-CC-PVTZ-JKFIT
	 Reference Energy          =    -392.7269760038827826 [Eh]
	 Singles Energy            =      -0.0000000000000000 [Eh]
	 Same-Spin Energy          =      -0.4071510497698509 [Eh]
	 Opposite-Spin Energy      =      -1.2134321881748940 [Eh]
	 Correlation Energy        =      -1.6205832379447449 [Eh]
	 Total Energy              =    -394.3475592418275255 [Eh]

	 ================> DF-SCS-MP2 Energies <==================
	-----------------------------------------------------------
	 SCS Same-Spin Scale       =       0.3333333333333333 [-]
	 SCS Opposite-Spin Scale   =       1.2000000000000000 [-]
	 SCS Same-Spin Energy      =      -0.1357170165899503 [Eh]
	 SCS Opposite-Spin Energy  =      -1.4561186258098726 [Eh]
	 SCS Correlation Energy    =      -1.5918356423998230 [Eh]
	 SCS Total Energy          =    -394.3188116462825974 [Eh]
	-----------------------------------------------------------

  Dipole Moment: [D]
     X:     6.8166      Y:    -0.8742      Z:     0.0031     Total:     6.8724

*** Psi4 exiting successfully. Buy a developer a beer!
