                               Psi4 1.3.2 release

  ==> Input File <==

--------------------------------------------------------------------------
#psi4
#
memory 32 gb

molecule  {
0 1
  O       -2.2334690    -1.1675340     0.0001340
  N        0.0265130    -0.9084710    -0.0000270
  N        2.3544690    -0.8475160    -0.0005320
  N       -1.3973450     1.0028810     0.0002180
  C        1.1706060    -0.1768690    -0.0001310
  C        1.0481499     1.0991403    -0.0000920
  C       -1.2978830    -0.3751090     0.0001540
  C       -0.2757380     1.7018570     0.0000510
  H        0.0506260    -1.9247470    -0.0002200
  H        1.9024710     1.8518520    -0.0001620
  H       -0.4079780     2.7850560     0.0002120
  H        3.2235170    -0.3366370     0.0005700
  H        2.4001700    -1.8548790     0.0010060
units angstrom
no_reorient  #important for SAPT in psi4, default
symmetry c1  #important for SAPT in psi4, default
}

set PROPERTIES_ORIGIN ["COM"]
properties('MP2/aug-cc-pvtz', properties = ['dipole'])
--------------------------------------------------------------------------

    Molecular point group: c1
  Charge       = 0
  Multiplicity = 1
  Basis Set: AUG-CC-PVTZ
    Blend: AUG-CC-PVTZ
  Basis Set: (AUG-CC-PVTZ AUX)
    Blend: AUG-CC-PVTZ-JKFIT

    Orbital Energies [Eh]
    ---------------------

    Doubly Occupied:

       1A    -20.512326     2A    -15.623381     3A    -15.615743
       4A    -15.556086     5A    -11.378425     6A    -11.360714
       7A    -11.320527     8A    -11.229713     9A     -1.389929
      10A     -1.321599    11A     -1.241953    12A     -1.197056
      13A     -1.067940    14A     -0.913501    15A     -0.877460
      16A     -0.780000    17A     -0.746954    18A     -0.717249
      19A     -0.691971    20A     -0.640010    21A     -0.639679
      22A     -0.609302    23A     -0.574373    24A     -0.547882
      25A     -0.459272    26A     -0.450354    27A     -0.438556
      28A     -0.418986    29A     -0.334239

  @DF-RHF Final Energy:  -392.73744441237977

   => Energetics <=

    Nuclear Repulsion Energy =            356.5973274152171371
    One-Electron Energy =               -1241.3591845610710607
    Two-Electron Energy =                 492.0244127334741506
    Total Energy =                       -392.7374444123797730
  Basis Set: (AUG-CC-PVTZ AUX)
    Blend: AUG-CC-PVTZ-RI
    Molecular point group: c1

    Geometry (in Angstrom), charge = 0, multiplicity = 1:

       Center              X                  Y                   Z               Mass
    ------------   -----------------  -----------------  -----------------  -----------------
         O           -2.170577445797    -1.152157515150     0.000146884417    15.994914619570
         N            0.089404554203    -0.893094515150    -0.000014115583    14.003074004430
         N            2.417360554203    -0.832139515150    -0.000519115583    14.003074004430
         N           -1.334453445797     1.018257484850     0.000230884417    14.003074004430
         C            1.233497554203    -0.161492515150    -0.000118115583    12.000000000000
         C            1.111041454203     1.114516784850    -0.000079115583    12.000000000000
         C           -1.234991445797    -0.359732515150     0.000166884417    12.000000000000
         C           -0.212846445797     1.717233484850     0.000063884417    12.000000000000
         H            0.113517554203    -1.909370515150    -0.000207115583     1.007825032230
         H            1.965362554203     1.867228484850    -0.000149115583     1.007825032230
         H           -0.345086445797     2.800432484850     0.000224884417     1.007825032230
         H            3.286408554203    -0.321260515150     0.000582884417     1.007825032230
         H            2.463061554203    -1.839502515150     0.001018884417     1.007825032230

  Basis Set: AUG-CC-PVTZ
    Blend: AUG-CC-PVTZ
  Basis Set: (AUG-CC-PVTZ AUX)
    Blend: AUG-CC-PVTZ-JKFIT
	 Reference Energy          =    -392.7374444123797730 [Eh]
	 Singles Energy            =      -0.0000000000000000 [Eh]
	 Same-Spin Energy          =      -0.4065535343152256 [Eh]
	 Opposite-Spin Energy      =      -1.2143776329101743 [Eh]
	 Correlation Energy        =      -1.6209311672253999 [Eh]
	 Total Energy              =    -394.3583755796051946 [Eh]

	 ================> DF-SCS-MP2 Energies <==================
	-----------------------------------------------------------
	 SCS Same-Spin Scale       =       0.3333333333333333 [-]
	 SCS Opposite-Spin Scale   =       1.2000000000000000 [-]
	 SCS Same-Spin Energy      =      -0.1355178447717419 [Eh]
	 SCS Opposite-Spin Energy  =      -1.4572531594922091 [Eh]
	 SCS Correlation Energy    =      -1.5927710042639509 [Eh]
	 SCS Total Energy          =    -394.3302154166437390 [Eh]
	-----------------------------------------------------------

  Dipole Moment: [D]
     X:     7.6481      Y:    -0.4773      Z:     0.0031     Total:     7.6630

*** Psi4 exiting successfully. Buy a developer a beer!
