                               Psi4 1.4a3.dev225

  ==> Input File <==

--------------------------------------------------------------------------
#psi4
#
memory 32 gb

molecule  {
0 1
  O        2.2358750    -1.1647400    -0.0019990
  N       -0.0266920    -0.9090020    -0.0014130
  N       -2.3606070    -0.8668920    -0.0783920
  N        1.3942980     1.0030250     0.0093070
  C       -1.1516559    -0.1640301     0.0015109
  C       -1.0400980     1.1965590     0.0002140
  C        1.2955060    -0.3793770     0.0033320
  C        0.2772380     1.7038820     0.0017870
  H       -0.0608440    -1.9231390    -0.0684580
  H       -1.9045160     1.8491770     0.0118680
  H        0.4106550     2.7868440     0.0040290
  H       -3.1798030    -0.3063160     0.1264620
  H       -2.3838550    -1.7605480     0.4013470
units angstrom
no_reorient  #important for SAPT in psi4, default
symmetry c1  #important for SAPT in psi4, default
}

set PROPERTIES_ORIGIN ["COM"]
properties('MP2/aug-cc-pvtz', properties = ['dipole'])
--------------------------------------------------------------------------

    Molecular point group: c1
  Charge       = 0
  Multiplicity = 1
  Basis Set: AUG-CC-PVTZ
    Blend: AUG-CC-PVTZ
  Basis Set: (AUG-CC-PVTZ AUX)
    Blend: AUG-CC-PVTZ-JKFIT

    Orbital Energies [Eh]
    ---------------------

    Doubly Occupied:

       1A    -20.513566     2A    -15.635064     3A    -15.623676
       4A    -15.553710     5A    -11.379778     6A    -11.379617
       7A    -11.314047     8A    -11.237637     9A     -1.393029
      10A     -1.321547    11A     -1.241415    12A     -1.201517
      13A     -1.063429    14A     -0.910369    15A     -0.884343
      16A     -0.774886    17A     -0.750300    18A     -0.711007
      19A     -0.688660    20A     -0.646702    21A     -0.630560
      22A     -0.625069    23A     -0.576591    24A     -0.544970
      25A     -0.465162    26A     -0.452872    27A     -0.449215
      28A     -0.419460    29A     -0.333908

  @DF-RHF Final Energy:  -392.75069278829835

   => Energetics <=

    Nuclear Repulsion Energy =            355.1494680909683552
    One-Electron Energy =               -1238.3561088815388302
    Two-Electron Energy =                 490.4559480022720663
    Total Energy =                       -392.7506927882983518
  Basis Set: (AUG-CC-PVTZ AUX)
    Blend: AUG-CC-PVTZ-RI
    Molecular point group: c1

    Geometry (in Angstrom), charge = 0, multiplicity = 1:

       Center              X                  Y                   Z               Mass
    ------------   -----------------  -----------------  -----------------  -----------------
         O            2.170536681416    -1.160084348349     0.002126139222    15.994914619570
         N           -0.092030318584    -0.904346348349     0.002712139222    14.003074004430
         N           -2.425945318584    -0.862236348349    -0.074266860778    14.003074004430
         N            1.328959681416     1.007680651651     0.013432139222    14.003074004430
         C           -1.216994218584    -0.159374448349     0.005636039222    12.000000000000
         C           -1.105436318584     1.201214651651     0.004339139222    12.000000000000
         C            1.230167681416    -0.374721348349     0.007457139222    12.000000000000
         C            0.211899681416     1.708537651651     0.005912139222    12.000000000000
         H           -0.126182318584    -1.918483348349    -0.064332860778     1.007825032230
         H           -1.969854318584     1.853832651651     0.015993139222     1.007825032230
         H            0.345316681416     2.791499651651     0.008154139222     1.007825032230
         H           -3.245141318584    -0.301660348349     0.130587139222     1.007825032230
         H           -2.449193318584    -1.755892348349     0.405472139222     1.007825032230

  Basis Set: AUG-CC-PVTZ
    Blend: AUG-CC-PVTZ
  Basis Set: (AUG-CC-PVTZ AUX)
    Blend: AUG-CC-PVTZ-JKFIT
	 Reference Energy          =    -392.7506927882983518 [Eh]
	 Singles Energy            =      -0.0000000000000000 [Eh]
	 Same-Spin Energy          =      -0.4066990358753634 [Eh]
	 Opposite-Spin Energy      =      -1.2149490573421637 [Eh]
	 Correlation Energy        =      -1.6216480932175270 [Eh]
	 Total Energy              =    -394.3723408815158677 [Eh]

	 ================> DF-SCS-MP2 Energies <==================
	-----------------------------------------------------------
	 SCS Same-Spin Scale       =       0.3333333333333333 [-]
	 SCS Opposite-Spin Scale   =       1.2000000000000000 [-]
	 SCS Same-Spin Energy      =      -0.1355663452917878 [Eh]
	 SCS Opposite-Spin Energy  =      -1.4579388688105965 [Eh]
	 SCS Correlation Energy    =      -1.5935052141023842 [Eh]
	 SCS Total Energy          =    -394.3441980024007307 [Eh]
	-----------------------------------------------------------

  Dipole Moment: [D]
     X:    -7.4490      Y:    -0.3247      Z:     0.8670     Total:     7.5063

*** Psi4 exiting successfully. Buy a developer a beer!
