                               Psi4 1.4a3.dev225

  ==> Input File <==

--------------------------------------------------------------------------
#psi4
#
memory 32 gb

molecule  {
0 1
  O        2.2358750    -1.1647400    -0.0019990
  N       -0.0266920    -0.9090020    -0.0014130
  N       -2.3606070    -0.8668920    -0.0783920
  N        1.3942980     1.0030250     0.0093070
  C       -1.1689180    -0.1740660     0.0003700
  C       -1.0400980     1.1965590     0.0002140
  C        1.3140718    -0.3719402     0.0033986
  C        0.2772380     1.7038820     0.0017870
  H       -0.0608440    -1.9231390    -0.0684580
  H       -1.9045160     1.8491770     0.0118680
  H        0.4106550     2.7868440     0.0040290
  H       -3.1798030    -0.3063160     0.1264620
  H       -2.3838550    -1.7605480     0.4013470
units angstrom
no_reorient  #important for SAPT in psi4, default
symmetry c1  #important for SAPT in psi4, default
}

set PROPERTIES_ORIGIN ["COM"]
properties('MP2/aug-cc-pvtz', properties = ['dipole'])
--------------------------------------------------------------------------

    Molecular point group: c1
  Charge       = 0
  Multiplicity = 1
  Basis Set: AUG-CC-PVTZ
    Blend: AUG-CC-PVTZ
  Basis Set: (AUG-CC-PVTZ AUX)
    Blend: AUG-CC-PVTZ-JKFIT

    Orbital Energies [Eh]
    ---------------------

    Doubly Occupied:

       1A    -20.515099     2A    -15.630974     3A    -15.625908
       4A    -15.550667     5A    -11.380294     6A    -11.379450
       7A    -11.313673     8A    -11.236525     9A     -1.394567
      10A     -1.323327    11A     -1.244515    12A     -1.199247
      13A     -1.059599    14A     -0.909687    15A     -0.879361
      16A     -0.773630    17A     -0.750048    18A     -0.713676
      19A     -0.687601    20A     -0.645613    21A     -0.628955
      22A     -0.625239    23A     -0.575952    24A     -0.549473
      25A     -0.464089    26A     -0.453965    27A     -0.448914
      28A     -0.417422    29A     -0.331688

  @DF-RHF Final Energy:  -392.75125456811020

   => Energetics <=

    Nuclear Repulsion Energy =            354.8780133932282865
    One-Electron Energy =               -1237.8402166907731043
    Two-Electron Energy =                 490.2109487294346764
    Total Energy =                       -392.7512545681101983
  Basis Set: (AUG-CC-PVTZ AUX)
    Blend: AUG-CC-PVTZ-RI
    Molecular point group: c1

    Geometry (in Angstrom), charge = 0, multiplicity = 1:

       Center              X                  Y                   Z               Mass
    ------------   -----------------  -----------------  -----------------  -----------------
         O            2.170395795785    -1.159803474035     0.002242234515    15.994914619570
         N           -0.092171204215    -0.904065474035     0.002828234515    14.003074004430
         N           -2.426086204215    -0.861955474035    -0.074150765485    14.003074004430
         N            1.328818795785     1.007961525965     0.013548234515    14.003074004430
         C           -1.234397204215    -0.169129474035     0.004611234515    12.000000000000
         C           -1.105577204215     1.201495525965     0.004455234515    12.000000000000
         C            1.248592595785    -0.367003674035     0.007639834515    12.000000000000
         C            0.211758795785     1.708818525965     0.006028234515    12.000000000000
         H           -0.126323204215    -1.918202474035    -0.064216765485     1.007825032230
         H           -1.969995204215     1.854113525965     0.016109234515     1.007825032230
         H            0.345175795785     2.791780525965     0.008270234515     1.007825032230
         H           -3.245282204215    -0.301379474035     0.130703234515     1.007825032230
         H           -2.449334204215    -1.755611474035     0.405588234515     1.007825032230

  Basis Set: AUG-CC-PVTZ
    Blend: AUG-CC-PVTZ
  Basis Set: (AUG-CC-PVTZ AUX)
    Blend: AUG-CC-PVTZ-JKFIT
	 Reference Energy          =    -392.7512545681116194 [Eh]
	 Singles Energy            =      -0.0000000000000000 [Eh]
	 Same-Spin Energy          =      -0.4066912572138098 [Eh]
	 Opposite-Spin Energy      =      -1.2145829166628725 [Eh]
	 Correlation Energy        =      -1.6212741738766825 [Eh]
	 Total Energy              =    -394.3725287419882761 [Eh]

	 ================> DF-SCS-MP2 Energies <==================
	-----------------------------------------------------------
	 SCS Same-Spin Scale       =       0.3333333333333333 [-]
	 SCS Opposite-Spin Scale   =       1.2000000000000000 [-]
	 SCS Same-Spin Energy      =      -0.1355637524046033 [Eh]
	 SCS Opposite-Spin Energy  =      -1.4574994999954469 [Eh]
	 SCS Correlation Energy    =      -1.5930632524000501 [Eh]
	 SCS Total Energy          =    -394.3443178205116624 [Eh]
	-----------------------------------------------------------

  Dipole Moment: [D]
     X:    -7.4796      Y:    -0.4222      Z:     0.8612     Total:     7.5408

*** Psi4 exiting successfully. Buy a developer a beer!
