                               Psi4 1.4a3.dev225

  ==> Input File <==

--------------------------------------------------------------------------
#psi4
#
memory 32 gb

molecule  {
0 1
  O        2.2358750    -1.1647400    -0.0019990
  N       -0.0266920    -0.9090020    -0.0014130
  N       -2.3606070    -0.8668920    -0.0783920
  N        1.3942980     1.0030250     0.0093070
  C       -1.1689180    -0.1740660     0.0003700
  C       -1.0400980     1.1965590     0.0002140
  C        1.2571299    -0.3473266     0.0035496
  C        0.2772380     1.7038820     0.0017870
  H       -0.0608440    -1.9231390    -0.0684580
  H       -1.9045160     1.8491770     0.0118680
  H        0.4106550     2.7868440     0.0040290
  H       -3.1798030    -0.3063160     0.1264620
  H       -2.3838550    -1.7605480     0.4013470
units angstrom
no_reorient  #important for SAPT in psi4, default
symmetry c1  #important for SAPT in psi4, default
}

set PROPERTIES_ORIGIN ["COM"]
properties('MP2/aug-cc-pvtz', properties = ['dipole'])
--------------------------------------------------------------------------

    Molecular point group: c1
  Charge       = 0
  Multiplicity = 1
  Basis Set: AUG-CC-PVTZ
    Blend: AUG-CC-PVTZ
  Basis Set: (AUG-CC-PVTZ AUX)
    Blend: AUG-CC-PVTZ-JKFIT

    Orbital Energies [Eh]
    ---------------------

    Doubly Occupied:

       1A    -20.498833     2A    -15.640553     3A    -15.630571
       4A    -15.556037     5A    -11.385649     6A    -11.376886
       7A    -11.317850     8A    -11.243121     9A     -1.380759
      10A     -1.310535    11A     -1.244921    12A     -1.210892
      13A     -1.065312    14A     -0.916282    15A     -0.890082
      16A     -0.780927    17A     -0.757873    18A     -0.720446
      19A     -0.690882    20A     -0.651304    21A     -0.635146
      22A     -0.613921    23A     -0.563661    24A     -0.544119
      25A     -0.465550    26A     -0.444198    27A     -0.440607
      28A     -0.420935    29A     -0.333800

  @DF-RHF Final Energy:  -392.74452076777351

   => Energetics <=

    Nuclear Repulsion Energy =            355.2619279742501135
    One-Electron Energy =               -1238.5495930895765468
    Two-Electron Energy =                 490.5431443475529818
    Total Energy =                       -392.7445207677735084
  Basis Set: (AUG-CC-PVTZ AUX)
    Blend: AUG-CC-PVTZ-RI
    Molecular point group: c1

    Geometry (in Angstrom), charge = 0, multiplicity = 1:

       Center              X                  Y                   Z               Mass
    ------------   -----------------  -----------------  -----------------  -----------------
         O            2.176549278572    -1.162463367083     0.002225916550    15.994914619570
         N           -0.086017721428    -0.906725367083     0.002811916550    14.003074004430
         N           -2.419932721428    -0.864615367083    -0.074167083450    14.003074004430
         N            1.334972278572     1.005301632917     0.013531916550    14.003074004430
         C           -1.228243721428    -0.171789367083     0.004594916550    12.000000000000
         C           -1.099423721428     1.198835632917     0.004438916550    12.000000000000
         C            1.197804178572    -0.345049967083     0.007774516550    12.000000000000
         C            0.217912278572     1.706158632917     0.006011916550    12.000000000000
         H           -0.120169721428    -1.920862367083    -0.064233083450     1.007825032230
         H           -1.963841721428     1.851453632917     0.016092916550     1.007825032230
         H            0.351329278572     2.789120632917     0.008253916550     1.007825032230
         H           -3.239128721428    -0.304039367083     0.130686916550     1.007825032230
         H           -2.443180721428    -1.758271367083     0.405571916550     1.007825032230

  Basis Set: AUG-CC-PVTZ
    Blend: AUG-CC-PVTZ
  Basis Set: (AUG-CC-PVTZ AUX)
    Blend: AUG-CC-PVTZ-JKFIT
	 Reference Energy          =    -392.7445207677735084 [Eh]
	 Singles Energy            =      -0.0000000000000000 [Eh]
	 Same-Spin Energy          =      -0.4077047871932133 [Eh]
	 Opposite-Spin Energy      =      -1.2162894871233190 [Eh]
	 Correlation Energy        =      -1.6239942743165323 [Eh]
	 Total Energy              =    -394.3685150420900527 [Eh]

	 ================> DF-SCS-MP2 Energies <==================
	-----------------------------------------------------------
	 SCS Same-Spin Scale       =       0.3333333333333333 [-]
	 SCS Opposite-Spin Scale   =       1.2000000000000000 [-]
	 SCS Same-Spin Energy      =      -0.1359015957310711 [Eh]
	 SCS Opposite-Spin Energy  =      -1.4595473845479827 [Eh]
	 SCS Correlation Energy    =      -1.5954489802790539 [Eh]
	 SCS Total Energy          =    -394.3399697480525674 [Eh]
	-----------------------------------------------------------

  Dipole Moment: [D]
     X:    -8.0785      Y:    -0.1107      Z:     0.8625     Total:     8.1252

*** Psi4 exiting successfully. Buy a developer a beer!
