                               Psi4 1.4a3.dev225

  ==> Input File <==

--------------------------------------------------------------------------
#psi4
#
memory 32 gb

molecule  {
0 1
  O        2.2358750    -1.1647400    -0.0019990
  N       -0.0266920    -0.9090020    -0.0014130
  N       -2.3606070    -0.8668920    -0.0783920
  N        1.3942980     1.0030250     0.0093070
  C       -1.1689180    -0.1740660     0.0003700
  C       -1.0400980     1.1965590     0.0002140
  C        1.2969316    -0.3594281     0.0034182
  C        0.2772380     1.7038820     0.0017870
  H       -0.0608440    -1.9231390    -0.0684580
  H       -1.9045160     1.8491770     0.0118680
  H        0.4106550     2.7868440     0.0040290
  H       -3.1798030    -0.3063160     0.1264620
  H       -2.3838550    -1.7605480     0.4013470
units angstrom
no_reorient  #important for SAPT in psi4, default
symmetry c1  #important for SAPT in psi4, default
}

set PROPERTIES_ORIGIN ["COM"]
properties('MP2/aug-cc-pvtz', properties = ['dipole'])
--------------------------------------------------------------------------

    Molecular point group: c1
  Charge       = 0
  Multiplicity = 1
  Basis Set: AUG-CC-PVTZ
    Blend: AUG-CC-PVTZ
  Basis Set: (AUG-CC-PVTZ AUX)
    Blend: AUG-CC-PVTZ-JKFIT

    Orbital Energies [Eh]
    ---------------------

    Doubly Occupied:

       1A    -20.509152     2A    -15.633980     3A    -15.627547
       4A    -15.552345     5A    -11.382207     6A    -11.378670
       7A    -11.315651     8A    -11.238909     9A     -1.386169
      10A     -1.320031    11A     -1.245999    12A     -1.203207
      13A     -1.061905    14A     -0.912586    15A     -0.882180
      16A     -0.775856    17A     -0.753020    18A     -0.715713
      19A     -0.688723    20A     -0.647274    21A     -0.630595
      22A     -0.620200    23A     -0.573212    24A     -0.547114
      25A     -0.463436    26A     -0.449487    27A     -0.446608
      28A     -0.420476    29A     -0.332775

  @DF-RHF Final Energy:  -392.75002998148375

   => Energetics <=

    Nuclear Repulsion Energy =            354.9893023133730026
    One-Electron Energy =               -1238.0486099713832573
    Two-Electron Energy =                 490.3092776765265626
    Total Energy =                       -392.7500299814837490
  Basis Set: (AUG-CC-PVTZ AUX)
    Blend: AUG-CC-PVTZ-RI
    Molecular point group: c1

    Geometry (in Angstrom), charge = 0, multiplicity = 1:

       Center              X                  Y                   Z               Mass
    ------------   -----------------  -----------------  -----------------  -----------------
         O            2.172248068464    -1.161155606507     0.002240116422    15.994914619570
         N           -0.090318931536    -0.905417606507     0.002826116422    14.003074004430
         N           -2.424233931536    -0.863307606507    -0.074152883578    14.003074004430
         N            1.330671068464     1.006609393493     0.013546116422    14.003074004430
         C           -1.232544931536    -0.170481606507     0.004609116422    12.000000000000
         C           -1.103724931536     1.200143393493     0.004453116422    12.000000000000
         C            1.233304668464    -0.355843706507     0.007657316422    12.000000000000
         C            0.213611068464     1.707466393493     0.006026116422    12.000000000000
         H           -0.124470931536    -1.919554606507    -0.064218883578     1.007825032230
         H           -1.968142931536     1.852761393493     0.016107116422     1.007825032230
         H            0.347028068464     2.790428393493     0.008268116422     1.007825032230
         H           -3.243429931536    -0.302731606507     0.130701116422     1.007825032230
         H           -2.447481931536    -1.756963606507     0.405586116422     1.007825032230

  Basis Set: AUG-CC-PVTZ
    Blend: AUG-CC-PVTZ
  Basis Set: (AUG-CC-PVTZ AUX)
    Blend: AUG-CC-PVTZ-JKFIT
	 Reference Energy          =    -392.7500299814837490 [Eh]
	 Singles Energy            =      -0.0000000000000000 [Eh]
	 Same-Spin Energy          =      -0.4070550259162800 [Eh]
	 Opposite-Spin Energy      =      -1.2151319937846912 [Eh]
	 Correlation Energy        =      -1.6221870197009711 [Eh]
	 Total Energy              =    -394.3722170011847084 [Eh]

	 ================> DF-SCS-MP2 Energies <==================
	-----------------------------------------------------------
	 SCS Same-Spin Scale       =       0.3333333333333333 [-]
	 SCS Opposite-Spin Scale   =       1.2000000000000000 [-]
	 SCS Same-Spin Energy      =      -0.1356850086387600 [Eh]
	 SCS Opposite-Spin Energy  =      -1.4581583925416293 [Eh]
	 SCS Correlation Energy    =      -1.5938434011803893 [Eh]
	 SCS Total Energy          =    -394.3438733826641283 [Eh]
	-----------------------------------------------------------

  Dipole Moment: [D]
     X:    -7.6933      Y:    -0.2977      Z:     0.8615     Total:     7.7471

*** Psi4 exiting successfully. Buy a developer a beer!
