                               Psi4 1.3.2 release

  ==> Input File <==

--------------------------------------------------------------------------
#psi4
#
memory 32 gb

molecule  {
0 1
  O       -2.2334690    -1.1675340     0.0001340
  N        0.0265130    -0.9084710    -0.0000270
  N        2.3544690    -0.8475160    -0.0005320
  N       -1.3973450     1.0028810     0.0002180
  C        1.1706060    -0.1768690    -0.0001310
  C        1.0385970     1.1986830    -0.0000890
  C       -1.2978830    -0.3751090     0.0001540
  C       -0.2159419     1.8364860     0.0000477
  H        0.0506260    -1.9247470    -0.0002200
  H        1.9024710     1.8518520    -0.0001620
  H       -0.4079780     2.7850560     0.0002120
  H        3.2235170    -0.3366370     0.0005700
  H        2.4001700    -1.8548790     0.0010060
units angstrom
no_reorient  #important for SAPT in psi4, default
symmetry c1  #important for SAPT in psi4, default
}

set PROPERTIES_ORIGIN ["COM"]
properties('MP2/aug-cc-pvtz', properties = ['dipole'])
--------------------------------------------------------------------------

    Molecular point group: c1
  Charge       = 0
  Multiplicity = 1
  Basis Set: AUG-CC-PVTZ
    Blend: AUG-CC-PVTZ
  Basis Set: (AUG-CC-PVTZ AUX)
    Blend: AUG-CC-PVTZ-JKFIT

    Orbital Energies [Eh]
    ---------------------

    Doubly Occupied:

       1A    -20.500010     2A    -15.635002     3A    -15.633424
       4A    -15.542985     5A    -11.392800     6A    -11.368447
       7A    -11.317829     8A    -11.242264     9A     -1.381206
      10A     -1.323583    11A     -1.232906    12A     -1.170146
      13A     -1.058239    14A     -0.929093    15A     -0.879746
      16A     -0.785721    17A     -0.753785    18A     -0.731499
      19A     -0.689895    20A     -0.653778    21A     -0.635891
      22A     -0.614401    23A     -0.573939    24A     -0.544323
      25A     -0.444435    26A     -0.438260    27A     -0.432345
      28A     -0.406578    29A     -0.320744

  @DF-RHF Final Energy:  -392.71525558600905

   => Energetics <=

    Nuclear Repulsion Energy =            352.6103129516794752
    One-Electron Energy =               -1233.3845871229023032
    Two-Electron Energy =                 488.0590185852137779
    Total Energy =                       -392.7152555860090501
  Basis Set: (AUG-CC-PVTZ AUX)
    Blend: AUG-CC-PVTZ-RI
    Molecular point group: c1

    Geometry (in Angstrom), charge = 0, multiplicity = 1:

       Center              X                  Y                   Z               Mass
    ------------   -----------------  -----------------  -----------------  -----------------
         O           -2.176007026938    -1.177463511701     0.000146916837    15.994914619570
         N            0.083974973062    -0.918400511701    -0.000014083163    14.003074004430
         N            2.411930973062    -0.857445511701    -0.000519083163    14.003074004430
         N           -1.339883026938     0.992951488299     0.000230916837    14.003074004430
         C            1.228067973062    -0.186798511701    -0.000118083163    12.000000000000
         C            1.096058973062     1.188753488299    -0.000076083163    12.000000000000
         C           -1.240421026938    -0.385038511701     0.000166916837    12.000000000000
         C           -0.158479926938     1.826556488299     0.000060616837    12.000000000000
         H            0.108087973062    -1.934676511701    -0.000207083163     1.007825032230
         H            1.959932973062     1.841922488299    -0.000149083163     1.007825032230
         H           -0.350516026938     2.775126488299     0.000224916837     1.007825032230
         H            3.280978973062    -0.346566511701     0.000582916837     1.007825032230
         H            2.457631973062    -1.864808511701     0.001018916837     1.007825032230

  Basis Set: AUG-CC-PVTZ
    Blend: AUG-CC-PVTZ
  Basis Set: (AUG-CC-PVTZ AUX)
    Blend: AUG-CC-PVTZ-JKFIT
	 Reference Energy          =    -392.7152555860090501 [Eh]
	 Singles Energy            =      -0.0000000000000000 [Eh]
	 Same-Spin Energy          =      -0.4089376380640867 [Eh]
	 Opposite-Spin Energy      =      -1.2186985624220383 [Eh]
	 Correlation Energy        =      -1.6276362004861251 [Eh]
	 Total Energy              =    -394.3428917864951586 [Eh]

	 ================> DF-SCS-MP2 Energies <==================
	-----------------------------------------------------------
	 SCS Same-Spin Scale       =       0.3333333333333333 [-]
	 SCS Opposite-Spin Scale   =       1.2000000000000000 [-]
	 SCS Same-Spin Energy      =      -0.1363125460213622 [Eh]
	 SCS Opposite-Spin Energy  =      -1.4624382749064460 [Eh]
	 SCS Correlation Energy    =      -1.5987508209278083 [Eh]
	 SCS Total Energy          =    -394.3140064069368691 [Eh]
	-----------------------------------------------------------

  Dipole Moment: [D]
     X:     8.5526      Y:    -0.6844      Z:     0.0030     Total:     8.5800

*** Psi4 exiting successfully. Buy a developer a beer!
