                               Psi4 1.3.2 release

  ==> Input File <==

--------------------------------------------------------------------------
#psi4
#
memory 32 gb

molecule  {
0 1
  O       -2.2334690    -1.1675340     0.0001340
  N        0.0265130    -0.9084710    -0.0000270
  N        2.3544690    -0.8475160    -0.0005320
  N       -1.3973450     1.0028810     0.0002180
  C        1.1706060    -0.1768690    -0.0001310
  C        1.0385970     1.1986830    -0.0000890
  C       -1.3318623    -0.4687934     0.0001384
  C       -0.2757380     1.7018570     0.0000510
  H        0.0506260    -1.9247470    -0.0002200
  H        1.9024710     1.8518520    -0.0001620
  H       -0.4079780     2.7850560     0.0002120
  H        3.2235170    -0.3366370     0.0005700
  H        2.4001700    -1.8548790     0.0010060
units angstrom
no_reorient  #important for SAPT in psi4, default
symmetry c1  #important for SAPT in psi4, default
}

set PROPERTIES_ORIGIN ["COM"]
properties('MP2/aug-cc-pvtz', properties = ['dipole'])
--------------------------------------------------------------------------

    Molecular point group: c1
  Charge       = 0
  Multiplicity = 1
  Basis Set: AUG-CC-PVTZ
    Blend: AUG-CC-PVTZ
  Basis Set: (AUG-CC-PVTZ AUX)
    Blend: AUG-CC-PVTZ-JKFIT

    Orbital Energies [Eh]
    ---------------------

    Doubly Occupied:

       1A    -20.533526     2A    -15.626648     3A    -15.623113
       4A    -15.539268     5A    -11.377742     6A    -11.376626
       7A    -11.295739     8A    -11.222946     9A     -1.444647
      10A     -1.330316    11A     -1.235387    12A     -1.180813
      13A     -1.046676    14A     -0.897802    15A     -0.876790
      16A     -0.780102    17A     -0.741703    18A     -0.715016
      19A     -0.688844    20A     -0.652322    21A     -0.641058
      22A     -0.624046    23A     -0.570830    24A     -0.564564
      25A     -0.471550    26A     -0.462263    27A     -0.444231
      28A     -0.395402    29A     -0.317346

  @DF-RHF Final Energy:  -392.73859863555401

   => Energetics <=

    Nuclear Repulsion Energy =            355.0334267730973465
    One-Electron Energy =               -1238.1894232483873566
    Two-Electron Energy =                 490.4173978397360543
    Total Energy =                       -392.7385986355540126
  Basis Set: (AUG-CC-PVTZ AUX)
    Blend: AUG-CC-PVTZ-RI
    Molecular point group: c1

    Geometry (in Angstrom), charge = 0, multiplicity = 1:

       Center              X                  Y                   Z               Mass
    ------------   -----------------  -----------------  -----------------  -----------------
         O           -2.165873095515    -1.152790598138     0.000148246048    15.994914619570
         N            0.094108904485    -0.893727598138    -0.000012753952    14.003074004430
         N            2.422064904485    -0.832772598138    -0.000517753952    14.003074004430
         N           -1.329749095515     1.017624401862     0.000232246048    14.003074004430
         C            1.238201904485    -0.162125598138    -0.000116753952    12.000000000000
         C            1.106192904485     1.213426401862    -0.000074753952    12.000000000000
         C           -1.264266395515    -0.454049998138     0.000152646048    12.000000000000
         C           -0.208142095515     1.716600401862     0.000065246048    12.000000000000
         H            0.118221904485    -1.910003598138    -0.000205753952     1.007825032230
         H            1.970066904485     1.866595401862    -0.000147753952     1.007825032230
         H           -0.340382095515     2.799799401862     0.000226246048     1.007825032230
         H            3.291112904485    -0.321893598138     0.000584246048     1.007825032230
         H            2.467765904485    -1.840135598138     0.001020246048     1.007825032230

  Basis Set: AUG-CC-PVTZ
    Blend: AUG-CC-PVTZ
  Basis Set: (AUG-CC-PVTZ AUX)
    Blend: AUG-CC-PVTZ-JKFIT
	 Reference Energy          =    -392.7385986355540126 [Eh]
	 Singles Energy            =      -0.0000000000000000 [Eh]
	 Same-Spin Energy          =      -0.4055171152413212 [Eh]
	 Opposite-Spin Energy      =      -1.2128702794131518 [Eh]
	 Correlation Energy        =      -1.6183873946544731 [Eh]
	 Total Energy              =    -394.3569860302084749 [Eh]

	 ================> DF-SCS-MP2 Energies <==================
	-----------------------------------------------------------
	 SCS Same-Spin Scale       =       0.3333333333333333 [-]
	 SCS Opposite-Spin Scale   =       1.2000000000000000 [-]
	 SCS Same-Spin Energy      =      -0.1351723717471071 [Eh]
	 SCS Opposite-Spin Energy  =      -1.4554443352957822 [Eh]
	 SCS Correlation Energy    =      -1.5906167070428894 [Eh]
	 SCS Total Energy          =    -394.3292153425969104 [Eh]
	-----------------------------------------------------------

  Dipole Moment: [D]
     X:     7.3293      Y:    -1.5366      Z:     0.0031     Total:     7.4887

*** Psi4 exiting successfully. Buy a developer a beer!
