                               Psi4 1.3.2 release

  ==> Input File <==

--------------------------------------------------------------------------
#psi4
#
memory 32 gb

molecule  {
0 1
  O       -2.2334690    -1.1675340     0.0001340
  N        0.0265130    -0.9084710    -0.0000270
  N        2.3544690    -0.8475160    -0.0005320
  N       -1.4642636     1.1239499     0.0002211
  C        1.1706060    -0.1768690    -0.0001310
  C        1.0385970     1.1986830    -0.0000890
  C       -1.2978830    -0.3751090     0.0001540
  C       -0.2757380     1.7018570     0.0000510
  H        0.0506260    -1.9247470    -0.0002200
  H        1.9024710     1.8518520    -0.0001620
  H       -0.4079780     2.7850560     0.0002120
  H        3.2235170    -0.3366370     0.0005700
  H        2.4001700    -1.8548790     0.0010060
units angstrom
no_reorient  #important for SAPT in psi4, default
symmetry c1  #important for SAPT in psi4, default
}

set PROPERTIES_ORIGIN ["COM"]
properties('MP2/aug-cc-pvtz', properties = ['dipole'])
--------------------------------------------------------------------------

    Molecular point group: c1
  Charge       = 0
  Multiplicity = 1
  Basis Set: AUG-CC-PVTZ
    Blend: AUG-CC-PVTZ
  Basis Set: (AUG-CC-PVTZ AUX)
    Blend: AUG-CC-PVTZ-JKFIT

    Orbital Energies [Eh]
    ---------------------

    Doubly Occupied:

       1A    -20.522902     2A    -15.637139     3A    -15.629112
       4A    -15.563738     5A    -11.387432     6A    -11.383831
       7A    -11.300158     8A    -11.231018     9A     -1.390418
      10A     -1.326215    11A     -1.236097    12A     -1.194182
      13A     -1.051611    14A     -0.899720    15A     -0.877832
      16A     -0.786368    17A     -0.743411    18A     -0.724023
      19A     -0.680290    20A     -0.636984    21A     -0.635507
      22A     -0.623526    23A     -0.556330    24A     -0.544532
      25A     -0.468548    26A     -0.463700    27A     -0.444835
      28A     -0.412861    29A     -0.324320

  @DF-RHF Final Energy:  -392.73385789997639

   => Energetics <=

    Nuclear Repulsion Energy =            352.0547508668848877
    One-Electron Energy =               -1232.2239400007342738
    Two-Electron Energy =                 487.4353312338730007
    Total Energy =                       -392.7338578999763854
  Basis Set: (AUG-CC-PVTZ AUX)
    Blend: AUG-CC-PVTZ-RI
    Molecular point group: c1

    Geometry (in Angstrom), charge = 0, multiplicity = 1:

       Center              X                  Y                   Z               Mass
    ------------   -----------------  -----------------  -----------------  -----------------
         O           -2.161106354161    -1.178182049368     0.000146169294    15.994914619570
         N            0.098875645839    -0.919119049368    -0.000014830706    14.003074004430
         N            2.426831645839    -0.858164049368    -0.000519830706    14.003074004430
         N           -1.391900954161     1.113301850632     0.000233269294    14.003074004430
         C            1.242968645839    -0.187517049368    -0.000118830706    12.000000000000
         C            1.110959645839     1.188034950632    -0.000076830706    12.000000000000
         C           -1.225520354161    -0.385757049368     0.000166169294    12.000000000000
         C           -0.203375354161     1.691208950632     0.000063169294    12.000000000000
         H            0.122988645839    -1.935395049368    -0.000207830706     1.007825032230
         H            1.974833645839     1.841203950632    -0.000149830706     1.007825032230
         H           -0.335615354161     2.774407950632     0.000224169294     1.007825032230
         H            3.295879645839    -0.347285049368     0.000582169294     1.007825032230
         H            2.472532645839    -1.865527049368     0.001018169294     1.007825032230

  Basis Set: AUG-CC-PVTZ
    Blend: AUG-CC-PVTZ
  Basis Set: (AUG-CC-PVTZ AUX)
    Blend: AUG-CC-PVTZ-JKFIT
	 Reference Energy          =    -392.7338578999763854 [Eh]
	 Singles Energy            =      -0.0000000000000000 [Eh]
	 Same-Spin Energy          =      -0.4070105590541016 [Eh]
	 Opposite-Spin Energy      =      -1.2178448095478043 [Eh]
	 Correlation Energy        =      -1.6248553686019058 [Eh]
	 Total Energy              =    -394.3587132685782990 [Eh]

	 ================> DF-SCS-MP2 Energies <==================
	-----------------------------------------------------------
	 SCS Same-Spin Scale       =       0.3333333333333333 [-]
	 SCS Opposite-Spin Scale   =       1.2000000000000000 [-]
	 SCS Same-Spin Energy      =      -0.1356701863513672 [Eh]
	 SCS Opposite-Spin Energy  =      -1.4614137714573652 [Eh]
	 SCS Correlation Energy    =      -1.5970839578087324 [Eh]
	 SCS Total Energy          =    -394.3309418577850920 [Eh]
	-----------------------------------------------------------

  Dipole Moment: [D]
     X:     7.9108      Y:    -1.3275      Z:     0.0030     Total:     8.0214

*** Psi4 exiting successfully. Buy a developer a beer!
