                               Psi4 1.3.2 release

  ==> Input File <==

--------------------------------------------------------------------------
#psi4
#
memory 32 gb

molecule  {
0 1
  O       -2.2334690    -1.1675340     0.0001340
  N        0.0265130    -0.9084710    -0.0000270
  N        2.3544690    -0.8475160    -0.0005320
  N       -1.3973450     1.0028810     0.0002180
  C        1.1576635    -0.1570133    -0.0001246
  C        1.0385970     1.1986830    -0.0000890
  C       -1.2978830    -0.3751090     0.0001540
  C       -0.2757380     1.7018570     0.0000510
  H        0.0506260    -1.9247470    -0.0002200
  H        1.9024710     1.8518520    -0.0001620
  H       -0.4079780     2.7850560     0.0002120
  H        3.2235170    -0.3366370     0.0005700
  H        2.4001700    -1.8548790     0.0010060
units angstrom
no_reorient  #important for SAPT in psi4, default
symmetry c1  #important for SAPT in psi4, default
}

set PROPERTIES_ORIGIN ["COM"]
properties('MP2/aug-cc-pvtz', properties = ['dipole'])
--------------------------------------------------------------------------

    Molecular point group: c1
  Charge       = 0
  Multiplicity = 1
  Basis Set: AUG-CC-PVTZ
    Blend: AUG-CC-PVTZ
  Basis Set: (AUG-CC-PVTZ AUX)
    Blend: AUG-CC-PVTZ-JKFIT

    Orbital Energies [Eh]
    ---------------------

    Doubly Occupied:

       1A    -20.510078     2A    -15.631626     3A    -15.624299
       4A    -15.548649     5A    -11.382115     6A    -11.376227
       7A    -11.311260     8A    -11.232818     9A     -1.389167
      10A     -1.319390    11A     -1.239707    12A     -1.197888
      13A     -1.063490    14A     -0.910749    15A     -0.881854
      16A     -0.781048    17A     -0.751777    18A     -0.716816
      19A     -0.693362    20A     -0.637827    21A     -0.636702
      22A     -0.622773    23A     -0.572801    24A     -0.544612
      25A     -0.461973    26A     -0.449019    27A     -0.440680
      28A     -0.416689    29A     -0.329474

  @DF-RHF Final Energy:  -392.75042685834183

   => Energetics <=

    Nuclear Repulsion Energy =            355.3224169033086355
    One-Electron Energy =               -1238.7959569804454532
    Two-Electron Energy =                 490.7231132187949925
    Total Energy =                       -392.7504268583418252
  Basis Set: (AUG-CC-PVTZ AUX)
    Blend: AUG-CC-PVTZ-RI
    Molecular point group: c1

    Geometry (in Angstrom), charge = 0, multiplicity = 1:

       Center              X                  Y                   Z               Mass
    ------------   -----------------  -----------------  -----------------  -----------------
         O           -2.168146458130    -1.165060421430     0.000145868597    15.994914619570
         N            0.091835541870    -0.905997421430    -0.000015131403    14.003074004430
         N            2.419791541870    -0.845042421430    -0.000520131403    14.003074004430
         N           -1.332022458130     1.005354578570     0.000229868597    14.003074004430
         C            1.222986041870    -0.154539721430    -0.000112731403    12.000000000000
         C            1.103919541870     1.201156578570    -0.000077131403    12.000000000000
         C           -1.232560458130    -0.372635421430     0.000165868597    12.000000000000
         C           -0.210415458130     1.704330578570     0.000062868597    12.000000000000
         H            0.115948541870    -1.922273421430    -0.000208131403     1.007825032230
         H            1.967793541870     1.854325578570    -0.000150131403     1.007825032230
         H           -0.342655458130     2.787529578570     0.000223868597     1.007825032230
         H            3.288839541870    -0.334163421430     0.000581868597     1.007825032230
         H            2.465492541870    -1.852405421430     0.001017868597     1.007825032230

  Basis Set: AUG-CC-PVTZ
    Blend: AUG-CC-PVTZ
  Basis Set: (AUG-CC-PVTZ AUX)
    Blend: AUG-CC-PVTZ-JKFIT
	 Reference Energy          =    -392.7504268583418252 [Eh]
	 Singles Energy            =      -0.0000000000000000 [Eh]
	 Same-Spin Energy          =      -0.4067788184905908 [Eh]
	 Opposite-Spin Energy      =      -1.2142517185929571 [Eh]
	 Correlation Energy        =      -1.6210305370835481 [Eh]
	 Total Energy              =    -394.3714573954253524 [Eh]

	 ================> DF-SCS-MP2 Energies <==================
	-----------------------------------------------------------
	 SCS Same-Spin Scale       =       0.3333333333333333 [-]
	 SCS Opposite-Spin Scale   =       1.2000000000000000 [-]
	 SCS Same-Spin Energy      =      -0.1355929394968636 [Eh]
	 SCS Opposite-Spin Energy  =      -1.4571020623115485 [Eh]
	 SCS Correlation Energy    =      -1.5926950018084121 [Eh]
	 SCS Total Energy          =    -394.3431218601502337 [Eh]
	-----------------------------------------------------------

  Dipole Moment: [D]
     X:     7.9486      Y:    -0.7178      Z:     0.0031     Total:     7.9810

*** Psi4 exiting successfully. Buy a developer a beer!
