                               Psi4 1.3.2 release

  ==> Input File <==

--------------------------------------------------------------------------
#psi4
#
memory 32 gb

molecule  {
0 1
  O       -2.2334690    -1.1675340     0.0001340
  N        0.0265130    -0.9084710    -0.0000270
  N        2.3544690    -0.8475160    -0.0005320
  N       -1.3973450     1.0028810     0.0002180
  C        1.1590819    -0.1976324    -0.0001651
  C        1.0385970     1.1986830    -0.0000890
  C       -1.2978830    -0.3751090     0.0001540
  C       -0.2757380     1.7018570     0.0000510
  H        0.0506260    -1.9247470    -0.0002200
  H        1.9024710     1.8518520    -0.0001620
  H       -0.4079780     2.7850560     0.0002120
  H        3.2235170    -0.3366370     0.0005700
  H        2.4001700    -1.8548790     0.0010060
units angstrom
no_reorient  #important for SAPT in psi4, default
symmetry c1  #important for SAPT in psi4, default
}

set PROPERTIES_ORIGIN ["COM"]
properties('MP2/aug-cc-pvtz', properties = ['dipole'])
--------------------------------------------------------------------------

    Molecular point group: c1
  Charge       = 0
  Multiplicity = 1
  Basis Set: AUG-CC-PVTZ
    Blend: AUG-CC-PVTZ
  Basis Set: (AUG-CC-PVTZ AUX)
    Blend: AUG-CC-PVTZ-JKFIT

    Orbital Energies [Eh]
    ---------------------

    Doubly Occupied:

       1A    -20.509933     2A    -15.635300     3A    -15.630168
       4A    -15.543693     5A    -11.385730     6A    -11.376478
       7A    -11.306733     8A    -11.232618     9A     -1.391295
      10A     -1.327059    11A     -1.243743    12A     -1.201829
      13A     -1.052650    14A     -0.908830    15A     -0.887235
      16A     -0.786592    17A     -0.754810    18A     -0.723813
      19A     -0.690092    20A     -0.641776    21A     -0.635641
      22A     -0.619187    23A     -0.568119    24A     -0.548122
      25A     -0.459601    26A     -0.447494    27A     -0.444745
      28A     -0.414762    29A     -0.322534

  @DF-RHF Final Energy:  -392.75084969784371

   => Energetics <=

    Nuclear Repulsion Energy =            355.3000212662122408
    One-Electron Energy =               -1238.7205712348736597
    Two-Electron Energy =                 490.6697002708176569
    Total Energy =                       -392.7508496978437051
  Basis Set: (AUG-CC-PVTZ AUX)
    Blend: AUG-CC-PVTZ-RI
    Molecular point group: c1

    Geometry (in Angstrom), charge = 0, multiplicity = 1:

       Center              X                  Y                   Z               Mass
    ------------   -----------------  -----------------  -----------------  -----------------
         O           -2.168299738930    -1.160670878182     0.000150245269    15.994914619570
         N            0.091682261070    -0.901607878182    -0.000010754731    14.003074004430
         N            2.419638261070    -0.840652878182    -0.000515754731    14.003074004430
         N           -1.332175738930     1.009744121818     0.000234245269    14.003074004430
         C            1.224251161070    -0.190769278182    -0.000148854731    12.000000000000
         C            1.103766261070     1.205546121818    -0.000072754731    12.000000000000
         C           -1.232713738930    -0.368245878182     0.000170245269    12.000000000000
         C           -0.210568738930     1.708720121818     0.000067245269    12.000000000000
         H            0.115795261070    -1.917883878182    -0.000203754731     1.007825032230
         H            1.967640261070     1.858715121818    -0.000145754731     1.007825032230
         H           -0.342808738930     2.791919121818     0.000228245269     1.007825032230
         H            3.288686261070    -0.329773878182     0.000586245269     1.007825032230
         H            2.465339261070    -1.848015878182     0.001022245269     1.007825032230

  Basis Set: AUG-CC-PVTZ
    Blend: AUG-CC-PVTZ
  Basis Set: (AUG-CC-PVTZ AUX)
    Blend: AUG-CC-PVTZ-JKFIT
	 Reference Energy          =    -392.7508496978437051 [Eh]
	 Singles Energy            =      -0.0000000000000000 [Eh]
	 Same-Spin Energy          =      -0.4068994191069780 [Eh]
	 Opposite-Spin Energy      =      -1.2139088813584160 [Eh]
	 Correlation Energy        =      -1.6208083004653941 [Eh]
	 Total Energy              =    -394.3716579983091037 [Eh]

	 ================> DF-SCS-MP2 Energies <==================
	-----------------------------------------------------------
	 SCS Same-Spin Scale       =       0.3333333333333333 [-]
	 SCS Opposite-Spin Scale   =       1.2000000000000000 [-]
	 SCS Same-Spin Energy      =      -0.1356331397023260 [Eh]
	 SCS Opposite-Spin Energy  =      -1.4566906576300991 [Eh]
	 SCS Correlation Energy    =      -1.5923237973324251 [Eh]
	 SCS Total Energy          =    -394.3431734951761314 [Eh]
	-----------------------------------------------------------

  Dipole Moment: [D]
     X:     8.1641      Y:    -0.9862      Z:     0.0030     Total:     8.2234

*** Psi4 exiting successfully. Buy a developer a beer!
