                               Psi4 1.4a3.dev225

  ==> Input File <==

--------------------------------------------------------------------------
#psi4
#
memory 32 gb

molecule  {
0 1
  O        2.2358750    -1.1647400    -0.0019990
  N       -0.0266920    -0.9090020    -0.0014130
  N       -2.3606070    -0.8668920    -0.0783920
  N        1.3942980     1.0030250     0.0093070
  C       -1.1689180    -0.1740660     0.0003700
  C       -1.0400980     1.1965590     0.0002140
  C        1.2955060    -0.3793770     0.0033320
  C        0.2772380     1.7038820     0.0017870
  H       -0.0608440    -1.9231390    -0.0684580
  H       -1.9045160     1.8491770     0.0118680
  H        0.4106550     2.7868440     0.0040290
  H       -3.2202150    -0.2786620     0.1365677
  H       -2.3838550    -1.7605480     0.4013470
units angstrom
no_reorient  #important for SAPT in psi4, default
symmetry c1  #important for SAPT in psi4, default
}

set PROPERTIES_ORIGIN ["COM"]
properties('MP2/aug-cc-pvtz', properties = ['dipole'])
--------------------------------------------------------------------------

    Molecular point group: c1
  Charge       = 0
  Multiplicity = 1
  Basis Set: AUG-CC-PVTZ
    Blend: AUG-CC-PVTZ
  Basis Set: (AUG-CC-PVTZ AUX)
    Blend: AUG-CC-PVTZ-JKFIT

    Orbital Energies [Eh]
    ---------------------

    Doubly Occupied:

       1A    -20.512517     2A    -15.634078     3A    -15.631232
       4A    -15.551788     5A    -11.381207     6A    -11.378740
       7A    -11.312665     8A    -11.237269     9A     -1.391370
      10A     -1.321366    11A     -1.241239    12A     -1.199335
      13A     -1.059194    14A     -0.908648    15A     -0.881202
      16A     -0.775315    17A     -0.747276    18A     -0.712211
      19A     -0.681088    20A     -0.646276    21A     -0.629875
      22A     -0.623425    23A     -0.573603    24A     -0.547047
      25A     -0.463704    26A     -0.451586    27A     -0.448169
      28A     -0.418461    29A     -0.331395

  @DF-RHF Final Energy:  -392.74739930554711

   => Energetics <=

    Nuclear Repulsion Energy =            354.7173167180464475
    One-Electron Energy =               -1237.5468675307017747
    Two-Electron Energy =                 490.0821515071081649
    Total Energy =                       -392.7473993055471055
  Basis Set: (AUG-CC-PVTZ AUX)
    Blend: AUG-CC-PVTZ-RI
    Molecular point group: c1

    Geometry (in Angstrom), charge = 0, multiplicity = 1:

       Center              X                  Y                   Z               Mass
    ------------   -----------------  -----------------  -----------------  -----------------
         O            2.172768905337    -1.159250795687     0.002157712705    15.994914619570
         N           -0.089798094663    -0.903512795687     0.002743712705    14.003074004430
         N           -2.423713094663    -0.861402795687    -0.074235287295    14.003074004430
         N            1.331191905337     1.008514204313     0.013463712705    14.003074004430
         C           -1.232024094663    -0.168576795687     0.004526712705    12.000000000000
         C           -1.103204094663     1.202048204313     0.004370712705    12.000000000000
         C            1.232399905337    -0.373887795687     0.007488712705    12.000000000000
         C            0.214131905337     1.709371204313     0.005943712705    12.000000000000
         H           -0.123950094663    -1.917649795687    -0.064301287295     1.007825032230
         H           -1.967622094663     1.854666204313     0.016024712705     1.007825032230
         H            0.347548905337     2.792333204313     0.008185712705     1.007825032230
         H           -3.283321094663    -0.273172795687     0.140724412705     1.007825032230
         H           -2.446961094663    -1.755058795687     0.405503712705     1.007825032230

  Basis Set: AUG-CC-PVTZ
    Blend: AUG-CC-PVTZ
  Basis Set: (AUG-CC-PVTZ AUX)
    Blend: AUG-CC-PVTZ-JKFIT
	 Reference Energy          =    -392.7473993055471055 [Eh]
	 Singles Energy            =      -0.0000000000000000 [Eh]
	 Same-Spin Energy          =      -0.4071096307554142 [Eh]
	 Opposite-Spin Energy      =      -1.2158279359645094 [Eh]
	 Correlation Energy        =      -1.6229375667199237 [Eh]
	 Total Energy              =    -394.3703368722670461 [Eh]

	 ================> DF-SCS-MP2 Energies <==================
	-----------------------------------------------------------
	 SCS Same-Spin Scale       =       0.3333333333333333 [-]
	 SCS Opposite-Spin Scale   =       1.2000000000000000 [-]
	 SCS Same-Spin Energy      =      -0.1357032102518047 [Eh]
	 SCS Opposite-Spin Energy  =      -1.4589935231574114 [Eh]
	 SCS Correlation Energy    =      -1.5946967334092161 [Eh]
	 SCS Total Energy          =    -394.3420960389562993 [Eh]
	-----------------------------------------------------------

  Dipole Moment: [D]
     X:    -7.6431      Y:    -0.3878      Z:     0.8669     Total:     7.7019

*** Psi4 exiting successfully. Buy a developer a beer!
