                               Psi4 1.3.2 release

  ==> Input File <==

--------------------------------------------------------------------------
#psi4
#
memory 32 gb

molecule  {
0 1
  O       -2.2334690    -1.1675340     0.0001340
  N        0.0443203    -0.8619253    -0.0000274
  N        2.3544690    -0.8475160    -0.0005320
  N       -1.3973450     1.0028810     0.0002180
  C        1.1706060    -0.1768690    -0.0001310
  C        1.0385970     1.1986830    -0.0000890
  C       -1.2978830    -0.3751090     0.0001540
  C       -0.2757380     1.7018570     0.0000510
  H        0.0506260    -1.9247470    -0.0002200
  H        1.9024710     1.8518520    -0.0001620
  H       -0.4079780     2.7850560     0.0002120
  H        3.2235170    -0.3366370     0.0005700
  H        2.4001700    -1.8548790     0.0010060
units angstrom
no_reorient  #important for SAPT in psi4, default
symmetry c1  #important for SAPT in psi4, default
}

set PROPERTIES_ORIGIN ["COM"]
properties('MP2/aug-cc-pvtz', properties = ['dipole'])
--------------------------------------------------------------------------

    Molecular point group: c1
  Charge       = 0
  Multiplicity = 1
  Basis Set: AUG-CC-PVTZ
    Blend: AUG-CC-PVTZ
  Basis Set: (AUG-CC-PVTZ AUX)
    Blend: AUG-CC-PVTZ-JKFIT

    Orbital Energies [Eh]
    ---------------------

    Doubly Occupied:

       1A    -20.512867     2A    -15.636995     3A    -15.628202
       4A    -15.543701     5A    -11.380333     6A    -11.377862
       7A    -11.306487     8A    -11.230046     9A     -1.392364
      10A     -1.330457    11A     -1.244743    12A     -1.198727
      13A     -1.056729    14A     -0.906839    15A     -0.890563
      16A     -0.785992    17A     -0.752711    18A     -0.712849
      19A     -0.691315    20A     -0.645148    21A     -0.635257
      22A     -0.619425    23A     -0.568463    24A     -0.548631
      25A     -0.458774    26A     -0.449585    27A     -0.445825
      28A     -0.414014    29A     -0.324004

  @DF-RHF Final Energy:  -392.74617641823278

   => Energetics <=

    Nuclear Repulsion Energy =            355.9926725628060353
    One-Electron Energy =               -1240.0998776225167148
    Two-Electron Energy =                 491.3610286414778443
    Total Energy =                       -392.7461764182327784
  Basis Set: (AUG-CC-PVTZ AUX)
    Blend: AUG-CC-PVTZ-RI
    Molecular point group: c1

    Geometry (in Angstrom), charge = 0, multiplicity = 1:

       Center              X                  Y                   Z               Mass
    ------------   -----------------  -----------------  -----------------  -----------------
         O           -2.171790685912    -1.168784325744     0.000146610661    15.994914619570
         N            0.105998614088    -0.863175625744    -0.000014789339    14.003074004430
         N            2.416147314088    -0.848766325744    -0.000519389339    14.003074004430
         N           -1.335666685912     1.001630674256     0.000230610661    14.003074004430
         C            1.232284314088    -0.178119325744    -0.000118389339    12.000000000000
         C            1.100275314088     1.197432674256    -0.000076389339    12.000000000000
         C           -1.236204685912    -0.376359325744     0.000166610661    12.000000000000
         C           -0.214059685912     1.700606674256     0.000063610661    12.000000000000
         H            0.112304314088    -1.925997325744    -0.000207389339     1.007825032230
         H            1.964149314088     1.850601674256    -0.000149389339     1.007825032230
         H           -0.346299685912     2.783805674256     0.000224610661     1.007825032230
         H            3.285195314088    -0.337887325744     0.000582610661     1.007825032230
         H            2.461848314088    -1.856129325744     0.001018610661     1.007825032230

  Basis Set: AUG-CC-PVTZ
    Blend: AUG-CC-PVTZ
  Basis Set: (AUG-CC-PVTZ AUX)
    Blend: AUG-CC-PVTZ-JKFIT
	 Reference Energy          =    -392.7461764182327784 [Eh]
	 Singles Energy            =      -0.0000000000000000 [Eh]
	 Same-Spin Energy          =      -0.4077290328469103 [Eh]
	 Opposite-Spin Energy      =      -1.2150899251847445 [Eh]
	 Correlation Energy        =      -1.6228189580316548 [Eh]
	 Total Energy              =    -394.3689953762644222 [Eh]

	 ================> DF-SCS-MP2 Energies <==================
	-----------------------------------------------------------
	 SCS Same-Spin Scale       =       0.3333333333333333 [-]
	 SCS Opposite-Spin Scale   =       1.2000000000000000 [-]
	 SCS Same-Spin Energy      =      -0.1359096776156368 [Eh]
	 SCS Opposite-Spin Energy  =      -1.4581079102216934 [Eh]
	 SCS Correlation Energy    =      -1.5940175878373302 [Eh]
	 SCS Total Energy          =    -394.3401940060701349 [Eh]
	-----------------------------------------------------------

  Dipole Moment: [D]
     X:     8.0772      Y:    -0.9970      Z:     0.0030     Total:     8.1385

*** Psi4 exiting successfully. Buy a developer a beer!
