                               Psi4 1.3.2 release

  ==> Input File <==

--------------------------------------------------------------------------
#psi4
#
memory 32 gb

molecule  {
0 1
  O       -2.2334690    -1.1675340     0.0001340
  N        0.0265130    -0.9084710    -0.0000270
  N        2.3544690    -0.8475160    -0.0005320
  N       -1.3973450     1.0028810     0.0002180
  C        1.1706060    -0.1768690    -0.0001310
  C        1.0385970     1.1986830    -0.0000890
  C       -1.2978830    -0.3751090     0.0001540
  C       -0.2757380     1.7018570     0.0000510
  H        0.0506260    -1.9247470    -0.0002200
  H        1.9024710     1.8518520    -0.0001620
  H       -0.4079780     2.7850560     0.0002120
  H        3.2570369    -0.3985032     0.0007292
  H        2.4001700    -1.8548790     0.0010060
units angstrom
no_reorient  #important for SAPT in psi4, default
symmetry c1  #important for SAPT in psi4, default
}

set PROPERTIES_ORIGIN ["COM"]
properties('MP2/aug-cc-pvtz', properties = ['dipole'])
--------------------------------------------------------------------------

    Molecular point group: c1
  Charge       = 0
  Multiplicity = 1
  Basis Set: AUG-CC-PVTZ
    Blend: AUG-CC-PVTZ
  Basis Set: (AUG-CC-PVTZ AUX)
    Blend: AUG-CC-PVTZ-JKFIT

    Orbital Energies [Eh]
    ---------------------

    Doubly Occupied:

       1A    -20.509299     2A    -15.632344     3A    -15.628757
       4A    -15.545651     5A    -11.385330     6A    -11.375761
       7A    -11.308686     8A    -11.232339     9A     -1.388700
      10A     -1.322984    11A     -1.242527    12A     -1.198900
      13A     -1.057862    14A     -0.910602    15A     -0.884062
      16A     -0.783663    17A     -0.751521    18A     -0.723958
      19A     -0.688791    20A     -0.638557    21A     -0.636380
      22A     -0.620139    23A     -0.569005    24A     -0.547735
      25A     -0.460074    26A     -0.447557    27A     -0.442025
      28A     -0.415368    29A     -0.325460

  @DF-RHF Final Energy:  -392.75051626154021

   => Energetics <=

    Nuclear Repulsion Energy =            355.1000227729046514
    One-Electron Energy =               -1238.3530026819846626
    Two-Electron Energy =                 490.5024636475398552
    Total Energy =                       -392.7505162615402128
  Basis Set: (AUG-CC-PVTZ AUX)
    Blend: AUG-CC-PVTZ-RI
    Molecular point group: c1

    Geometry (in Angstrom), charge = 0, multiplicity = 1:

       Center              X                  Y                   Z               Mass
    ------------   -----------------  -----------------  -----------------  -----------------
         O           -2.169849327725    -1.162353199937     0.000145115325    15.994914619570
         N            0.090132672275    -0.903290199937    -0.000015884675    14.003074004430
         N            2.418088672275    -0.842335199937    -0.000520884675    14.003074004430
         N           -1.333725327725     1.008061800063     0.000229115325    14.003074004430
         C            1.234225672275    -0.171688199937    -0.000119884675    12.000000000000
         C            1.102216672275     1.203863800063    -0.000077884675    12.000000000000
         C           -1.234263327725    -0.369928199937     0.000165115325    12.000000000000
         C           -0.212118327725     1.707037800063     0.000062115325    12.000000000000
         H            0.114245672275    -1.919566199937    -0.000208884675     1.007825032230
         H            1.966090672275     1.857032800063    -0.000150884675     1.007825032230
         H           -0.344358327725     2.790236800063     0.000223115325     1.007825032230
         H            3.320656572275    -0.393322399937     0.000740315325     1.007825032230
         H            2.463789672275    -1.849698199937     0.001017115325     1.007825032230

  Basis Set: AUG-CC-PVTZ
    Blend: AUG-CC-PVTZ
  Basis Set: (AUG-CC-PVTZ AUX)
    Blend: AUG-CC-PVTZ-JKFIT
	 Reference Energy          =    -392.7505162615402128 [Eh]
	 Singles Energy            =      -0.0000000000000000 [Eh]
	 Same-Spin Energy          =      -0.4068646620028132 [Eh]
	 Opposite-Spin Energy      =      -1.2141727504514912 [Eh]
	 Correlation Energy        =      -1.6210374124543043 [Eh]
	 Total Energy              =    -394.3715536739945264 [Eh]

	 ================> DF-SCS-MP2 Energies <==================
	-----------------------------------------------------------
	 SCS Same-Spin Scale       =       0.3333333333333333 [-]
	 SCS Opposite-Spin Scale   =       1.2000000000000000 [-]
	 SCS Same-Spin Energy      =      -0.1356215540009377 [Eh]
	 SCS Opposite-Spin Energy  =      -1.4570073005417894 [Eh]
	 SCS Correlation Energy    =      -1.5926288545427272 [Eh]
	 SCS Total Energy          =    -394.3431451160829511 [Eh]
	-----------------------------------------------------------

  Dipole Moment: [D]
     X:     8.1684      Y:    -0.8992      Z:     0.0032     Total:     8.2177

*** Psi4 exiting successfully. Buy a developer a beer!
