                               Psi4 1.4a3.dev225

  ==> Input File <==

--------------------------------------------------------------------------
#psi4
#
memory 32 gb

molecule  {
0 1
  O        2.2358750    -1.1647400    -0.0019990
  N       -0.0266920    -0.9090020    -0.0014130
  N       -2.3606070    -0.8668920    -0.0783920
  N        1.3942980     1.0030250     0.0093070
  C       -1.1689180    -0.1740660     0.0003700
  C       -1.0400980     1.1965590     0.0002140
  C        1.2490915    -0.3979690     0.0031654
  C        0.2772380     1.7038820     0.0017870
  H       -0.0608440    -1.9231390    -0.0684580
  H       -1.9045160     1.8491770     0.0118680
  H        0.4106550     2.7868440     0.0040290
  H       -3.1798030    -0.3063160     0.1264620
  H       -2.3838550    -1.7605480     0.4013470
units angstrom
no_reorient  #important for SAPT in psi4, default
symmetry c1  #important for SAPT in psi4, default
}

set PROPERTIES_ORIGIN ["COM"]
properties('MP2/aug-cc-pvtz', properties = ['dipole'])
--------------------------------------------------------------------------

    Molecular point group: c1
  Charge       = 0
  Multiplicity = 1
  Basis Set: AUG-CC-PVTZ
    Blend: AUG-CC-PVTZ
  Basis Set: (AUG-CC-PVTZ AUX)
    Blend: AUG-CC-PVTZ-JKFIT

    Orbital Energies [Eh]
    ---------------------

    Doubly Occupied:

       1A    -20.506487     2A    -15.641569     3A    -15.629241
       4A    -15.555873     5A    -11.383881     6A    -11.377476
       7A    -11.311069     8A    -11.240456     9A     -1.388879
      10A     -1.319232    11A     -1.243861    12A     -1.206473
      13A     -1.061489    14A     -0.910016    15A     -0.895056
      16A     -0.781411    17A     -0.750681    18A     -0.720916
      19A     -0.688866    20A     -0.650395    21A     -0.634397
      22A     -0.618691    23A     -0.567348    24A     -0.544361
      25A     -0.465422    26A     -0.447772    27A     -0.444640
      28A     -0.420186    29A     -0.331775

  @DF-RHF Final Energy:  -392.74664387172658

   => Energetics <=

    Nuclear Repulsion Energy =            355.2358141459762351
    One-Electron Energy =               -1238.4890823607274797
    Two-Electron Energy =                 490.5066243430246118
    Total Energy =                       -392.7466438717265760
  Basis Set: (AUG-CC-PVTZ AUX)
    Blend: AUG-CC-PVTZ-RI
    Molecular point group: c1

    Geometry (in Angstrom), charge = 0, multiplicity = 1:

       Center              X                  Y                   Z               Mass
    ------------   -----------------  -----------------  -----------------  -----------------
         O            2.177417956225    -1.156990645999     0.002267435504    15.994914619570
         N           -0.085149043775    -0.901252645999     0.002853435504    14.003074004430
         N           -2.419064043775    -0.859142645999    -0.074125564496    14.003074004430
         N            1.335840956225     1.010774354001     0.013573435504    14.003074004430
         C           -1.227375043775    -0.166316645999     0.004636435504    12.000000000000
         C           -1.098555043775     1.204308354001     0.004480435504    12.000000000000
         C            1.190634456225    -0.390219645999     0.007431835504    12.000000000000
         C            0.218780956225     1.711631354001     0.006053435504    12.000000000000
         H           -0.119301043775    -1.915389645999    -0.064191564496     1.007825032230
         H           -1.962973043775     1.856926354001     0.016134435504     1.007825032230
         H            0.352197956225     2.794593354001     0.008295435504     1.007825032230
         H           -3.238260043775    -0.298566645999     0.130728435504     1.007825032230
         H           -2.442312043775    -1.752798645999     0.405613435504     1.007825032230

  Basis Set: AUG-CC-PVTZ
    Blend: AUG-CC-PVTZ
  Basis Set: (AUG-CC-PVTZ AUX)
    Blend: AUG-CC-PVTZ-JKFIT
	 Reference Energy          =    -392.7466438717261212 [Eh]
	 Singles Energy            =      -0.0000000000000000 [Eh]
	 Same-Spin Energy          =      -0.4072546374849987 [Eh]
	 Opposite-Spin Energy      =      -1.2162487626183087 [Eh]
	 Correlation Energy        =      -1.6235034001033075 [Eh]
	 Total Energy              =    -394.3701472718294099 [Eh]

	 ================> DF-SCS-MP2 Energies <==================
	-----------------------------------------------------------
	 SCS Same-Spin Scale       =       0.3333333333333333 [-]
	 SCS Opposite-Spin Scale   =       1.2000000000000000 [-]
	 SCS Same-Spin Energy      =      -0.1357515458283329 [Eh]
	 SCS Opposite-Spin Energy  =      -1.4594985151419704 [Eh]
	 SCS Correlation Energy    =      -1.5952500609703033 [Eh]
	 SCS Total Energy          =    -394.3418939326964505 [Eh]
	-----------------------------------------------------------

  Dipole Moment: [D]
     X:    -7.8912      Y:    -0.3538      Z:     0.8632     Total:     7.9461

*** Psi4 exiting successfully. Buy a developer a beer!
