                               Psi4 1.3.2 release

  ==> Input File <==

--------------------------------------------------------------------------
#psi4
#
memory 32 gb

molecule  {
0 1
  O       -2.2334690    -1.1675340     0.0001340
  N        0.0265130    -0.9084710    -0.0000270
  N        2.3544690    -0.8475160    -0.0005320
  N       -1.3973450     1.0028810     0.0002180
  C        1.1706060    -0.1768690    -0.0001310
  C        1.0385970     1.1986830    -0.0000890
  C       -1.2978830    -0.3751090     0.0001540
  C       -0.2757380     1.7018570     0.0000510
  H        0.0506260    -1.9247470    -0.0002200
  H        1.9024710     1.8518520    -0.0001620
  H       -0.4322146     2.9835820     0.0002415
  H        3.2235170    -0.3366370     0.0005700
  H        2.4001700    -1.8548790     0.0010060
units angstrom
no_reorient  #important for SAPT in psi4, default
symmetry c1  #important for SAPT in psi4, default
}

set PROPERTIES_ORIGIN ["COM"]
properties('MP2/aug-cc-pvtz', properties = ['dipole'])
--------------------------------------------------------------------------

    Molecular point group: c1
  Charge       = 0
  Multiplicity = 1
  Basis Set: AUG-CC-PVTZ
    Blend: AUG-CC-PVTZ
  Basis Set: (AUG-CC-PVTZ AUX)
    Blend: AUG-CC-PVTZ-JKFIT

    Orbital Energies [Eh]
    ---------------------

    Doubly Occupied:

       1A    -20.510788     2A    -15.633233     3A    -15.630057
       4A    -15.548312     5A    -11.385765     6A    -11.378118
       7A    -11.329799     8A    -11.235039     9A     -1.390188
      10A     -1.324631    11A     -1.243895    12A     -1.199510
      13A     -1.058316    14A     -0.900512    15A     -0.880954
      16A     -0.785158    17A     -0.754028    18A     -0.718882
      19A     -0.683279    20A     -0.639955    21A     -0.625783
      22A     -0.620990    23A     -0.549240    24A     -0.547629
      25A     -0.461835    26A     -0.448869    27A     -0.443196
      28A     -0.412385    29A     -0.327174

  @DF-RHF Final Energy:  -392.72931775770087

   => Energetics <=

    Nuclear Repulsion Energy =            354.2610046780625339
    One-Electron Energy =               -1236.6456041146198004
    Two-Electron Energy =                 489.6552816788563405
    Total Energy =                       -392.7293177577008692
  Basis Set: (AUG-CC-PVTZ AUX)
    Blend: AUG-CC-PVTZ-RI
    Molecular point group: c1

    Geometry (in Angstrom), charge = 0, multiplicity = 1:

       Center              X                  Y                   Z               Mass
    ------------   -----------------  -----------------  -----------------  -----------------
         O           -2.169325131610    -1.164716511074     0.000146292478    15.994914619570
         N            0.090656868390    -0.905653511074    -0.000014707522    14.003074004430
         N            2.418612868390    -0.844698511074    -0.000519707522    14.003074004430
         N           -1.333201131610     1.005698488926     0.000230292478    14.003074004430
         C            1.234749868390    -0.174051511074    -0.000118707522    12.000000000000
         C            1.102740868390     1.201500488926    -0.000076707522    12.000000000000
         C           -1.233739131610    -0.372291511074     0.000166292478    12.000000000000
         C           -0.211594131610     1.704674488926     0.000063292478    12.000000000000
         H            0.114769868390    -1.921929511074    -0.000207707522     1.007825032230
         H            1.966614868390     1.854669488926    -0.000149707522     1.007825032230
         H           -0.368070731610     2.986399488926     0.000253792478     1.007825032230
         H            3.287660868390    -0.333819511074     0.000582292478     1.007825032230
         H            2.464313868390    -1.852061511074     0.001018292478     1.007825032230

  Basis Set: AUG-CC-PVTZ
    Blend: AUG-CC-PVTZ
  Basis Set: (AUG-CC-PVTZ AUX)
    Blend: AUG-CC-PVTZ-JKFIT
	 Reference Energy          =    -392.7293177577008692 [Eh]
	 Singles Energy            =      -0.0000000000000000 [Eh]
	 Same-Spin Energy          =      -0.4075315406497953 [Eh]
	 Opposite-Spin Energy      =      -1.2163732770781273 [Eh]
	 Correlation Energy        =      -1.6239048177279225 [Eh]
	 Total Energy              =    -394.3532225754287879 [Eh]

	 ================> DF-SCS-MP2 Energies <==================
	-----------------------------------------------------------
	 SCS Same-Spin Scale       =       0.3333333333333333 [-]
	 SCS Opposite-Spin Scale   =       1.2000000000000000 [-]
	 SCS Same-Spin Energy      =      -0.1358438468832651 [Eh]
	 SCS Opposite-Spin Energy  =      -1.4596479324937526 [Eh]
	 SCS Correlation Energy    =      -1.5954917793770176 [Eh]
	 SCS Total Energy          =    -394.3248095370778969 [Eh]
	-----------------------------------------------------------

  Dipole Moment: [D]
     X:     8.1148      Y:    -1.0242      Z:     0.0030     Total:     8.1792

*** Psi4 exiting successfully. Buy a developer a beer!
