                               Psi4 1.3.2 release

  ==> Input File <==

--------------------------------------------------------------------------
#psi4
#
memory 32 gb

molecule  {
0 1
  O       -2.2334690    -1.1675340     0.0001340
  N        0.0265130    -0.9084710    -0.0000270
  N        2.3544690    -0.8475160    -0.0005320
  N       -1.3973450     1.0028810     0.0002180
  C        1.1824907    -0.1563099    -0.0000970
  C        1.0385970     1.1986830    -0.0000890
  C       -1.2978830    -0.3751090     0.0001540
  C       -0.2757380     1.7018570     0.0000510
  H        0.0506260    -1.9247470    -0.0002200
  H        1.9024710     1.8518520    -0.0001620
  H       -0.4079780     2.7850560     0.0002120
  H        3.2235170    -0.3366370     0.0005700
  H        2.4001700    -1.8548790     0.0010060
units angstrom
no_reorient  #important for SAPT in psi4, default
symmetry c1  #important for SAPT in psi4, default
}

set PROPERTIES_ORIGIN ["COM"]
properties('MP2/aug-cc-pvtz', properties = ['dipole'])
--------------------------------------------------------------------------

    Molecular point group: c1
  Charge       = 0
  Multiplicity = 1
  Basis Set: AUG-CC-PVTZ
    Blend: AUG-CC-PVTZ
  Basis Set: (AUG-CC-PVTZ AUX)
    Blend: AUG-CC-PVTZ-JKFIT

    Orbital Energies [Eh]
    ---------------------

    Doubly Occupied:

       1A    -20.508666     2A    -15.628780     3A    -15.627836
       4A    -15.547672     5A    -11.382540     6A    -11.374846
       7A    -11.310970     8A    -11.232492     9A     -1.386369
      10A     -1.319809    11A     -1.242176    12A     -1.195726
      13A     -1.062586    14A     -0.910660    15A     -0.879518
      16A     -0.782576    17A     -0.750753    18A     -0.721148
      19A     -0.691423    20A     -0.637643    21A     -0.635522
      22A     -0.621015    23A     -0.570016    24A     -0.547625
      25A     -0.460864    26A     -0.447738    27A     -0.439155
      28A     -0.415790    29A     -0.328784

  @DF-RHF Final Energy:  -392.75020996770024

   => Energetics <=

    Nuclear Repulsion Energy =            355.0869056708576181
    One-Electron Energy =               -1238.3528392134983278
    Two-Electron Energy =                 490.5157235749404663
    Total Energy =                       -392.7502099677002434
  Basis Set: (AUG-CC-PVTZ AUX)
    Blend: AUG-CC-PVTZ-RI
    Molecular point group: c1

    Geometry (in Angstrom), charge = 0, multiplicity = 1:

       Center              X                  Y                   Z               Mass
    ------------   -----------------  -----------------  -----------------  -----------------
         O           -2.170829434072    -1.165136435047     0.000142885975    15.994914619570
         N            0.089152565928    -0.906073435047    -0.000018114025    14.003074004430
         N            2.417108565928    -0.845118435047    -0.000523114025    14.003074004430
         N           -1.334705434072     1.005278564953     0.000226885975    14.003074004430
         C            1.245130265928    -0.153912335047    -0.000088114025    12.000000000000
         C            1.101236565928     1.201080564953    -0.000080114025    12.000000000000
         C           -1.235243434072    -0.372711435047     0.000162885975    12.000000000000
         C           -0.213098434072     1.704254564953     0.000059885975    12.000000000000
         H            0.113265565928    -1.922349435047    -0.000211114025     1.007825032230
         H            1.965110565928     1.854249564953    -0.000153114025     1.007825032230
         H           -0.345338434072     2.787453564953     0.000220885975     1.007825032230
         H            3.286156565928    -0.334239435047     0.000578885975     1.007825032230
         H            2.462809565928    -1.852481435047     0.001014885975     1.007825032230

  Basis Set: AUG-CC-PVTZ
    Blend: AUG-CC-PVTZ
  Basis Set: (AUG-CC-PVTZ AUX)
    Blend: AUG-CC-PVTZ-JKFIT
	 Reference Energy          =    -392.7502099677002434 [Eh]
	 Singles Energy            =      -0.0000000000000000 [Eh]
	 Same-Spin Energy          =      -0.4067993392506621 [Eh]
	 Opposite-Spin Energy      =      -1.2143387313377723 [Eh]
	 Correlation Energy        =      -1.6211380705884344 [Eh]
	 Total Energy              =    -394.3713480382886587 [Eh]

	 ================> DF-SCS-MP2 Energies <==================
	-----------------------------------------------------------
	 SCS Same-Spin Scale       =       0.3333333333333333 [-]
	 SCS Opposite-Spin Scale   =       1.2000000000000000 [-]
	 SCS Same-Spin Energy      =      -0.1355997797502207 [Eh]
	 SCS Opposite-Spin Energy  =      -1.4572064776053266 [Eh]
	 SCS Correlation Energy    =      -1.5928062573555473 [Eh]
	 SCS Total Energy          =    -394.3430162250558055 [Eh]
	-----------------------------------------------------------

  Dipole Moment: [D]
     X:     8.1154      Y:    -0.7535      Z:     0.0031     Total:     8.1504

*** Psi4 exiting successfully. Buy a developer a beer!
