                               Psi4 1.3.2 release

  ==> Input File <==

--------------------------------------------------------------------------
#psi4
#
memory 32 gb

molecule  {
0 1
  O       -2.2334690    -1.1675340     0.0001340
  N        0.0356197    -0.8852759    -0.0000272
  N        2.3544690    -0.8475160    -0.0005320
  N       -1.3973450     1.0028810     0.0002180
  C        1.1706060    -0.1768690    -0.0001310
  C        1.0385970     1.1986830    -0.0000890
  C       -1.2978830    -0.3751090     0.0001540
  C       -0.2757380     1.7018570     0.0000510
  H        0.0506260    -1.9247470    -0.0002200
  H        1.9024710     1.8518520    -0.0001620
  H       -0.4079780     2.7850560     0.0002120
  H        3.2235170    -0.3366370     0.0005700
  H        2.4001700    -1.8548790     0.0010060
units angstrom
no_reorient  #important for SAPT in psi4, default
symmetry c1  #important for SAPT in psi4, default
}

set PROPERTIES_ORIGIN ["COM"]
properties('MP2/aug-cc-pvtz', properties = ['dipole'])
--------------------------------------------------------------------------

    Molecular point group: c1
  Charge       = 0
  Multiplicity = 1
  Basis Set: AUG-CC-PVTZ
    Blend: AUG-CC-PVTZ
  Basis Set: (AUG-CC-PVTZ AUX)
    Blend: AUG-CC-PVTZ-JKFIT

    Orbital Energies [Eh]
    ---------------------

    Doubly Occupied:

       1A    -20.511053     2A    -15.634553     3A    -15.628593
       4A    -15.544665     5A    -11.382280     6A    -11.376708
       7A    -11.307680     8A    -11.231289     9A     -1.390405
      10A     -1.326813    11A     -1.243759    12A     -1.198801
      13A     -1.057121    14A     -0.907985    15A     -0.887152
      16A     -0.785098    17A     -0.752601    18A     -0.717500
      19A     -0.691516    20A     -0.641750    21A     -0.635904
      22A     -0.619926    23A     -0.569050    24A     -0.548199
      25A     -0.459457    26A     -0.448518    27A     -0.443931
      28A     -0.414737    29A     -0.324810

  @DF-RHF Final Energy:  -392.74971480723480

   => Energetics <=

    Nuclear Repulsion Energy =            355.5882470564332607
    One-Electron Energy =               -1239.3122206217844905
    Two-Electron Energy =                 490.9742587581164344
    Total Energy =                       -392.7497148072347954
  Basis Set: (AUG-CC-PVTZ AUX)
    Blend: AUG-CC-PVTZ-RI
    Molecular point group: c1

    Geometry (in Angstrom), charge = 0, multiplicity = 1:

       Center              X                  Y                   Z               Mass
    ------------   -----------------  -----------------  -----------------  -----------------
         O           -2.170693499611    -1.165839706012     0.000146585440    15.994914619570
         N            0.098395200389    -0.883581606012    -0.000014614560    14.003074004430
         N            2.417244500389    -0.845821706012    -0.000519414560    14.003074004430
         N           -1.334569499611     1.004575293988     0.000230585440    14.003074004430
         C            1.233381500389    -0.175174706012    -0.000118414560    12.000000000000
         C            1.101372500389     1.200377293988    -0.000076414560    12.000000000000
         C           -1.235107499611    -0.373414706012     0.000166585440    12.000000000000
         C           -0.212962499611     1.703551293988     0.000063585440    12.000000000000
         H            0.113401500389    -1.923052706012    -0.000207414560     1.007825032230
         H            1.965246500389     1.853546293988    -0.000149414560     1.007825032230
         H           -0.345202499611     2.786750293988     0.000224585440     1.007825032230
         H            3.286292500389    -0.334942706012     0.000582585440     1.007825032230
         H            2.462945500389    -1.853184706012     0.001018585440     1.007825032230

  Basis Set: AUG-CC-PVTZ
    Blend: AUG-CC-PVTZ
  Basis Set: (AUG-CC-PVTZ AUX)
    Blend: AUG-CC-PVTZ-JKFIT
	 Reference Energy          =    -392.7497148072347954 [Eh]
	 Singles Energy            =      -0.0000000000000000 [Eh]
	 Same-Spin Energy          =      -0.4072678030753668 [Eh]
	 Opposite-Spin Energy      =      -1.2145304778710790 [Eh]
	 Correlation Energy        =      -1.6217982809464457 [Eh]
	 Total Energy              =    -394.3715130881812456 [Eh]

	 ================> DF-SCS-MP2 Energies <==================
	-----------------------------------------------------------
	 SCS Same-Spin Scale       =       0.3333333333333333 [-]
	 SCS Opposite-Spin Scale   =       1.2000000000000000 [-]
	 SCS Same-Spin Energy      =      -0.1357559343584556 [Eh]
	 SCS Opposite-Spin Energy  =      -1.4574365734452948 [Eh]
	 SCS Correlation Energy    =      -1.5931925078037503 [Eh]
	 SCS Total Energy          =    -394.3429073150385307 [Eh]
	-----------------------------------------------------------

  Dipole Moment: [D]
     X:     8.1082      Y:    -0.9343      Z:     0.0030     Total:     8.1618

*** Psi4 exiting successfully. Buy a developer a beer!
