                               Psi4 1.3.2 release

  ==> Input File <==

--------------------------------------------------------------------------
#psi4
#
memory 32 gb

molecule  {
0 1
  O       -2.2334690    -1.1675340     0.0001340
  N        0.0265130    -0.9084710    -0.0000270
  N        2.3544690    -0.8475160    -0.0005320
  N       -1.3722678     0.9641633     0.0002077
  C        1.1706060    -0.1768690    -0.0001310
  C        1.0385970     1.1986830    -0.0000890
  C       -1.2978830    -0.3751090     0.0001540
  C       -0.2757380     1.7018570     0.0000510
  H        0.0506260    -1.9247470    -0.0002200
  H        1.9024710     1.8518520    -0.0001620
  H       -0.4079780     2.7850560     0.0002120
  H        3.2235170    -0.3366370     0.0005700
  H        2.4001700    -1.8548790     0.0010060
units angstrom
no_reorient  #important for SAPT in psi4, default
symmetry c1  #important for SAPT in psi4, default
}

set PROPERTIES_ORIGIN ["COM"]
properties('MP2/aug-cc-pvtz', properties = ['dipole'])
--------------------------------------------------------------------------

    Molecular point group: c1
  Charge       = 0
  Multiplicity = 1
  Basis Set: AUG-CC-PVTZ
    Blend: AUG-CC-PVTZ
  Basis Set: (AUG-CC-PVTZ AUX)
    Blend: AUG-CC-PVTZ-JKFIT

    Orbital Energies [Eh]
    ---------------------

    Doubly Occupied:

       1A    -20.503837     2A    -15.629800     3A    -15.629053
       4A    -15.539367     5A    -11.384433     6A    -11.370254
       7A    -11.312483     8A    -11.233482     9A     -1.388370
      10A     -1.322101    11A     -1.246177    12A     -1.199824
      13A     -1.060445    14A     -0.915289    15A     -0.883198
      16A     -0.783729    17A     -0.756292    18A     -0.720921
      19A     -0.694997    20A     -0.639288    21A     -0.637303
      22A     -0.618851    23A     -0.572985    24A     -0.549311
      25A     -0.458862    26A     -0.441038    27A     -0.440765
      28A     -0.413305    29A     -0.326343

  @DF-RHF Final Energy:  -392.75126226021308

   => Energetics <=

    Nuclear Repulsion Energy =            356.3015298224659659
    One-Electron Energy =               -1240.7613775886431995
    Two-Electron Energy =                 491.7085855059642086
    Total Energy =                       -392.7512622602130818
  Basis Set: (AUG-CC-PVTZ AUX)
    Blend: AUG-CC-PVTZ-RI
    Molecular point group: c1

    Geometry (in Angstrom), charge = 0, multiplicity = 1:

       Center              X                  Y                   Z               Mass
    ------------   -----------------  -----------------  -----------------  -----------------
         O           -2.172707454261    -1.158032212732     0.000147859097    15.994914619570
         N            0.087274545739    -0.898969212732    -0.000013140903    14.003074004430
         N            2.415230545739    -0.838014212732    -0.000518140903    14.003074004430
         N           -1.311506254261     0.973665087268     0.000221559097    14.003074004430
         C            1.231367545739    -0.167367212732    -0.000117140903    12.000000000000
         C            1.099358545739     1.208184787268    -0.000075140903    12.000000000000
         C           -1.237121454261    -0.365607212732     0.000167859097    12.000000000000
         C           -0.214976454261     1.711358787268     0.000064859097    12.000000000000
         H            0.111387545739    -1.915245212732    -0.000206140903     1.007825032230
         H            1.963232545739     1.861353787268    -0.000148140903     1.007825032230
         H           -0.347216454261     2.794557787268     0.000225859097     1.007825032230
         H            3.284278545739    -0.327135212732     0.000583859097     1.007825032230
         H            2.460931545739    -1.845377212732     0.001019859097     1.007825032230

  Basis Set: AUG-CC-PVTZ
    Blend: AUG-CC-PVTZ
  Basis Set: (AUG-CC-PVTZ AUX)
    Blend: AUG-CC-PVTZ-JKFIT
	 Reference Energy          =    -392.7512622602130818 [Eh]
	 Singles Energy            =      -0.0000000000000000 [Eh]
	 Same-Spin Energy          =      -0.4070356119233793 [Eh]
	 Opposite-Spin Energy      =      -1.2133478545939989 [Eh]
	 Correlation Energy        =      -1.6203834665173782 [Eh]
	 Total Energy              =    -394.3716457267304349 [Eh]

	 ================> DF-SCS-MP2 Energies <==================
	-----------------------------------------------------------
	 SCS Same-Spin Scale       =       0.3333333333333333 [-]
	 SCS Opposite-Spin Scale   =       1.2000000000000000 [-]
	 SCS Same-Spin Energy      =      -0.1356785373077931 [Eh]
	 SCS Opposite-Spin Energy  =      -1.4560174255127987 [Eh]
	 SCS Correlation Energy    =      -1.5916959628205918 [Eh]
	 SCS Total Energy          =    -394.3429582230336905 [Eh]
	-----------------------------------------------------------

  Dipole Moment: [D]
     X:     8.2132      Y:    -0.6971      Z:     0.0030     Total:     8.2427

*** Psi4 exiting successfully. Buy a developer a beer!
