                               Psi4 1.3.2 release

  ==> Input File <==

--------------------------------------------------------------------------
#psi4
#
memory 32 gb

molecule  {
0 1
  O       -2.2334690    -1.1675340     0.0001340
  N        0.0265130    -0.9084710    -0.0000270
  N        2.3544690    -0.8475160    -0.0005320
  N       -1.3973450     1.0028810     0.0002180
  C        1.1706060    -0.1768690    -0.0001310
  C        1.0385970     1.1986830    -0.0000890
  C       -1.2834846    -0.5745900     0.0001447
  C       -0.2757380     1.7018570     0.0000510
  H        0.0506260    -1.9247470    -0.0002200
  H        1.9024710     1.8518520    -0.0001620
  H       -0.4079780     2.7850560     0.0002120
  H        3.2235170    -0.3366370     0.0005700
  H        2.4001700    -1.8548790     0.0010060
units angstrom
no_reorient  #important for SAPT in psi4, default
symmetry c1  #important for SAPT in psi4, default
}

set PROPERTIES_ORIGIN ["COM"]
properties('MP2/aug-cc-pvtz', properties = ['dipole'])
--------------------------------------------------------------------------

    Molecular point group: c1
  Charge       = 0
  Multiplicity = 1
  Basis Set: AUG-CC-PVTZ
    Blend: AUG-CC-PVTZ
  Basis Set: (AUG-CC-PVTZ AUX)
    Blend: AUG-CC-PVTZ-JKFIT

    Orbital Energies [Eh]
    ---------------------

    Doubly Occupied:

       1A    -20.541272     2A    -15.636790     3A    -15.623006
       4A    -15.535992     5A    -11.377982     6A    -11.377337
       7A    -11.282564     8A    -11.221825     9A     -1.464574
      10A     -1.342955    11A     -1.242957    12A     -1.168894
      13A     -1.044029    14A     -0.910914    15A     -0.870765
      16A     -0.785773    17A     -0.736422    18A     -0.715437
      19A     -0.689938    20A     -0.659920    21A     -0.655411
      22A     -0.619307    23A     -0.570156    24A     -0.568697
      25A     -0.471519    26A     -0.463510    27A     -0.445901
      28A     -0.378350    29A     -0.311368

  @DF-RHF Final Energy:  -392.70858215716993

   => Energetics <=

    Nuclear Repulsion Energy =            355.2761291414718698
    One-Electron Energy =               -1238.5422935670931111
    Two-Electron Energy =                 490.5575822684513128
    Total Energy =                       -392.7085821571699285
  Basis Set: (AUG-CC-PVTZ AUX)
    Blend: AUG-CC-PVTZ-RI
    Molecular point group: c1

    Geometry (in Angstrom), charge = 0, multiplicity = 1:

       Center              X                  Y                   Z               Mass
    ------------   -----------------  -----------------  -----------------  -----------------
         O           -2.171101079551    -1.141357583838     0.000147565233    15.994914619570
         N            0.088880920449    -0.882294583838    -0.000013434767    14.003074004430
         N            2.416836920449    -0.821339583838    -0.000518434767    14.003074004430
         N           -1.334977079551     1.029057416162     0.000231565233    14.003074004430
         C            1.232973920449    -0.150692583838    -0.000117434767    12.000000000000
         C            1.100964920449     1.224859416162    -0.000075434767    12.000000000000
         C           -1.221116679551    -0.548413583838     0.000158265233    12.000000000000
         C           -0.213370079551     1.728033416162     0.000064565233    12.000000000000
         H            0.112993920449    -1.898570583838    -0.000206434767     1.007825032230
         H            1.964838920449     1.878028416162    -0.000148434767     1.007825032230
         H           -0.345610079551     2.811232416162     0.000225565233     1.007825032230
         H            3.285884920449    -0.310460583838     0.000583565233     1.007825032230
         H            2.462537920449    -1.828702583838     0.001019565233     1.007825032230

  Basis Set: AUG-CC-PVTZ
    Blend: AUG-CC-PVTZ
  Basis Set: (AUG-CC-PVTZ AUX)
    Blend: AUG-CC-PVTZ-JKFIT
	 Reference Energy          =    -392.7085821571699285 [Eh]
	 Singles Energy            =      -0.0000000000000000 [Eh]
	 Same-Spin Energy          =      -0.4063900360174901 [Eh]
	 Opposite-Spin Energy      =      -1.2161678295362723 [Eh]
	 Correlation Energy        =      -1.6225578655537625 [Eh]
	 Total Energy              =    -394.3311400227236732 [Eh]

	 ================> DF-SCS-MP2 Energies <==================
	-----------------------------------------------------------
	 SCS Same-Spin Scale       =       0.3333333333333333 [-]
	 SCS Opposite-Spin Scale   =       1.2000000000000000 [-]
	 SCS Same-Spin Energy      =      -0.1354633453391634 [Eh]
	 SCS Opposite-Spin Energy  =      -1.4594013954435268 [Eh]
	 SCS Correlation Energy    =      -1.5948647407826901 [Eh]
	 SCS Total Energy          =    -394.3034468979525968 [Eh]
	-----------------------------------------------------------

  Dipole Moment: [D]
     X:     7.2717      Y:    -1.9682      Z:     0.0031     Total:     7.5334

*** Psi4 exiting successfully. Buy a developer a beer!
