                               Psi4 1.3.2 release

  ==> Input File <==

--------------------------------------------------------------------------
#psi4
#
memory 32 gb

molecule  {
0 1
  O       -2.2334690    -1.1675340     0.0001340
  N        0.0265130    -0.9084710    -0.0000270
  N        2.3544690    -0.8475160    -0.0005320
  N       -1.3973450     1.0028810     0.0002180
  C        1.1706060    -0.1768690    -0.0001310
  C        1.0202358     1.1531199    -0.0000945
  C       -1.2978830    -0.3751090     0.0001540
  C       -0.2757380     1.7018570     0.0000510
  H        0.0506260    -1.9247470    -0.0002200
  H        1.9024710     1.8518520    -0.0001620
  H       -0.4079780     2.7850560     0.0002120
  H        3.2235170    -0.3366370     0.0005700
  H        2.4001700    -1.8548790     0.0010060
units angstrom
no_reorient  #important for SAPT in psi4, default
symmetry c1  #important for SAPT in psi4, default
}

set PROPERTIES_ORIGIN ["COM"]
properties('MP2/aug-cc-pvtz', properties = ['dipole'])
--------------------------------------------------------------------------

    Molecular point group: c1
  Charge       = 0
  Multiplicity = 1
  Basis Set: AUG-CC-PVTZ
    Blend: AUG-CC-PVTZ
  Basis Set: (AUG-CC-PVTZ AUX)
    Blend: AUG-CC-PVTZ-JKFIT

    Orbital Energies [Eh]
    ---------------------

    Doubly Occupied:

       1A    -20.509378     2A    -15.628530     3A    -15.625273
       4A    -15.548409     5A    -11.375955     6A    -11.375826
       7A    -11.311544     8A    -11.231683     9A     -1.388754
      10A     -1.322991    11A     -1.242976    12A     -1.198612
      13A     -1.063068    14A     -0.912660    15A     -0.881416
      16A     -0.783417    17A     -0.749970    18A     -0.720135
      19A     -0.692980    20A     -0.639620    21A     -0.639150
      22A     -0.614091    23A     -0.568497    24A     -0.547719
      25A     -0.461221    26A     -0.447731    27A     -0.440865
      28A     -0.416704    29A     -0.328803

  @DF-RHF Final Energy:  -392.74797345901413

   => Energetics <=

    Nuclear Repulsion Energy =            356.0986811173006004
    One-Electron Energy =               -1240.3573547206049170
    Two-Electron Energy =                 491.5107001442901264
    Total Energy =                       -392.7479734590141334
  Basis Set: (AUG-CC-PVTZ AUX)
    Blend: AUG-CC-PVTZ-RI
    Molecular point group: c1

    Geometry (in Angstrom), charge = 0, multiplicity = 1:

       Center              X                  Y                   Z               Mass
    ------------   -----------------  -----------------  -----------------  -----------------
         O           -2.167560880951    -1.157990874054     0.000147154582    15.994914619570
         N            0.092421119049    -0.898927874054    -0.000013845418    14.003074004430
         N            2.420377119049    -0.837972874054    -0.000518845418    14.003074004430
         N           -1.331436880951     1.012424125946     0.000231154582    14.003074004430
         C            1.236514119049    -0.167325874054    -0.000117845418    12.000000000000
         C            1.086143919049     1.162663025946    -0.000081345418    12.000000000000
         C           -1.231974880951    -0.365565874054     0.000167154582    12.000000000000
         C           -0.209829880951     1.711400125946     0.000064154582    12.000000000000
         H            0.116534119049    -1.915203874054    -0.000206845418     1.007825032230
         H            1.968379119049     1.861395125946    -0.000148845418     1.007825032230
         H           -0.342069880951     2.794599125946     0.000225154582     1.007825032230
         H            3.289425119049    -0.327093874054     0.000583154582     1.007825032230
         H            2.466078119049    -1.845335874054     0.001019154582     1.007825032230

  Basis Set: AUG-CC-PVTZ
    Blend: AUG-CC-PVTZ
  Basis Set: (AUG-CC-PVTZ AUX)
    Blend: AUG-CC-PVTZ-JKFIT
	 Reference Energy          =    -392.7479734590141334 [Eh]
	 Singles Energy            =      -0.0000000000000000 [Eh]
	 Same-Spin Energy          =      -0.4070128025329962 [Eh]
	 Opposite-Spin Energy      =      -1.2143823930472695 [Eh]
	 Correlation Energy        =      -1.6213951955802657 [Eh]
	 Total Energy              =    -394.3693686545943820 [Eh]

	 ================> DF-SCS-MP2 Energies <==================
	-----------------------------------------------------------
	 SCS Same-Spin Scale       =       0.3333333333333333 [-]
	 SCS Opposite-Spin Scale   =       1.2000000000000000 [-]
	 SCS Same-Spin Energy      =      -0.1356709341776654 [Eh]
	 SCS Opposite-Spin Energy  =      -1.4572588716567234 [Eh]
	 SCS Correlation Energy    =      -1.5929298058343888 [Eh]
	 SCS Total Energy          =    -394.3409032648485208 [Eh]
	-----------------------------------------------------------

  Dipole Moment: [D]
     X:     8.0082      Y:    -0.7229      Z:     0.0031     Total:     8.0407

*** Psi4 exiting successfully. Buy a developer a beer!
