                               Psi4 1.4a3.dev225

  ==> Input File <==

--------------------------------------------------------------------------
#psi4
#
memory 32 gb

molecule  {
0 1
  O        2.2358750    -1.1647400    -0.0019990
  N       -0.0266920    -0.9090020    -0.0014130
  N       -2.3606070    -0.8668920    -0.0783920
  N        1.3942980     1.0030250     0.0093070
  C       -1.1689180    -0.1740660     0.0003700
  C       -1.0400980     1.1965590     0.0002140
  C        1.2955060    -0.3793770     0.0033320
  C        0.2772380     1.7038820     0.0017870
  H       -0.0608440    -1.9231390    -0.0684580
  H       -1.9045160     1.8491770     0.0118680
  H        0.4082096     2.7669941     0.0039879
  H       -3.1798030    -0.3063160     0.1264620
  H       -2.3838550    -1.7605480     0.4013470
units angstrom
no_reorient  #important for SAPT in psi4, default
symmetry c1  #important for SAPT in psi4, default
}

set PROPERTIES_ORIGIN ["COM"]
properties('MP2/aug-cc-pvtz', properties = ['dipole'])
--------------------------------------------------------------------------

    Molecular point group: c1
  Charge       = 0
  Multiplicity = 1
  Basis Set: AUG-CC-PVTZ
    Blend: AUG-CC-PVTZ
  Basis Set: (AUG-CC-PVTZ AUX)
    Blend: AUG-CC-PVTZ-JKFIT

    Orbital Energies [Eh]
    ---------------------

    Doubly Occupied:

       1A    -20.512556     2A    -15.634122     3A    -15.626820
       4A    -15.551871     5A    -11.381273     6A    -11.378700
       7A    -11.310643     8A    -11.237397     9A     -1.391496
      10A     -1.323002    11A     -1.244172    12A     -1.201610
      13A     -1.060115    14A     -0.911153    15A     -0.884081
      16A     -0.775719    17A     -0.750191    18A     -0.716918
      19A     -0.688869    20A     -0.647385    21A     -0.630516
      22A     -0.623597    23A     -0.575436    24A     -0.547692
      25A     -0.463824    26A     -0.451750    27A     -0.448640
      28A     -0.418903    29A     -0.331594

  @DF-RHF Final Energy:  -392.75115430614420

   => Energetics <=

    Nuclear Repulsion Energy =            355.0804682647457753
    One-Electron Energy =               -1238.2231581141779770
    Two-Electron Energy =                 490.3915355432879437
    Total Energy =                       -392.7511543061442012
  Basis Set: (AUG-CC-PVTZ AUX)
    Blend: AUG-CC-PVTZ-RI
    Molecular point group: c1

    Geometry (in Angstrom), charge = 0, multiplicity = 1:

       Center              X                  Y                   Z               Mass
    ------------   -----------------  -----------------  -----------------  -----------------
         O            2.172424321710    -1.158819651835     0.002249804732    15.994914619570
         N           -0.090142678290    -0.903081651835     0.002835804732    14.003074004430
         N           -2.424057678290    -0.860971651835    -0.074143195268    14.003074004430
         N            1.330847321710     1.008945348165     0.013555804732    14.003074004430
         C           -1.232368678290    -0.168145651835     0.004618804732    12.000000000000
         C           -1.103548678290     1.202479348165     0.004462804732    12.000000000000
         C            1.232055321710    -0.373456651835     0.007580804732    12.000000000000
         C            0.213787321710     1.709802348165     0.006035804732    12.000000000000
         H           -0.124294678290    -1.917218651835    -0.064209195268     1.007825032230
         H           -1.967966678290     1.855097348165     0.016116804732     1.007825032230
         H            0.344758921710     2.772914448165     0.008236704732     1.007825032230
         H           -3.243253678290    -0.300395651835     0.130710804732     1.007825032230
         H           -2.447305678290    -1.754627651835     0.405595804732     1.007825032230

  Basis Set: AUG-CC-PVTZ
    Blend: AUG-CC-PVTZ
  Basis Set: (AUG-CC-PVTZ AUX)
    Blend: AUG-CC-PVTZ-JKFIT
	 Reference Energy          =    -392.7511543061442012 [Eh]
	 Singles Energy            =      -0.0000000000000000 [Eh]
	 Same-Spin Energy          =      -0.4067598045196491 [Eh]
	 Opposite-Spin Energy      =      -1.2148345561144156 [Eh]
	 Correlation Energy        =      -1.6215943606340648 [Eh]
	 Total Energy              =    -394.3727486667782500 [Eh]

	 ================> DF-SCS-MP2 Energies <==================
	-----------------------------------------------------------
	 SCS Same-Spin Scale       =       0.3333333333333333 [-]
	 SCS Opposite-Spin Scale   =       1.2000000000000000 [-]
	 SCS Same-Spin Energy      =      -0.1355866015065497 [Eh]
	 SCS Opposite-Spin Energy  =      -1.4578014673372988 [Eh]
	 SCS Correlation Energy    =      -1.5933880688438484 [Eh]
	 SCS Total Energy          =    -394.3445423749880661 [Eh]
	-----------------------------------------------------------

  Dipole Moment: [D]
     X:    -7.6018      Y:    -0.3961      Z:     0.8617     Total:     7.6607

*** Psi4 exiting successfully. Buy a developer a beer!
