                               Psi4 1.3.2 release

  ==> Input File <==

--------------------------------------------------------------------------
#psi4
#
memory 32 gb

molecule  {
0 1
  O       -2.2334690    -1.1675340     0.0001340
  N        0.0265130    -0.9084710    -0.0000270
  N        2.3544690    -0.8475160    -0.0005320
  N       -1.3973450     1.0028810     0.0002180
  C        1.1706060    -0.1768690    -0.0001310
  C        1.0385970     1.1986830    -0.0000890
  C       -1.2051226    -0.4124655     0.0001413
  C       -0.2757380     1.7018570     0.0000510
  H        0.0506260    -1.9247470    -0.0002200
  H        1.9024710     1.8518520    -0.0001620
  H       -0.4079780     2.7850560     0.0002120
  H        3.2235170    -0.3366370     0.0005700
  H        2.4001700    -1.8548790     0.0010060
units angstrom
no_reorient  #important for SAPT in psi4, default
symmetry c1  #important for SAPT in psi4, default
}

set PROPERTIES_ORIGIN ["COM"]
properties('MP2/aug-cc-pvtz', properties = ['dipole'])
--------------------------------------------------------------------------

    Molecular point group: c1
  Charge       = 0
  Multiplicity = 1
  Basis Set: AUG-CC-PVTZ
    Blend: AUG-CC-PVTZ
  Basis Set: (AUG-CC-PVTZ AUX)
    Blend: AUG-CC-PVTZ-JKFIT

    Orbital Energies [Eh]
    ---------------------

    Doubly Occupied:

       1A    -20.497104     2A    -15.646575     3A    -15.633614
       4A    -15.553456     5A    -11.389365     6A    -11.372824
       7A    -11.305348     8A    -11.237762     9A     -1.391388
      10A     -1.311467    11A     -1.243450    12A     -1.205818
      13A     -1.060491    14A     -0.918186    15A     -0.898815
      16A     -0.795406    17A     -0.753028    18A     -0.735850
      19A     -0.691005    20A     -0.652925    21A     -0.639837
      22A     -0.610704    23A     -0.554101    24A     -0.542342
      25A     -0.464961    26A     -0.438882    27A     -0.434057
      28A     -0.415023    29A     -0.325338

  @DF-RHF Final Energy:  -392.73672353799208

   => Energetics <=

    Nuclear Repulsion Energy =            355.7462081763013089
    One-Electron Energy =               -1239.5276215367598525
    Two-Electron Energy =                 491.0446898224665233
    Total Energy =                       -392.7367235379920771
  Basis Set: (AUG-CC-PVTZ AUX)
    Blend: AUG-CC-PVTZ-RI
    Molecular point group: c1

    Geometry (in Angstrom), charge = 0, multiplicity = 1:

       Center              X                  Y                   Z               Mass
    ------------   -----------------  -----------------  -----------------  -----------------
         O           -2.179569346646    -1.158877728406     0.000147932657    15.994914619570
         N            0.080412653354    -0.899814728406    -0.000013067343    14.003074004430
         N            2.408368653354    -0.838859728406    -0.000518067343    14.003074004430
         N           -1.343445346646     1.011537271594     0.000231932657    14.003074004430
         C            1.224505653354    -0.168212728406    -0.000117067343    12.000000000000
         C            1.092496653354     1.207339271594    -0.000075067343    12.000000000000
         C           -1.151222946646    -0.403809228406     0.000155232657    12.000000000000
         C           -0.221838346646     1.710513271594     0.000064932657    12.000000000000
         H            0.104525653354    -1.916090728406    -0.000206067343     1.007825032230
         H            1.956370653354     1.860508271594    -0.000148067343     1.007825032230
         H           -0.354078346646     2.793712271594     0.000225932657     1.007825032230
         H            3.277416653354    -0.327980728406     0.000583932657     1.007825032230
         H            2.454069653354    -1.846222728406     0.001019932657     1.007825032230

  Basis Set: AUG-CC-PVTZ
    Blend: AUG-CC-PVTZ
  Basis Set: (AUG-CC-PVTZ AUX)
    Blend: AUG-CC-PVTZ-JKFIT
	 Reference Energy          =    -392.7367235379920771 [Eh]
	 Singles Energy            =      -0.0000000000000000 [Eh]
	 Same-Spin Energy          =      -0.4079580370583018 [Eh]
	 Opposite-Spin Energy      =      -1.2169464994843122 [Eh]
	 Correlation Energy        =      -1.6249045365426140 [Eh]
	 Total Energy              =    -394.3616280745346785 [Eh]

	 ================> DF-SCS-MP2 Energies <==================
	-----------------------------------------------------------
	 SCS Same-Spin Scale       =       0.3333333333333333 [-]
	 SCS Opposite-Spin Scale   =       1.2000000000000000 [-]
	 SCS Same-Spin Energy      =      -0.1359860123527672 [Eh]
	 SCS Opposite-Spin Energy  =      -1.4603357993811745 [Eh]
	 SCS Correlation Energy    =      -1.5963218117339417 [Eh]
	 SCS Total Energy          =    -394.3330453497260351 [Eh]
	-----------------------------------------------------------

  Dipole Moment: [D]
     X:     8.6975      Y:    -0.7677      Z:     0.0030     Total:     8.7314

*** Psi4 exiting successfully. Buy a developer a beer!
