                               Psi4 1.3.2 release

  ==> Input File <==

--------------------------------------------------------------------------
#psi4
#
memory 32 gb

molecule  {
0 1
  O       -2.2864667    -1.1003405     0.0001379
  N        0.0265130    -0.9084710    -0.0000270
  N        2.3544690    -0.8475160    -0.0005320
  N       -1.3973450     1.0028810     0.0002180
  C        1.1706060    -0.1768690    -0.0001310
  C        1.0385970     1.1986830    -0.0000890
  C       -1.2978830    -0.3751090     0.0001540
  C       -0.2757380     1.7018570     0.0000510
  H        0.0506260    -1.9247470    -0.0002200
  H        1.9024710     1.8518520    -0.0001620
  H       -0.4079780     2.7850560     0.0002120
  H        3.2235170    -0.3366370     0.0005700
  H        2.4001700    -1.8548790     0.0010060
units angstrom
no_reorient  #important for SAPT in psi4, default
symmetry c1  #important for SAPT in psi4, default
}

set PROPERTIES_ORIGIN ["COM"]
properties('MP2/aug-cc-pvtz', properties = ['dipole'])
--------------------------------------------------------------------------

    Molecular point group: c1
  Charge       = 0
  Multiplicity = 1
  Basis Set: AUG-CC-PVTZ
    Blend: AUG-CC-PVTZ
  Basis Set: (AUG-CC-PVTZ AUX)
    Blend: AUG-CC-PVTZ-JKFIT

    Orbital Energies [Eh]
    ---------------------

    Doubly Occupied:

       1A    -20.509178     2A    -15.635854     3A    -15.629438
       4A    -15.543270     5A    -11.385085     6A    -11.375000
       7A    -11.306469     8A    -11.232369     9A     -1.387476
      10A     -1.325098    11A     -1.242450    12A     -1.199004
      13A     -1.057341    14A     -0.908985    15A     -0.884673
      16A     -0.785350    17A     -0.753063    18A     -0.722929
      19A     -0.690969    20A     -0.639315    21A     -0.635697
      22A     -0.620540    23A     -0.568480    24A     -0.547777
      25A     -0.458464    26A     -0.444155    27A     -0.443514
      28A     -0.416191    29A     -0.324453

  @DF-RHF Final Energy:  -392.74951725644718

   => Energetics <=

    Nuclear Repulsion Energy =            355.0211573884385530
    One-Electron Energy =               -1238.1961810749019151
    Two-Electron Energy =                 490.4255064300162417
    Total Energy =                       -392.7495172564471773
  Basis Set: (AUG-CC-PVTZ AUX)
    Blend: AUG-CC-PVTZ-RI
    Molecular point group: c1

    Geometry (in Angstrom), charge = 0, multiplicity = 1:

       Center              X                  Y                   Z               Mass
    ------------   -----------------  -----------------  -----------------  -----------------
         O           -2.214908897427    -1.105399894453     0.000149898454    15.994914619570
         N            0.098070802573    -0.913530394453    -0.000015001546    14.003074004430
         N            2.426026802573    -0.852575394453    -0.000520001546    14.003074004430
         N           -1.325787197427     0.997821605547     0.000229998454    14.003074004430
         C            1.242163802573    -0.181928394453    -0.000119001546    12.000000000000
         C            1.110154802573     1.193623605547    -0.000077001546    12.000000000000
         C           -1.226325197427    -0.380168394453     0.000165998454    12.000000000000
         C           -0.204180197427     1.696797605547     0.000062998454    12.000000000000
         H            0.122183802573    -1.929806394453    -0.000208001546     1.007825032230
         H            1.974028802573     1.846792605547    -0.000150001546     1.007825032230
         H           -0.336420197427     2.779996605547     0.000223998454     1.007825032230
         H            3.295074802573    -0.341696394453     0.000581998454     1.007825032230
         H            2.471727802573    -1.859938394453     0.001017998454     1.007825032230

  Basis Set: AUG-CC-PVTZ
    Blend: AUG-CC-PVTZ
  Basis Set: (AUG-CC-PVTZ AUX)
    Blend: AUG-CC-PVTZ-JKFIT
	 Reference Energy          =    -392.7495172564471773 [Eh]
	 Singles Energy            =      -0.0000000000000000 [Eh]
	 Same-Spin Energy          =      -0.4069601312463827 [Eh]
	 Opposite-Spin Energy      =      -1.2145163326274937 [Eh]
	 Correlation Energy        =      -1.6214764638738763 [Eh]
	 Total Energy              =    -394.3709937203210529 [Eh]

	 ================> DF-SCS-MP2 Energies <==================
	-----------------------------------------------------------
	 SCS Same-Spin Scale       =       0.3333333333333333 [-]
	 SCS Opposite-Spin Scale   =       1.2000000000000000 [-]
	 SCS Same-Spin Energy      =      -0.1356533770821275 [Eh]
	 SCS Opposite-Spin Energy  =      -1.4574195991529924 [Eh]
	 SCS Correlation Energy    =      -1.5930729762351199 [Eh]
	 SCS Total Energy          =    -394.3425902326823120 [Eh]
	-----------------------------------------------------------

  Dipole Moment: [D]
     X:     8.1965      Y:    -1.0111      Z:     0.0030     Total:     8.2586

*** Psi4 exiting successfully. Buy a developer a beer!
