                               Psi4 1.3.2 release

  ==> Input File <==

--------------------------------------------------------------------------
#psi4
#
memory 32 gb

molecule  {
0 1
  O       -2.3111747    -1.0653976     0.0001399
  N        0.0265130    -0.9084710    -0.0000270
  N        2.3544690    -0.8475160    -0.0005320
  N       -1.3973450     1.0028810     0.0002180
  C        1.1706060    -0.1768690    -0.0001310
  C        1.0385970     1.1986830    -0.0000890
  C       -1.2978830    -0.3751090     0.0001540
  C       -0.2757380     1.7018570     0.0000510
  H        0.0506260    -1.9247470    -0.0002200
  H        1.9024710     1.8518520    -0.0001620
  H       -0.4079780     2.7850560     0.0002120
  H        3.2235170    -0.3366370     0.0005700
  H        2.4001700    -1.8548790     0.0010060
units angstrom
no_reorient  #important for SAPT in psi4, default
symmetry c1  #important for SAPT in psi4, default
}

set PROPERTIES_ORIGIN ["COM"]
properties('MP2/aug-cc-pvtz', properties = ['dipole'])
--------------------------------------------------------------------------

    Molecular point group: c1
  Charge       = 0
  Multiplicity = 1
  Basis Set: AUG-CC-PVTZ
    Blend: AUG-CC-PVTZ
  Basis Set: (AUG-CC-PVTZ AUX)
    Blend: AUG-CC-PVTZ-JKFIT

    Orbital Energies [Eh]
    ---------------------

    Doubly Occupied:

       1A    -20.509061     2A    -15.637672     3A    -15.629594
       4A    -15.542018     5A    -11.385420     6A    -11.374730
       7A    -11.305159     8A    -11.232215     9A     -1.387076
      10A     -1.325946    11A     -1.242292    12A     -1.198766
      13A     -1.057141    14A     -0.908698    15A     -0.885147
      16A     -0.785778    17A     -0.753101    18A     -0.723374
      19A     -0.690775    20A     -0.639705    21A     -0.635152
      22A     -0.620579    23A     -0.568048    24A     -0.547755
      25A     -0.457620    26A     -0.445095    27A     -0.441170
      28A     -0.416547    29A     -0.323769

  @DF-RHF Final Energy:  -392.74758419364872

   => Energetics <=

    Nuclear Repulsion Energy =            354.9688422522359588
    One-Electron Energy =               -1238.0940507216646438
    Two-Electron Energy =                 490.3776242757799650
    Total Energy =                       -392.7475841936487200
  Basis Set: (AUG-CC-PVTZ AUX)
    Blend: AUG-CC-PVTZ-RI
    Molecular point group: c1

    Geometry (in Angstrom), charge = 0, multiplicity = 1:

       Center              X                  Y                   Z               Mass
    ------------   -----------------  -----------------  -----------------  -----------------
         O           -2.236057902995    -1.075490246296     0.000151610370    15.994914619570
         N            0.101629797005    -0.918563646296    -0.000015289630    14.003074004430
         N            2.429585797005    -0.857608646296    -0.000520289630    14.003074004430
         N           -1.322228202995     0.992788353704     0.000229710370    14.003074004430
         C            1.245722797005    -0.186961646296    -0.000119289630    12.000000000000
         C            1.113713797005     1.188590353704    -0.000077289630    12.000000000000
         C           -1.222766202995    -0.385201646296     0.000165710370    12.000000000000
         C           -0.200621202995     1.691764353704     0.000062710370    12.000000000000
         H            0.125742797005    -1.934839646296    -0.000208289630     1.007825032230
         H            1.977587797005     1.841759353704    -0.000150289630     1.007825032230
         H           -0.332861202995     2.774963353704     0.000223710370     1.007825032230
         H            3.298633797005    -0.346729646296     0.000581710370     1.007825032230
         H            2.475286797005    -1.864971646296     0.001017710370     1.007825032230

  Basis Set: AUG-CC-PVTZ
    Blend: AUG-CC-PVTZ
  Basis Set: (AUG-CC-PVTZ AUX)
    Blend: AUG-CC-PVTZ-JKFIT
	 Reference Energy          =    -392.7475841936487200 [Eh]
	 Singles Energy            =      -0.0000000000000000 [Eh]
	 Same-Spin Energy          =      -0.4070579944914149 [Eh]
	 Opposite-Spin Energy      =      -1.2148061677798661 [Eh]
	 Correlation Energy        =      -1.6218641622712808 [Eh]
	 Total Energy              =    -394.3694483559199853 [Eh]

	 ================> DF-SCS-MP2 Energies <==================
	-----------------------------------------------------------
	 SCS Same-Spin Scale       =       0.3333333333333333 [-]
	 SCS Opposite-Spin Scale   =       1.2000000000000000 [-]
	 SCS Same-Spin Energy      =      -0.1356859981638049 [Eh]
	 SCS Opposite-Spin Energy  =      -1.4577674013358393 [Eh]
	 SCS Correlation Energy    =      -1.5934533994996443 [Eh]
	 SCS Total Energy          =    -394.3410375931483713 [Eh]
	-----------------------------------------------------------

  Dipole Moment: [D]
     X:     8.2179      Y:    -1.0855      Z:     0.0030     Total:     8.2893

*** Psi4 exiting successfully. Buy a developer a beer!
