                               Psi4 1.4a3.dev225

  ==> Input File <==

--------------------------------------------------------------------------
#psi4
#
memory 32 gb

molecule  {
0 1
  O        2.2358750    -1.1647400    -0.0019990
  N       -0.0266920    -0.9090020    -0.0014130
  N       -2.3606070    -0.8668920    -0.0783920
  N        1.3942980     1.0030250     0.0093070
  C       -1.1689180    -0.1740660     0.0003700
  C       -1.0400980     1.1965590     0.0002140
  C        1.2955060    -0.3793770     0.0033320
  C        0.2602967     1.7145112     0.0016730
  H       -0.0608440    -1.9231390    -0.0684580
  H       -1.9045160     1.8491770     0.0118680
  H        0.4106550     2.7868440     0.0040290
  H       -3.1798030    -0.3063160     0.1264620
  H       -2.3838550    -1.7605480     0.4013470
units angstrom
no_reorient  #important for SAPT in psi4, default
symmetry c1  #important for SAPT in psi4, default
}

set PROPERTIES_ORIGIN ["COM"]
properties('MP2/aug-cc-pvtz', properties = ['dipole'])
--------------------------------------------------------------------------

    Molecular point group: c1
  Charge       = 0
  Multiplicity = 1
  Basis Set: AUG-CC-PVTZ
    Blend: AUG-CC-PVTZ
  Basis Set: (AUG-CC-PVTZ AUX)
    Blend: AUG-CC-PVTZ-JKFIT

    Orbital Energies [Eh]
    ---------------------

    Doubly Occupied:

       1A    -20.510560     2A    -15.634912     3A    -15.628530
       4A    -15.551149     5A    -11.383634     6A    -11.377020
       7A    -11.313383     8A    -11.238316     9A     -1.390122
      10A     -1.323473    11A     -1.241435    12A     -1.197794
      13A     -1.062534    14A     -0.911277    15A     -0.883018
      16A     -0.776538    17A     -0.749862    18A     -0.716850
      19A     -0.687962    20A     -0.647915    21A     -0.630916
      22A     -0.622898    23A     -0.573185    24A     -0.547381
      25A     -0.461587    26A     -0.450233    27A     -0.447933
      28A     -0.418268    29A     -0.331427

  @DF-RHF Final Energy:  -392.74946091212757

   => Energetics <=

    Nuclear Repulsion Energy =            354.7603290327062950
    One-Electron Energy =               -1237.5993508683072832
    Two-Electron Energy =                 490.0895609234734138
    Total Energy =                       -392.7494609121275744
  Basis Set: (AUG-CC-PVTZ AUX)
    Blend: AUG-CC-PVTZ-RI
    Molecular point group: c1

    Geometry (in Angstrom), charge = 0, multiplicity = 1:

       Center              X                  Y                   Z               Mass
    ------------   -----------------  -----------------  -----------------  -----------------
         O            2.174232905693    -1.160148463901     0.002261751233    15.994914619570
         N           -0.088334094307    -0.904410463901     0.002847751233    14.003074004430
         N           -2.422249094307    -0.862300463901    -0.074131248767    14.003074004430
         N            1.332655905693     1.007616536099     0.013567751233    14.003074004430
         C           -1.230560094307    -0.169474463901     0.004630751233    12.000000000000
         C           -1.101740094307     1.201150536099     0.004474751233    12.000000000000
         C            1.233863905693    -0.374785463901     0.007592751233    12.000000000000
         C            0.198654605693     1.719102736099     0.005933751233    12.000000000000
         H           -0.122486094307    -1.918547463901    -0.064197248767     1.007825032230
         H           -1.966158094307     1.853768536099     0.016128751233     1.007825032230
         H            0.349012905693     2.791435536099     0.008289751233     1.007825032230
         H           -3.241445094307    -0.301724463901     0.130722751233     1.007825032230
         H           -2.445497094307    -1.755956463901     0.405607751233     1.007825032230

  Basis Set: AUG-CC-PVTZ
    Blend: AUG-CC-PVTZ
  Basis Set: (AUG-CC-PVTZ AUX)
    Blend: AUG-CC-PVTZ-JKFIT
	 Reference Energy          =    -392.7494609121275744 [Eh]
	 Singles Energy            =      -0.0000000000000000 [Eh]
	 Same-Spin Energy          =      -0.4071815362111511 [Eh]
	 Opposite-Spin Energy      =      -1.2155074458856496 [Eh]
	 Correlation Energy        =      -1.6226889820968007 [Eh]
	 Total Energy              =    -394.3721498942243784 [Eh]

	 ================> DF-SCS-MP2 Energies <==================
	-----------------------------------------------------------
	 SCS Same-Spin Scale       =       0.3333333333333333 [-]
	 SCS Opposite-Spin Scale   =       1.2000000000000000 [-]
	 SCS Same-Spin Energy      =      -0.1357271787370504 [Eh]
	 SCS Opposite-Spin Energy  =      -1.4586089350627796 [Eh]
	 SCS Correlation Energy    =      -1.5943361137998300 [Eh]
	 SCS Total Energy          =    -394.3437970259274152 [Eh]
	-----------------------------------------------------------

  Dipole Moment: [D]
     X:    -7.7157      Y:    -0.3973      Z:     0.8615     Total:     7.7738

*** Psi4 exiting successfully. Buy a developer a beer!
