                               Psi4 1.3.2 release

  ==> Input File <==

--------------------------------------------------------------------------
#psi4
#
memory 32 gb

molecule  {
0 1
  O       -2.2334690    -1.1675340     0.0001340
  N        0.0265130    -0.9084710    -0.0000270
  N        2.3544690    -0.8475160    -0.0005320
  N       -1.3849754     0.9834127     0.0002129
  C        1.1706060    -0.1768690    -0.0001310
  C        1.0385970     1.1986830    -0.0000890
  C       -1.2978830    -0.3751090     0.0001540
  C       -0.2757380     1.7018570     0.0000510
  H        0.0506260    -1.9247470    -0.0002200
  H        1.9024710     1.8518520    -0.0001620
  H       -0.4079780     2.7850560     0.0002120
  H        3.2235170    -0.3366370     0.0005700
  H        2.4001700    -1.8548790     0.0010060
units angstrom
no_reorient  #important for SAPT in psi4, default
symmetry c1  #important for SAPT in psi4, default
}

set PROPERTIES_ORIGIN ["COM"]
properties('MP2/aug-cc-pvtz', properties = ['dipole'])
--------------------------------------------------------------------------

    Molecular point group: c1
  Charge       = 0
  Multiplicity = 1
  Basis Set: AUG-CC-PVTZ
    Blend: AUG-CC-PVTZ
  Basis Set: (AUG-CC-PVTZ AUX)
    Blend: AUG-CC-PVTZ-JKFIT

    Orbital Energies [Eh]
    ---------------------

    Doubly Occupied:

       1A    -20.506603     2A    -15.630963     3A    -15.629021
       4A    -15.542532     5A    -11.384307     6A    -11.373038
       7A    -11.310642     8A    -11.232996     9A     -1.388483
      10A     -1.322743    11A     -1.244430    12A     -1.199467
      13A     -1.058947    14A     -0.912331    15A     -0.883430
      16A     -0.784061    17A     -0.754555    18A     -0.721478
      19A     -0.693150    20A     -0.638877    21A     -0.636992
      22A     -0.619529    23A     -0.571205    24A     -0.548545
      25A     -0.459542    26A     -0.444240    27A     -0.441398
      28A     -0.414516    29A     -0.325968

  @DF-RHF Final Energy:  -392.75170937362356

   => Energetics <=

    Nuclear Repulsion Energy =            355.7432623606989637
    One-Electron Energy =               -1239.6419656513267000
    Two-Electron Energy =                 491.1469939170041812
    Total Energy =                       -392.7517093736235552
  Basis Set: (AUG-CC-PVTZ AUX)
    Blend: AUG-CC-PVTZ-RI
    Molecular point group: c1

    Geometry (in Angstrom), charge = 0, multiplicity = 1:

       Center              X                  Y                   Z               Mass
    ------------   -----------------  -----------------  -----------------  -----------------
         O           -2.171104966542    -1.160459651988     0.000147203353    15.994914619570
         N            0.088877033458    -0.901396651988    -0.000013796647    14.003074004430
         N            2.416833033458    -0.840441651988    -0.000518796647    14.003074004430
         N           -1.322611366542     0.990487048012     0.000226103353    14.003074004430
         C            1.232970033458    -0.169794651988    -0.000117796647    12.000000000000
         C            1.100961033458     1.205757348012    -0.000075796647    12.000000000000
         C           -1.235518966542    -0.368034651988     0.000167203353    12.000000000000
         C           -0.213373966542     1.708931348012     0.000064203353    12.000000000000
         H            0.112990033458    -1.917672651988    -0.000206796647     1.007825032230
         H            1.964835033458     1.858926348012    -0.000148796647     1.007825032230
         H           -0.345613966542     2.792130348012     0.000225203353     1.007825032230
         H            3.285881033458    -0.329562651988     0.000583203353     1.007825032230
         H            2.462534033458    -1.847804651988     0.001019203353     1.007825032230

  Basis Set: AUG-CC-PVTZ
    Blend: AUG-CC-PVTZ
  Basis Set: (AUG-CC-PVTZ AUX)
    Blend: AUG-CC-PVTZ-JKFIT
	 Reference Energy          =    -392.7517093736235552 [Eh]
	 Singles Energy            =      -0.0000000000000000 [Eh]
	 Same-Spin Energy          =      -0.4069266313675515 [Eh]
	 Opposite-Spin Energy      =      -1.2136853032596646 [Eh]
	 Correlation Energy        =      -1.6206119346272161 [Eh]
	 Total Energy              =    -394.3723213082507755 [Eh]

	 ================> DF-SCS-MP2 Energies <==================
	-----------------------------------------------------------
	 SCS Same-Spin Scale       =       0.3333333333333333 [-]
	 SCS Opposite-Spin Scale   =       1.2000000000000000 [-]
	 SCS Same-Spin Energy      =      -0.1356422104558505 [Eh]
	 SCS Opposite-Spin Energy  =      -1.4564223639115974 [Eh]
	 SCS Correlation Energy    =      -1.5920645743674480 [Eh]
	 SCS Total Energy          =    -394.3437739479909965 [Eh]
	-----------------------------------------------------------

  Dipole Moment: [D]
     X:     8.1765      Y:    -0.7842      Z:     0.0030     Total:     8.2140

*** Psi4 exiting successfully. Buy a developer a beer!
