                               Psi4 1.3.2 release

  ==> Input File <==

--------------------------------------------------------------------------
#psi4
#
memory 32 gb

molecule  {
0 1
  O       -2.2334690    -1.1675340     0.0001340
  N        0.0265130    -0.9084710    -0.0000270
  N        2.3544690    -0.8475160    -0.0005320
  N       -1.3973450     1.0028810     0.0002180
  C        1.1706060    -0.1768690    -0.0001310
  C        0.9788009     1.0640540    -0.0001050
  C       -1.2978830    -0.3751090     0.0001540
  C       -0.2757380     1.7018570     0.0000510
  H        0.0506260    -1.9247470    -0.0002200
  H        1.9024710     1.8518520    -0.0001620
  H       -0.4079780     2.7850560     0.0002120
  H        3.2235170    -0.3366370     0.0005700
  H        2.4001700    -1.8548790     0.0010060
units angstrom
no_reorient  #important for SAPT in psi4, default
symmetry c1  #important for SAPT in psi4, default
}

set PROPERTIES_ORIGIN ["COM"]
properties('MP2/aug-cc-pvtz', properties = ['dipole'])
--------------------------------------------------------------------------

    Molecular point group: c1
  Charge       = 0
  Multiplicity = 1
  Basis Set: AUG-CC-PVTZ
    Blend: AUG-CC-PVTZ
  Basis Set: (AUG-CC-PVTZ AUX)
    Blend: AUG-CC-PVTZ-JKFIT

    Orbital Energies [Eh]
    ---------------------

    Doubly Occupied:

       1A    -20.510125     2A    -15.621629     3A    -15.618149
       4A    -15.554557     5A    -11.376945     6A    -11.358110
       7A    -11.317714     8A    -11.230766     9A     -1.389744
      10A     -1.323591    11A     -1.244369    12A     -1.197542
      13A     -1.075367    14A     -0.920709    15A     -0.876396
      16A     -0.782251    17A     -0.747044    18A     -0.717100
      19A     -0.694232    20A     -0.652437    21A     -0.643330
      22A     -0.605491    23A     -0.551796    24A     -0.548281
      25A     -0.463847    26A     -0.448120    27A     -0.438813
      28A     -0.419077    29A     -0.336134

  @DF-RHF Final Energy:  -392.71989756736389

   => Energetics <=

    Nuclear Repulsion Energy =            358.0145033503264926
    One-Electron Energy =               -1244.1414647892681842
    Two-Electron Energy =                 493.4070638715777477
    Total Energy =                       -392.7198975673638870
  Basis Set: (AUG-CC-PVTZ AUX)
    Blend: AUG-CC-PVTZ-RI
    Molecular point group: c1

    Geometry (in Angstrom), charge = 0, multiplicity = 1:

       Center              X                  Y                   Z               Mass
    ------------   -----------------  -----------------  -----------------  -----------------
         O           -2.163083177468    -1.148365879410     0.000148289275    15.994914619570
         N            0.096898822532    -0.889302879410    -0.000012710725    14.003074004430
         N            2.424854822532    -0.828347879410    -0.000517710725    14.003074004430
         N           -1.326959177468     1.022049120590     0.000232289275    14.003074004430
         C            1.240991822532    -0.157700879410    -0.000116710725    12.000000000000
         C            1.049186722532     1.083222120590    -0.000090710725    12.000000000000
         C           -1.227497177468    -0.355940879410     0.000168289275    12.000000000000
         C           -0.205352177468     1.721025120590     0.000065289275    12.000000000000
         H            0.121011822532    -1.905578879410    -0.000205710725     1.007825032230
         H            1.972856822532     1.871020120590    -0.000147710725     1.007825032230
         H           -0.337592177468     2.804224120590     0.000226289275     1.007825032230
         H            3.293902822532    -0.317468879410     0.000584289275     1.007825032230
         H            2.470555822532    -1.835710879410     0.001020289275     1.007825032230

  Basis Set: AUG-CC-PVTZ
    Blend: AUG-CC-PVTZ
  Basis Set: (AUG-CC-PVTZ AUX)
    Blend: AUG-CC-PVTZ-JKFIT
	 Reference Energy          =    -392.7198975673638870 [Eh]
	 Singles Energy            =      -0.0000000000000000 [Eh]
	 Same-Spin Energy          =      -0.4074879990679833 [Eh]
	 Opposite-Spin Energy      =      -1.2156083949307632 [Eh]
	 Correlation Energy        =      -1.6230963939987466 [Eh]
	 Total Energy              =    -394.3429939613626516 [Eh]

	 ================> DF-SCS-MP2 Energies <==================
	-----------------------------------------------------------
	 SCS Same-Spin Scale       =       0.3333333333333333 [-]
	 SCS Opposite-Spin Scale   =       1.2000000000000000 [-]
	 SCS Same-Spin Energy      =      -0.1358293330226611 [Eh]
	 SCS Opposite-Spin Energy  =      -1.4587300739169158 [Eh]
	 SCS Correlation Energy    =      -1.5945594069395770 [Eh]
	 SCS Total Energy          =    -394.3144569743034822 [Eh]
	-----------------------------------------------------------

  Dipole Moment: [D]
     X:     7.7206      Y:    -0.4536      Z:     0.0032     Total:     7.7339

*** Psi4 exiting successfully. Buy a developer a beer!
