                               Psi4 1.3.2 release

  ==> Input File <==

--------------------------------------------------------------------------
#psi4
#
memory 32 gb

molecule  {
0 1
  O       -2.2334690    -1.1675340     0.0001340
  N        0.0265130    -0.9084710    -0.0000270
  N        2.3983671    -0.7633002    -0.0005471
  N       -1.3973450     1.0028810     0.0002180
  C        1.1706060    -0.1768690    -0.0001310
  C        1.0385970     1.1986830    -0.0000890
  C       -1.2978830    -0.3751090     0.0001540
  C       -0.2757380     1.7018570     0.0000510
  H        0.0506260    -1.9247470    -0.0002200
  H        1.9024710     1.8518520    -0.0001620
  H       -0.4079780     2.7850560     0.0002120
  H        3.2235170    -0.3366370     0.0005700
  H        2.4001700    -1.8548790     0.0010060
units angstrom
no_reorient  #important for SAPT in psi4, default
symmetry c1  #important for SAPT in psi4, default
}

set PROPERTIES_ORIGIN ["COM"]
properties('MP2/aug-cc-pvtz', properties = ['dipole'])
--------------------------------------------------------------------------

    Molecular point group: c1
  Charge       = 0
  Multiplicity = 1
  Basis Set: AUG-CC-PVTZ
    Blend: AUG-CC-PVTZ
  Basis Set: (AUG-CC-PVTZ AUX)
    Blend: AUG-CC-PVTZ-JKFIT

    Orbital Energies [Eh]
    ---------------------

    Doubly Occupied:

       1A    -20.510273     2A    -15.636076     3A    -15.629657
       4A    -15.545077     5A    -11.385103     6A    -11.377146
       7A    -11.307349     8A    -11.229870     9A     -1.389528
      10A     -1.323121    11A     -1.245402    12A     -1.202169
      13A     -1.055837    14A     -0.911002    15A     -0.889203
      16A     -0.780098    17A     -0.756363    18A     -0.733124
      19A     -0.682353    20A     -0.639341    21A     -0.631079
      22A     -0.619809    23A     -0.567431    24A     -0.548847
      25A     -0.459720    26A     -0.447994    27A     -0.444806
      28A     -0.415481    29A     -0.324067

  @DF-RHF Final Energy:  -392.73666862242470

   => Energetics <=

    Nuclear Repulsion Energy =            355.0945412651711877
    One-Electron Energy =               -1238.2877631615417613
    Two-Electron Energy =                 490.4565532739458718
    Total Energy =                       -392.7366686224247019
  Basis Set: (AUG-CC-PVTZ AUX)
    Blend: AUG-CC-PVTZ-RI
    Molecular point group: c1

    Geometry (in Angstrom), charge = 0, multiplicity = 1:

       Center              X                  Y                   Z               Mass
    ------------   -----------------  -----------------  -----------------  -----------------
         O           -2.175080857665    -1.173534701315     0.000148464399    15.994914619570
         N            0.084901142335    -0.914471701315    -0.000012535601    14.003074004430
         N            2.456755242335    -0.769300901315    -0.000532635601    14.003074004430
         N           -1.338956857665     0.996880298685     0.000232464399    14.003074004430
         C            1.228994142335    -0.182869701315    -0.000116535601    12.000000000000
         C            1.096985142335     1.192682298685    -0.000074535601    12.000000000000
         C           -1.239494857665    -0.381109701315     0.000168464399    12.000000000000
         C           -0.217349857665     1.695856298685     0.000065464399    12.000000000000
         H            0.109014142335    -1.930747701315    -0.000205535601     1.007825032230
         H            1.960859142335     1.845851298685    -0.000147535601     1.007825032230
         H           -0.349589857665     2.779055298685     0.000226464399     1.007825032230
         H            3.281905142335    -0.342637701315     0.000584464399     1.007825032230
         H            2.458558142335    -1.860879701315     0.001020464399     1.007825032230

  Basis Set: AUG-CC-PVTZ
    Blend: AUG-CC-PVTZ
  Basis Set: (AUG-CC-PVTZ AUX)
    Blend: AUG-CC-PVTZ-JKFIT
	 Reference Energy          =    -392.7366686224247019 [Eh]
	 Singles Energy            =      -0.0000000000000000 [Eh]
	 Same-Spin Energy          =      -0.4070917437925217 [Eh]
	 Opposite-Spin Energy      =      -1.2147349656017090 [Eh]
	 Correlation Energy        =      -1.6218267093942307 [Eh]
	 Total Energy              =    -394.3584953318189150 [Eh]

	 ================> DF-SCS-MP2 Energies <==================
	-----------------------------------------------------------
	 SCS Same-Spin Scale       =       0.3333333333333333 [-]
	 SCS Opposite-Spin Scale   =       1.2000000000000000 [-]
	 SCS Same-Spin Energy      =      -0.1356972479308406 [Eh]
	 SCS Opposite-Spin Energy  =      -1.4576819587220509 [Eh]
	 SCS Correlation Energy    =      -1.5933792066528913 [Eh]
	 SCS Total Energy          =    -394.3300478290776141 [Eh]
	-----------------------------------------------------------

  Dipole Moment: [D]
     X:     8.1006      Y:    -0.9614      Z:     0.0030     Total:     8.1575

*** Psi4 exiting successfully. Buy a developer a beer!
