                               Psi4 1.3.2 release

  ==> Input File <==

--------------------------------------------------------------------------
#psi4
#
memory 32 gb

molecule  {
0 1
  O       -2.9128620    -0.4781290     1.0138340
  O       -2.9681190     0.5148030    -1.0434710
  O       -0.3129680    -3.4309860     0.4641560
  O       -0.2589710     3.4469300    -0.4801560
  O       -1.9011930    -2.4818550    -0.7520780
  O       -1.8407060     2.5208330     0.7644950
  O        3.9597560    -1.1388570    -0.0240200
  O        3.9819620     1.0692260     0.0429750
  N       -0.8439190    -2.4637400    -0.1025570
  N       -0.7967020     2.4883090     0.0943390
  N        3.4069750    -0.0290830     0.0068360
  C       -0.8642630     0.0144850    -0.0118450
  C       -0.1342560    -1.1768520    -0.0236930
  C       -0.1092970     1.1902470     0.0051550
  C        1.9303540    -0.0152838     0.0496804
  C        1.2541590    -1.2264030    -0.0035910
  C        1.2788880     1.2129500     0.0017720
  C       -2.3665400     0.0542110    -0.0958220
  H        1.7835260    -2.1724740     0.0038120
  H        1.8267950     2.1485240     0.0024160
  H       -3.8857970    -0.4493820     0.8874840
units angstrom
no_reorient  #important for SAPT in psi4, default
symmetry c1  #important for SAPT in psi4, default
}

set PROPERTIES_ORIGIN ["COM"]
properties('MP2/aug-cc-pvtz', properties = ['dipole'])
--------------------------------------------------------------------------

    Molecular point group: c1
  Charge       = 0
  Multiplicity = 1
  Basis Set: AUG-CC-PVTZ
    Blend: AUG-CC-PVTZ
  Basis Set: (AUG-CC-PVTZ AUX)
    Blend: AUG-CC-PVTZ-JKFIT

    Orbital Energies [Eh]
    ---------------------

    Doubly Occupied:

       1A    -20.657743     2A    -20.652878     3A    -20.652502
       4A    -20.650637     5A    -20.650556     6A    -20.650152
       7A    -20.650093     8A    -20.596111     9A    -15.902772
      10A    -15.901995    11A    -15.900201    12A    -11.452673
      13A    -11.386583    14A    -11.385508    15A    -11.380408
      16A    -11.376102    17A    -11.356110    18A    -11.355964
      19A     -1.636679    20A     -1.634714    21A     -1.633716
      22A     -1.506265    23A     -1.436754    24A     -1.434740
      25A     -1.434270    26A     -1.405813    27A     -1.290462
      28A     -1.184240    29A     -1.181419    30A     -1.056554
      31A     -1.035646    32A     -1.028063    33A     -0.924273
      34A     -0.883864    35A     -0.871132    36A     -0.837183
      37A     -0.802751    38A     -0.790000    39A     -0.788268
      40A     -0.777585    41A     -0.765989    42A     -0.763208
      43A     -0.757242    44A     -0.753609    45A     -0.745828
      46A     -0.741510    47A     -0.715977    48A     -0.691582
      49A     -0.667680    50A     -0.646238    51A     -0.629980
      52A     -0.608358    53A     -0.555348    54A     -0.549949
      55A     -0.544247    56A     -0.540279    57A     -0.536154
      58A     -0.534319    59A     -0.522471    60A     -0.509314
      61A     -0.493942    62A     -0.492270    63A     -0.487030
      64A     -0.447576    65A     -0.446106

  @DF-RHF Final Energy: -1029.04869517023690

   => Energetics <=

    Nuclear Repulsion Energy =           1345.7833705276923411
    One-Electron Energy =               -4083.1049637282103504
    Two-Electron Energy =                1708.2728980302808850
    Total Energy =                      -1029.0486951702368970
  Basis Set: (AUG-CC-PVTZ AUX)
    Blend: AUG-CC-PVTZ-RI
    Molecular point group: c1

    Geometry (in Angstrom), charge = 0, multiplicity = 1:

       Center              X                  Y                   Z               Mass
    ------------   -----------------  -----------------  -----------------  -----------------
         O           -2.913979295602    -0.479885214048     1.014950523333    15.994914619570
         O           -2.969236295602     0.513046785952    -1.042354476667    15.994914619570
         O           -0.314085295602    -3.432742214048     0.465272523333    15.994914619570
         O           -0.260088295602     3.445173785952    -0.479039476667    15.994914619570
         O           -1.902310295602    -2.483611214048    -0.750961476667    15.994914619570
         O           -1.841823295602     2.519076785952     0.765611523333    15.994914619570
         O            3.958638704398    -1.140613214048    -0.022903476667    15.994914619570
         O            3.980844704398     1.067469785952     0.044091523333    15.994914619570
         N           -0.845036295602    -2.465496214048    -0.101440476667    14.003074004430
         N           -0.797819295602     2.486552785952     0.095455523333    14.003074004430
         N            3.405857704398    -0.030839214048     0.007952523333    14.003074004430
         C           -0.865380295602     0.012728785952    -0.010728476667    12.000000000000
         C           -0.135373295602    -1.178608214048    -0.022576476667    12.000000000000
         C           -0.110414295602     1.188490785952     0.006271523333    12.000000000000
         C            1.929236704398    -0.017040014048     0.050796923333    12.000000000000
         C            1.253041704398    -1.228159214048    -0.002474476667    12.000000000000
         C            1.277770704398     1.211193785952     0.002888523333    12.000000000000
         C           -2.367657295602     0.052454785952    -0.094705476667    12.000000000000
         H            1.782408704398    -2.174230214048     0.004928523333     1.007825032230
         H            1.825677704398     2.146767785952     0.003532523333     1.007825032230
         H           -3.886914295602    -0.451138214048     0.888600523333     1.007825032230

  Basis Set: AUG-CC-PVTZ
    Blend: AUG-CC-PVTZ
  Basis Set: (AUG-CC-PVTZ AUX)
    Blend: AUG-CC-PVTZ-JKFIT
	 Reference Energy          =   -1029.0486951702368970 [Eh]
	 Singles Energy            =      -0.0000000000000000 [Eh]
	 Same-Spin Energy          =      -1.0499968931856216 [Eh]
	 Opposite-Spin Energy      =      -2.9503517659877123 [Eh]
	 Correlation Energy        =      -4.0003486591733335 [Eh]
	 Total Energy              =   -1033.0490438294102660 [Eh]

	 ================> DF-SCS-MP2 Energies <==================
	-----------------------------------------------------------
	 SCS Same-Spin Scale       =       0.3333333333333333 [-]
	 SCS Opposite-Spin Scale   =       1.2000000000000000 [-]
	 SCS Same-Spin Energy      =      -0.3499989643952072 [Eh]
	 SCS Opposite-Spin Energy  =      -3.5404221191852545 [Eh]
	 SCS Correlation Energy    =      -3.8904210835804616 [Eh]
	 SCS Total Energy          =   -1032.9391162538172466 [Eh]
	-----------------------------------------------------------

  Dipole Moment: [D]
     X:    -0.1395      Y:    -0.6174      Z:     1.2151     Total:     1.3701

*** Psi4 exiting successfully. Buy a developer a beer!
