                               Psi4 1.3.2 release

  ==> Input File <==

--------------------------------------------------------------------------
#psi4
#
memory 32 gb

molecule  {
0 1
  O       -2.9128620    -0.4781290     1.0138340
  O       -2.9681190     0.5148030    -1.0434710
  O       -0.3129680    -3.4309860     0.4641560
  O       -0.2589710     3.4469300    -0.4801560
  O       -1.9011930    -2.4818550    -0.7520780
  O       -1.8407060     2.5208330     0.7644950
  O        3.9597560    -1.1388570    -0.0240200
  O        3.9819620     1.0692260     0.0429750
  N       -0.8439190    -2.4637400    -0.1025570
  N       -0.7967020     2.4883090     0.0943390
  N        3.4069750    -0.0290830     0.0068360
  C       -0.8643678    -0.0755755    -0.0553087
  C       -0.1342560    -1.1768520    -0.0236930
  C       -0.1092970     1.1902470     0.0051550
  C        1.9306090    -0.0137700    -0.0002960
  C        1.2541590    -1.2264030    -0.0035910
  C        1.2788880     1.2129500     0.0017720
  C       -2.3665400     0.0542110    -0.0958220
  H        1.7835260    -2.1724740     0.0038120
  H        1.8267950     2.1485240     0.0024160
  H       -3.8857970    -0.4493820     0.8874840
units angstrom
no_reorient  #important for SAPT in psi4, default
symmetry c1  #important for SAPT in psi4, default
}

set PROPERTIES_ORIGIN ["COM"]
properties('MP2/aug-cc-pvtz', properties = ['dipole'])
--------------------------------------------------------------------------

    Molecular point group: c1
  Charge       = 0
  Multiplicity = 1
  Basis Set: AUG-CC-PVTZ
    Blend: AUG-CC-PVTZ
  Basis Set: (AUG-CC-PVTZ AUX)
    Blend: AUG-CC-PVTZ-JKFIT

    Orbital Energies [Eh]
    ---------------------

    Doubly Occupied:

       1A    -20.657796     2A    -20.653663     3A    -20.653000
       4A    -20.651233     5A    -20.650062     6A    -20.649502
       7A    -20.649306     8A    -20.596273     9A    -15.902037
      10A    -15.901965    11A    -15.900658    12A    -11.453391
      13A    -11.389850    14A    -11.380863    15A    -11.380397
      16A    -11.374746    17A    -11.357594    18A    -11.353426
      19A     -1.637548    20A     -1.634810    21A     -1.632818
      22A     -1.506292    23A     -1.437512    24A     -1.434788
      25A     -1.433463    26A     -1.405937    27A     -1.292031
      28A     -1.192304    29A     -1.173973    30A     -1.056367
      31A     -1.036180    32A     -1.027508    33A     -0.926308
      34A     -0.883100    35A     -0.870859    36A     -0.837101
      37A     -0.804388    38A     -0.792156    39A     -0.787533
      40A     -0.774353    41A     -0.766427    42A     -0.762499
      43A     -0.757327    44A     -0.753653    45A     -0.746039
      46A     -0.741362    47A     -0.717716    48A     -0.689381
      49A     -0.667609    50A     -0.646465    51A     -0.625619
      52A     -0.609676    53A     -0.555437    54A     -0.549978
      55A     -0.544141    56A     -0.540404    57A     -0.536304
      58A     -0.534061    59A     -0.522672    60A     -0.509005
      61A     -0.493994    62A     -0.492764    63A     -0.486340
      64A     -0.458810    65A     -0.436683

  @DF-RHF Final Energy: -1029.03947739970999

   => Energetics <=

    Nuclear Repulsion Energy =           1345.8693960533908012
    One-Electron Energy =               -4083.2628327570814690
    Two-Electron Energy =                1708.3539593039809006
    Total Energy =                      -1029.0394773997099946
  Basis Set: (AUG-CC-PVTZ AUX)
    Blend: AUG-CC-PVTZ-RI
    Molecular point group: c1

    Geometry (in Angstrom), charge = 0, multiplicity = 1:

       Center              X                  Y                   Z               Mass
    ------------   -----------------  -----------------  -----------------  -----------------
         O           -2.913986309050    -0.475750609306     1.019313620778    15.994914619570
         O           -2.969243309050     0.517181390694    -1.037991379222    15.994914619570
         O           -0.314092309050    -3.428607609306     0.469635620778    15.994914619570
         O           -0.260095309050     3.449308390694    -0.474676379222    15.994914619570
         O           -1.902317309050    -2.479476609306    -0.746598379222    15.994914619570
         O           -1.841830309050     2.523211390694     0.769974620778    15.994914619570
         O            3.958631690950    -1.136478609306    -0.018540379222    15.994914619570
         O            3.980837690950     1.071604390694     0.048454620778    15.994914619570
         N           -0.845043309050    -2.461361609306    -0.097077379222    14.003074004430
         N           -0.797826309050     2.490687390694     0.099818620778    14.003074004430
         N            3.405850690950    -0.026704609306     0.012315620778    14.003074004430
         C           -0.865492109050    -0.073197109306    -0.049829079222    12.000000000000
         C           -0.135380309050    -1.174473609306    -0.018213379222    12.000000000000
         C           -0.110421309050     1.192625390694     0.010634620778    12.000000000000
         C            1.929484690950    -0.011391609306     0.005183620778    12.000000000000
         C            1.253034690950    -1.224024609306     0.001888620778    12.000000000000
         C            1.277763690950     1.215328390694     0.007251620778    12.000000000000
         C           -2.367664309050     0.056589390694    -0.090342379222    12.000000000000
         H            1.782401690950    -2.170095609306     0.009291620778     1.007825032230
         H            1.825670690950     2.150902390694     0.007895620778     1.007825032230
         H           -3.886921309050    -0.447003609306     0.892963620778     1.007825032230

  Basis Set: AUG-CC-PVTZ
    Blend: AUG-CC-PVTZ
  Basis Set: (AUG-CC-PVTZ AUX)
    Blend: AUG-CC-PVTZ-JKFIT
	 Reference Energy          =   -1029.0394773997099946 [Eh]
	 Singles Energy            =      -0.0000000000000000 [Eh]
	 Same-Spin Energy          =      -1.0497208048406428 [Eh]
	 Opposite-Spin Energy      =      -2.9506971469529253 [Eh]
	 Correlation Energy        =      -4.0004179517935681 [Eh]
	 Total Energy              =   -1033.0398953515036737 [Eh]

	 ================> DF-SCS-MP2 Energies <==================
	-----------------------------------------------------------
	 SCS Same-Spin Scale       =       0.3333333333333333 [-]
	 SCS Opposite-Spin Scale   =       1.2000000000000000 [-]
	 SCS Same-Spin Energy      =      -0.3499069349468809 [Eh]
	 SCS Opposite-Spin Energy  =      -3.5408365763435103 [Eh]
	 SCS Correlation Energy    =      -3.8907435112903914 [Eh]
	 SCS Total Energy          =   -1032.9302209110003332 [Eh]
	-----------------------------------------------------------

  Dipole Moment: [D]
     X:    -0.1534      Y:    -0.5576      Z:     1.1792     Total:     1.3134

*** Psi4 exiting successfully. Buy a developer a beer!
