                               Psi4 1.3.2 release

  ==> Input File <==

--------------------------------------------------------------------------
#psi4
#
memory 32 gb

molecule  {
0 1
  O       -2.9128620    -0.4781290     1.0138340
  O       -2.9681190     0.5148030    -1.0434710
  O       -0.3129680    -3.4309860     0.4641560
  O       -0.2589710     3.4469300    -0.4801560
  O       -1.9011930    -2.4818550    -0.7520780
  O       -1.8407060     2.5208330     0.7644950
  O        3.9597560    -1.1388570    -0.0240200
  O        3.9819620     1.0692260     0.0429750
  N       -0.8439190    -2.4637400    -0.1025570
  N       -0.7967020     2.4883090     0.0943390
  N        3.4069750    -0.0290830     0.0068360
  C       -0.8644203    -0.1206057    -0.0770406
  C       -0.1342560    -1.1768520    -0.0236930
  C       -0.1092970     1.1902470     0.0051550
  C        1.9306090    -0.0137700    -0.0002960
  C        1.2541590    -1.2264030    -0.0035910
  C        1.2788880     1.2129500     0.0017720
  C       -2.3665400     0.0542110    -0.0958220
  H        1.7835260    -2.1724740     0.0038120
  H        1.8267950     2.1485240     0.0024160
  H       -3.8857970    -0.4493820     0.8874840
units angstrom
no_reorient  #important for SAPT in psi4, default
symmetry c1  #important for SAPT in psi4, default
}

set PROPERTIES_ORIGIN ["COM"]
properties('MP2/aug-cc-pvtz', properties = ['dipole'])
--------------------------------------------------------------------------

    Molecular point group: c1
  Charge       = 0
  Multiplicity = 1
  Basis Set: AUG-CC-PVTZ
    Blend: AUG-CC-PVTZ
  Basis Set: (AUG-CC-PVTZ AUX)
    Blend: AUG-CC-PVTZ-JKFIT

    Orbital Energies [Eh]
    ---------------------

    Doubly Occupied:

       1A    -20.657953     2A    -20.654030     3A    -20.653098
       4A    -20.651511     5A    -20.649811     6A    -20.649153
       7A    -20.648828     8A    -20.596493     9A    -15.902030
      10A    -15.901366    11A    -15.900761    12A    -11.454267
      13A    -11.391456    14A    -11.380574    15A    -11.377550
      16A    -11.373159    17A    -11.358211    18A    -11.352216
      19A     -1.637936    20A     -1.634815    21A     -1.632336
      22A     -1.506373    23A     -1.437833    24A     -1.434787
      25A     -1.433024    26A     -1.406105    27A     -1.293808
      28A     -1.196726    29A     -1.170103    30A     -1.056049
      31A     -1.036353    32A     -1.026860    33A     -0.928922
      34A     -0.882727    35A     -0.869589    36A     -0.837102
      37A     -0.804473    38A     -0.793217    39A     -0.787172
      40A     -0.772609    41A     -0.766422    42A     -0.762021
      43A     -0.757143    44A     -0.753589    45A     -0.746117
      46A     -0.741304    47A     -0.719159    48A     -0.687516
      49A     -0.667702    50A     -0.646666    51A     -0.621486
      52A     -0.610782    53A     -0.555393    54A     -0.549999
      55A     -0.544013    56A     -0.540434    57A     -0.536238
      58A     -0.533767    59A     -0.522730    60A     -0.508541
      61A     -0.494005    62A     -0.492904    63A     -0.486007
      64A     -0.464792    65A     -0.432564

  @DF-RHF Final Energy: -1029.02669895050713

   => Energetics <=

    Nuclear Repulsion Energy =           1345.9235633094795048
    One-Electron Energy =               -4083.3551634172840750
    Two-Electron Energy =                1708.4049011572974450
    Total Energy =                      -1029.0266989505071251
  Basis Set: (AUG-CC-PVTZ AUX)
    Blend: AUG-CC-PVTZ-RI
    Molecular point group: c1

    Geometry (in Angstrom), charge = 0, multiplicity = 1:

       Center              X                  Y                   Z               Mass
    ------------   -----------------  -----------------  -----------------  -----------------
         O           -2.913983857612    -0.473647966538     1.020328371376    15.994914619570
         O           -2.969240857612     0.519284033462    -1.036976628624    15.994914619570
         O           -0.314089857612    -3.426504966538     0.470650371376    15.994914619570
         O           -0.260092857612     3.451411033462    -0.473661628624    15.994914619570
         O           -1.902314857612    -2.477373966538    -0.745583628624    15.994914619570
         O           -1.841827857612     2.525314033462     0.770989371376    15.994914619570
         O            3.958634142388    -1.134375966538    -0.017525628624    15.994914619570
         O            3.980840142388     1.073707033462     0.049469371376    15.994914619570
         N           -0.845040857612    -2.459258966538    -0.096062628624    14.003074004430
         N           -0.797823857612     2.492790033462     0.100833371376    14.003074004430
         N            3.405853142388    -0.024601966538     0.013330371376    14.003074004430
         C           -0.865542157612    -0.116124666538    -0.070546228624    12.000000000000
         C           -0.135377857612    -1.172370966538    -0.017198628624    12.000000000000
         C           -0.110418857612     1.194728033462     0.011649371376    12.000000000000
         C            1.929487142388    -0.009288966538     0.006198371376    12.000000000000
         C            1.253037142388    -1.221921966538     0.002903371376    12.000000000000
         C            1.277766142388     1.217431033462     0.008266371376    12.000000000000
         C           -2.367661857612     0.058692033462    -0.089327628624    12.000000000000
         H            1.782404142388    -2.167992966538     0.010306371376     1.007825032230
         H            1.825673142388     2.153005033462     0.008910371376     1.007825032230
         H           -3.886918857612    -0.444900966538     0.893978371376     1.007825032230

  Basis Set: AUG-CC-PVTZ
    Blend: AUG-CC-PVTZ
  Basis Set: (AUG-CC-PVTZ AUX)
    Blend: AUG-CC-PVTZ-JKFIT
	 Reference Energy          =   -1029.0266989505071251 [Eh]
	 Singles Energy            =      -0.0000000000000000 [Eh]
	 Same-Spin Energy          =      -1.0494922713188213 [Eh]
	 Opposite-Spin Energy      =      -2.9512025980170602 [Eh]
	 Correlation Energy        =      -4.0006948693358817 [Eh]
	 Total Energy              =   -1033.0273938198429278 [Eh]

	 ================> DF-SCS-MP2 Energies <==================
	-----------------------------------------------------------
	 SCS Same-Spin Scale       =       0.3333333333333333 [-]
	 SCS Opposite-Spin Scale   =       1.2000000000000000 [-]
	 SCS Same-Spin Energy      =      -0.3498307571062738 [Eh]
	 SCS Opposite-Spin Energy  =      -3.5414431176204721 [Eh]
	 SCS Correlation Energy    =      -3.8912738747267461 [Eh]
	 SCS Total Energy          =   -1032.9179728252338464 [Eh]
	-----------------------------------------------------------

  Dipole Moment: [D]
     X:    -0.1737      Y:    -0.5349      Z:     1.1718     Total:     1.2998

*** Psi4 exiting successfully. Buy a developer a beer!
