                               Psi4 1.3.2 release

  ==> Input File <==

--------------------------------------------------------------------------
#psi4
#
memory 32 gb

molecule  {
0 1
  O       -2.9128620    -0.4781290     1.0138340
  O       -2.9681190     0.5148030    -1.0434710
  O       -0.3129680    -3.4309860     0.4641560
  O       -0.2589710     3.4469300    -0.4801560
  O       -1.9011930    -2.4818550    -0.7520780
  O       -1.8407060     2.5208330     0.7644950
  O        3.9597560    -1.1388570    -0.0240200
  O        3.9819620     1.0692260     0.0429750
  N       -0.8439190    -2.4637400    -0.1025570
  N       -0.7967020     2.4883090     0.0943390
  N        3.4069750    -0.0290830     0.0068360
  C       -0.8645251    -0.2106662    -0.1205043
  C       -0.1342560    -1.1768520    -0.0236930
  C       -0.1092970     1.1902470     0.0051550
  C        1.9306090    -0.0137700    -0.0002960
  C        1.2541590    -1.2264030    -0.0035910
  C        1.2788880     1.2129500     0.0017720
  C       -2.3665400     0.0542110    -0.0958220
  H        1.7835260    -2.1724740     0.0038120
  H        1.8267950     2.1485240     0.0024160
  H       -3.8857970    -0.4493820     0.8874840
units angstrom
no_reorient  #important for SAPT in psi4, default
symmetry c1  #important for SAPT in psi4, default
}

set PROPERTIES_ORIGIN ["COM"]
properties('MP2/aug-cc-pvtz', properties = ['dipole'])
--------------------------------------------------------------------------

    Molecular point group: c1
  Charge       = 0
  Multiplicity = 1
  Basis Set: AUG-CC-PVTZ
    Blend: AUG-CC-PVTZ
  Basis Set: (AUG-CC-PVTZ AUX)
    Blend: AUG-CC-PVTZ-JKFIT

    Orbital Energies [Eh]
    ---------------------

    Doubly Occupied:

       1A    -20.658567     2A    -20.654669     3A    -20.653139
       4A    -20.652033     5A    -20.649380     6A    -20.648319
       7A    -20.647791     8A    -20.597187     9A    -15.902011
      10A    -15.900614    11A    -15.899967    12A    -11.457026
      13A    -11.393424    14A    -11.381087    15A    -11.371206
      16A    -11.367856    17A    -11.359027    18A    -11.349708
      19A     -1.638737    20A     -1.634834    21A     -1.631269
      22A     -1.506698    23A     -1.438459    24A     -1.434791
      25A     -1.432047    26A     -1.406647    27A     -1.299455
      28A     -1.205285    29A     -1.163010    30A     -1.055327
      31A     -1.036431    32A     -1.025095    33A     -0.934960
      34A     -0.882268    35A     -0.866034    36A     -0.837224
      37A     -0.803399    38A     -0.795314    39A     -0.786368
      40A     -0.770668    41A     -0.765411    42A     -0.760922
      43A     -0.756286    44A     -0.753114    45A     -0.746251
      46A     -0.741192    47A     -0.722288    48A     -0.683669
      49A     -0.668000    50A     -0.646796    51A     -0.614223
      52A     -0.610412    53A     -0.555191    54A     -0.550040
      55A     -0.543697    56A     -0.540522    57A     -0.535781
      58A     -0.533011    59A     -0.522699    60A     -0.506700
      61A     -0.494074    62A     -0.492991    63A     -0.485346
      64A     -0.476628    65A     -0.425516

  @DF-RHF Final Energy: -1028.98452690748604

   => Energetics <=

    Nuclear Repulsion Energy =           1346.0888070302130473
    One-Electron Energy =               -4083.6304831232710058
    Two-Electron Energy =                1708.5571491855719160
    Total Energy =                      -1028.9845269074860425
  Basis Set: (AUG-CC-PVTZ AUX)
    Blend: AUG-CC-PVTZ-RI
    Molecular point group: c1

    Geometry (in Angstrom), charge = 0, multiplicity = 1:

       Center              X                  Y                   Z               Mass
    ------------   -----------------  -----------------  -----------------  -----------------
         O           -2.913978964075    -0.469442676331     1.022357867903    15.994914619570
         O           -2.969235964075     0.523489323669    -1.034947132097    15.994914619570
         O           -0.314084964075    -3.422299676331     0.472679867903    15.994914619570
         O           -0.260087964075     3.455616323669    -0.471632132097    15.994914619570
         O           -1.902309964075    -2.473168676331    -0.743554132097    15.994914619570
         O           -1.841822964075     2.529519323669     0.773018867903    15.994914619570
         O            3.958639035925    -1.130170676331    -0.015496132097    15.994914619570
         O            3.980845035925     1.077912323669     0.051498867903    15.994914619570
         N           -0.845035964075    -2.455053676331    -0.094033132097    14.003074004430
         N           -0.797818964075     2.496995323669     0.102862867903    14.003074004430
         N            3.405858035925    -0.020396676331     0.015359867903    14.003074004430
         C           -0.865642064075    -0.201979876331    -0.111980432097    12.000000000000
         C           -0.135372964075    -1.168165676331    -0.015169132097    12.000000000000
         C           -0.110413964075     1.198933323669     0.013678867903    12.000000000000
         C            1.929492035925    -0.005083676331     0.008227867903    12.000000000000
         C            1.253042035925    -1.217716676331     0.004932867903    12.000000000000
         C            1.277771035925     1.221636323669     0.010295867903    12.000000000000
         C           -2.367656964075     0.062897323669    -0.087298132097    12.000000000000
         H            1.782409035925    -2.163787676331     0.012335867903     1.007825032230
         H            1.825678035925     2.157210323669     0.010939867903     1.007825032230
         H           -3.886913964075    -0.440695676331     0.896007867903     1.007825032230

  Basis Set: AUG-CC-PVTZ
    Blend: AUG-CC-PVTZ
  Basis Set: (AUG-CC-PVTZ AUX)
    Blend: AUG-CC-PVTZ-JKFIT
	 Reference Energy          =   -1028.9845269074860425 [Eh]
	 Singles Energy            =      -0.0000000000000000 [Eh]
	 Same-Spin Energy          =      -1.0491432705962844 [Eh]
	 Opposite-Spin Energy      =      -2.9528927119889441 [Eh]
	 Correlation Energy        =      -4.0020359825852285 [Eh]
	 Total Energy              =   -1032.9865628900713546 [Eh]

	 ================> DF-SCS-MP2 Energies <==================
	-----------------------------------------------------------
	 SCS Same-Spin Scale       =       0.3333333333333333 [-]
	 SCS Opposite-Spin Scale   =       1.2000000000000000 [-]
	 SCS Same-Spin Energy      =      -0.3497144235320948 [Eh]
	 SCS Opposite-Spin Energy  =      -3.5434712543867328 [Eh]
	 SCS Correlation Energy    =      -3.8931856779188276 [Eh]
	 SCS Total Energy          =   -1032.8777125854048791 [Eh]
	-----------------------------------------------------------

  Dipole Moment: [D]
     X:    -0.2356      Y:    -0.5153      Z:     1.1533     Total:     1.2849

*** Psi4 exiting successfully. Buy a developer a beer!
