                               Psi4 1.3.2 release

  ==> Input File <==

--------------------------------------------------------------------------
#psi4
#
memory 32 gb

molecule  {
0 1
  O       -2.9128620    -0.4781290     1.0138340
  O       -2.9681190     0.5148030    -1.0434710
  O       -0.3129680    -3.4309860     0.4641560
  O       -0.2589710     3.4469300    -0.4801560
  O       -1.9011930    -2.4818550    -0.7520780
  O       -1.8407060     2.5208330     0.7644950
  O        3.9597560    -1.1388570    -0.0240200
  O        3.9819620     1.0692260     0.0429750
  N       -0.8439190    -2.4637400    -0.1025570
  N       -0.7967020     2.4883090     0.0943390
  N        3.4069750    -0.0290830     0.0068360
  C       -0.8642630     0.0144850    -0.0118450
  C       -0.1342560    -1.1768520    -0.0236930
  C       -0.1092970     1.1902470     0.0051550
  C        1.9300990    -0.0167975     0.0996569
  C        1.2541590    -1.2264030    -0.0035910
  C        1.2788880     1.2129500     0.0017720
  C       -2.3665400     0.0542110    -0.0958220
  H        1.7835260    -2.1724740     0.0038120
  H        1.8267950     2.1485240     0.0024160
  H       -3.8857970    -0.4493820     0.8874840
units angstrom
no_reorient  #important for SAPT in psi4, default
symmetry c1  #important for SAPT in psi4, default
}

set PROPERTIES_ORIGIN ["COM"]
properties('MP2/aug-cc-pvtz', properties = ['dipole'])
--------------------------------------------------------------------------

    Molecular point group: c1
  Charge       = 0
  Multiplicity = 1
  Basis Set: AUG-CC-PVTZ
    Blend: AUG-CC-PVTZ
  Basis Set: (AUG-CC-PVTZ AUX)
    Blend: AUG-CC-PVTZ-JKFIT

    Orbital Energies [Eh]
    ---------------------

    Doubly Occupied:

       1A    -20.657843     2A    -20.652961     3A    -20.652407
       4A    -20.650452     5A    -20.650358     6A    -20.650218
       7A    -20.650008     8A    -20.596246     9A    -15.902699
      10A    -15.901768    11A    -15.900279    12A    -11.452812
      13A    -11.386431    14A    -11.385507    15A    -11.380859
      16A    -11.376450    17A    -11.356899    18A    -11.356327
      19A     -1.636656    20A     -1.634362    21A     -1.633723
      22A     -1.506374    23A     -1.436739    24A     -1.434515
      25A     -1.434270    26A     -1.405930    27A     -1.290234
      28A     -1.183658    29A     -1.181423    30A     -1.056450
      31A     -1.034986    32A     -1.027656    33A     -0.924261
      34A     -0.883791    35A     -0.871070    36A     -0.836982
      37A     -0.802416    38A     -0.789782    39A     -0.788056
      40A     -0.777751    41A     -0.765946    42A     -0.763167
      43A     -0.756963    44A     -0.753385    45A     -0.745847
      46A     -0.741585    47A     -0.715827    48A     -0.691685
      49A     -0.667613    50A     -0.645979    51A     -0.630112
      52A     -0.608084    53A     -0.555178    54A     -0.549944
      55A     -0.544200    56A     -0.540154    57A     -0.535860
      58A     -0.534140    59A     -0.522535    60A     -0.509417
      61A     -0.493771    62A     -0.492236    63A     -0.487114
      64A     -0.447467    65A     -0.445993

  @DF-RHF Final Energy: -1029.04637957904060

   => Energetics <=

    Nuclear Repulsion Energy =           1345.6670002277785443
    One-Electron Energy =               -4082.8751370702389067
    Two-Electron Energy =                1708.1617572634199860
    Total Energy =                      -1029.0463795790406039
  Basis Set: (AUG-CC-PVTZ AUX)
    Blend: AUG-CC-PVTZ-RI
    Molecular point group: c1

    Geometry (in Angstrom), charge = 0, multiplicity = 1:

       Center              X                  Y                   Z               Mass
    ------------   -----------------  -----------------  -----------------  -----------------
         O           -2.913967388618    -0.479814533253     1.012616917745    15.994914619570
         O           -2.969224388618     0.513117466747    -1.044688082255    15.994914619570
         O           -0.314073388618    -3.432671533253     0.462938917745    15.994914619570
         O           -0.260076388618     3.445244466747    -0.481373082255    15.994914619570
         O           -1.902298388618    -2.483540533253    -0.753295082255    15.994914619570
         O           -1.841811388618     2.519147466747     0.763277917745    15.994914619570
         O            3.958650611382    -1.140542533253    -0.025237082255    15.994914619570
         O            3.980856611382     1.067540466747     0.041757917745    15.994914619570
         N           -0.845024388618    -2.465425533253    -0.103774082255    14.003074004430
         N           -0.797807388618     2.486623466747     0.093121917745    14.003074004430
         N            3.405869611382    -0.030768533253     0.005618917745    14.003074004430
         C           -0.865368388618     0.012799466747    -0.013062082255    12.000000000000
         C           -0.135361388618    -1.178537533253    -0.024910082255    12.000000000000
         C           -0.110402388618     1.188561466747     0.003937917745    12.000000000000
         C            1.928993611382    -0.018483033253     0.098439817745    12.000000000000
         C            1.253053611382    -1.228088533253    -0.004808082255    12.000000000000
         C            1.277782611382     1.211264466747     0.000554917745    12.000000000000
         C           -2.367645388618     0.052525466747    -0.097039082255    12.000000000000
         H            1.782420611382    -2.174159533253     0.002594917745     1.007825032230
         H            1.825689611382     2.146838466747     0.001198917745     1.007825032230
         H           -3.886902388618    -0.451067533253     0.886266917745     1.007825032230

  Basis Set: AUG-CC-PVTZ
    Blend: AUG-CC-PVTZ
  Basis Set: (AUG-CC-PVTZ AUX)
    Blend: AUG-CC-PVTZ-JKFIT
	 Reference Energy          =   -1029.0463795790406039 [Eh]
	 Singles Energy            =      -0.0000000000000000 [Eh]
	 Same-Spin Energy          =      -1.0500501761941654 [Eh]
	 Opposite-Spin Energy      =      -2.9505160348093549 [Eh]
	 Correlation Energy        =      -4.0005662110035205 [Eh]
	 Total Energy              =   -1033.0469457900442194 [Eh]

	 ================> DF-SCS-MP2 Energies <==================
	-----------------------------------------------------------
	 SCS Same-Spin Scale       =       0.3333333333333333 [-]
	 SCS Opposite-Spin Scale   =       1.2000000000000000 [-]
	 SCS Same-Spin Energy      =      -0.3500167253980551 [Eh]
	 SCS Opposite-Spin Energy  =      -3.5406192417712257 [Eh]
	 SCS Correlation Energy    =      -3.8906359671692807 [Eh]
	 SCS Total Energy          =   -1032.9370155462099774 [Eh]
	-----------------------------------------------------------

  Dipole Moment: [D]
     X:    -0.1463      Y:    -0.6170      Z:     1.2392     Total:     1.3920

*** Psi4 exiting successfully. Buy a developer a beer!
