                               Psi4 1.3.2 release

  ==> Input File <==

--------------------------------------------------------------------------
#psi4
#
memory 32 gb

molecule  {
0 1
  O       -2.9128620    -0.4781290     1.0138340
  O       -2.9681190     0.5148030    -1.0434710
  O       -0.3129680    -3.4309860     0.4641560
  O       -0.2589710     3.4469300    -0.4801560
  O       -1.9011930    -2.4818550    -0.7520780
  O       -1.8407060     2.5208330     0.7644950
  O        3.9597560    -1.1388570    -0.0240200
  O        3.9819620     1.0692260     0.0429750
  N       -0.8439190    -2.4637400    -0.1025570
  N       -0.7967020     2.4883090     0.0943390
  N        3.4069750    -0.0290830     0.0068360
  C       -0.8643154    -0.0305452    -0.0335769
  C       -0.1342560    -1.1768520    -0.0236930
  C       -0.1092970     1.1902470     0.0051550
  C        1.9306090    -0.0137700    -0.0002960
  C        1.2541590    -1.2264030    -0.0035910
  C        1.2788880     1.2129500     0.0017720
  C       -2.3665400     0.0542110    -0.0958220
  H        1.7835260    -2.1724740     0.0038120
  H        1.8267950     2.1485240     0.0024160
  H       -3.8857970    -0.4493820     0.8874840
units angstrom
no_reorient  #important for SAPT in psi4, default
symmetry c1  #important for SAPT in psi4, default
}

set PROPERTIES_ORIGIN ["COM"]
properties('MP2/aug-cc-pvtz', properties = ['dipole'])
--------------------------------------------------------------------------

    Molecular point group: c1
  Charge       = 0
  Multiplicity = 1
  Basis Set: AUG-CC-PVTZ
    Blend: AUG-CC-PVTZ
  Basis Set: (AUG-CC-PVTZ AUX)
    Blend: AUG-CC-PVTZ-JKFIT

    Orbital Energies [Eh]
    ---------------------

    Doubly Occupied:

       1A    -20.657719     2A    -20.653249     3A    -20.652831
       4A    -20.650956     5A    -20.650337     6A    -20.649815
       7A    -20.649754     8A    -20.596129     9A    -15.902462
      10A    -15.902049    11A    -15.900446    12A    -11.452844
      13A    -11.387847    14A    -11.383940    15A    -11.380294
      16A    -11.375697    17A    -11.356854    18A    -11.354595
      19A     -1.637138    20A     -1.634815    21A     -1.633272
      22A     -1.506246    23A     -1.437159    24A     -1.434797
      25A     -1.433875    26A     -1.405827    27A     -1.290943
      28A     -1.187949    29A     -1.177988    30A     -1.056561
      31A     -1.035997    32A     -1.027966    33A     -0.924623
      34A     -0.883529    35A     -0.871428    36A     -0.837149
      37A     -0.803846    38A     -0.791094    39A     -0.787908
      40A     -0.776100    41A     -0.766262    42A     -0.762913
      43A     -0.757391    44A     -0.753666    45A     -0.745944
      46A     -0.741420    47A     -0.716590    48A     -0.690820
      49A     -0.667601    50A     -0.646302    51A     -0.628497
      52A     -0.608916    53A     -0.555444    54A     -0.549957
      55A     -0.544230    56A     -0.540373    57A     -0.536286
      58A     -0.534279    59A     -0.522578    60A     -0.509240
      61A     -0.493994    62A     -0.492565    63A     -0.486659
      64A     -0.453021    65A     -0.441230

  @DF-RHF Final Energy: -1029.04700971755938

   => Energetics <=

    Nuclear Repulsion Energy =           1345.8347087768688652
    One-Electron Energy =               -4083.2030200126991986
    Two-Electron Energy =                1708.3213015182709569
    Total Energy =                      -1029.0470097175593764
  Basis Set: (AUG-CC-PVTZ AUX)
    Blend: AUG-CC-PVTZ-RI
    Molecular point group: c1

    Geometry (in Angstrom), charge = 0, multiplicity = 1:

       Center              X                  Y                   Z               Mass
    ------------   -----------------  -----------------  -----------------  -----------------
         O           -2.913988755819    -0.477853256745     1.018298874849    15.994914619570
         O           -2.969245755819     0.515078743255    -1.039006125151    15.994914619570
         O           -0.314094755819    -3.430710256745     0.468620874849    15.994914619570
         O           -0.260097755819     3.447205743255    -0.475691125151    15.994914619570
         O           -1.902319755819    -2.481579256745    -0.747613125151    15.994914619570
         O           -1.841832755819     2.521108743255     0.768959874849    15.994914619570
         O            3.958629244181    -1.138581256745    -0.019555125151    15.994914619570
         O            3.980835244181     1.069501743255     0.047439874849    15.994914619570
         N           -0.845045755819    -2.463464256745    -0.098092125151    14.003074004430
         N           -0.797828755819     2.488584743255     0.098803874849    14.003074004430
         N            3.405848244181    -0.028807256745     0.011300874849    14.003074004430
         C           -0.865442155819    -0.030269456745    -0.029112025151    12.000000000000
         C           -0.135382755819    -1.176576256745    -0.019228125151    12.000000000000
         C           -0.110423755819     1.190522743255     0.009619874849    12.000000000000
         C            1.929482244181    -0.013494256745     0.004168874849    12.000000000000
         C            1.253032244181    -1.226127256745     0.000873874849    12.000000000000
         C            1.277761244181     1.213225743255     0.006236874849    12.000000000000
         C           -2.367666755819     0.054486743255    -0.091357125151    12.000000000000
         H            1.782399244181    -2.172198256745     0.008276874849     1.007825032230
         H            1.825668244181     2.148799743255     0.006880874849     1.007825032230
         H           -3.886923755819    -0.449106256745     0.891948874849     1.007825032230

  Basis Set: AUG-CC-PVTZ
    Blend: AUG-CC-PVTZ
  Basis Set: (AUG-CC-PVTZ AUX)
    Blend: AUG-CC-PVTZ-JKFIT
	 Reference Energy          =   -1029.0470097175593764 [Eh]
	 Singles Energy            =      -0.0000000000000000 [Eh]
	 Same-Spin Energy          =      -1.0498994386657019 [Eh]
	 Opposite-Spin Energy      =      -2.9504014160850405 [Eh]
	 Correlation Energy        =      -4.0003008547507424 [Eh]
	 Total Energy              =   -1033.0473105723101526 [Eh]

	 ================> DF-SCS-MP2 Energies <==================
	-----------------------------------------------------------
	 SCS Same-Spin Scale       =       0.3333333333333333 [-]
	 SCS Opposite-Spin Scale   =       1.2000000000000000 [-]
	 SCS Same-Spin Energy      =      -0.3499664795552340 [Eh]
	 SCS Opposite-Spin Energy  =      -3.5404816993020485 [Eh]
	 SCS Correlation Energy    =      -3.8904481788572824 [Eh]
	 SCS Total Energy          =   -1032.9374578964166176 [Eh]
	-----------------------------------------------------------

  Dipole Moment: [D]
     X:    -0.1410      Y:    -0.5862      Z:     1.1853     Total:     1.3298

*** Psi4 exiting successfully. Buy a developer a beer!
