                               Psi4 1.3.2 release

  ==> Input File <==

--------------------------------------------------------------------------
#psi4
#
memory 32 gb

molecule  {
0 1
  O       -2.9128620    -0.4781290     1.0138340
  O       -2.9681190     0.5148030    -1.0434710
  O       -0.3129680    -3.4309860     0.4641560
  O       -0.2589710     3.4469300    -0.4801560
  O       -1.9011930    -2.4818550    -0.7520780
  O       -1.8407060     2.5208330     0.7644950
  O        3.9597560    -1.1388570    -0.0240200
  O        3.9819620     1.0692260     0.0429750
  N       -0.8439190    -2.4637400    -0.1025570
  N       -0.7967020     2.4883090     0.0943390
  N        3.4069750    -0.0290830     0.0068360
  C       -0.8642630     0.0144850    -0.0118450
  C       -0.1342560    -1.1768520    -0.0236930
  C       -0.1092970     1.1902470     0.0051550
  C        1.9295889    -0.0198250     0.1996097
  C        1.2541590    -1.2264030    -0.0035910
  C        1.2788880     1.2129500     0.0017720
  C       -2.3665400     0.0542110    -0.0958220
  H        1.7835260    -2.1724740     0.0038120
  H        1.8267950     2.1485240     0.0024160
  H       -3.8857970    -0.4493820     0.8874840
units angstrom
no_reorient  #important for SAPT in psi4, default
symmetry c1  #important for SAPT in psi4, default
}

set PROPERTIES_ORIGIN ["COM"]
properties('MP2/aug-cc-pvtz', properties = ['dipole'])
--------------------------------------------------------------------------

    Molecular point group: c1
  Charge       = 0
  Multiplicity = 1
  Basis Set: AUG-CC-PVTZ
    Blend: AUG-CC-PVTZ
  Basis Set: (AUG-CC-PVTZ AUX)
    Blend: AUG-CC-PVTZ-JKFIT

    Orbital Energies [Eh]
    ---------------------

    Doubly Occupied:

       1A    -20.658264     2A    -20.653127     3A    -20.652215
       4A    -20.650362     5A    -20.649816     6A    -20.649682
       7A    -20.649566     8A    -20.596793     9A    -15.902567
      10A    -15.900811    11A    -15.900443    12A    -11.453384
      13A    -11.386000    14A    -11.385366    15A    -11.382641
      16A    -11.377867    17A    -11.359585    18A    -11.358222
      19A     -1.636625    20A     -1.633831    21A     -1.632839
      22A     -1.506829    23A     -1.436725    24A     -1.434359
      25A     -1.433494    26A     -1.406407    27A     -1.289344
      28A     -1.181454    29A     -1.181291    30A     -1.056149
      31A     -1.032308    32A     -1.026095    33A     -0.924199
      34A     -0.883496    35A     -0.870867    36A     -0.836184
      37A     -0.801259    38A     -0.788970    39A     -0.787035
      40A     -0.778264    41A     -0.765882    42A     -0.763096
      43A     -0.756009    44A     -0.752311    45A     -0.745954
      46A     -0.741867    47A     -0.715218    48A     -0.692000
      49A     -0.667366    50A     -0.644851    51A     -0.630621
      52A     -0.607062    53A     -0.554613    54A     -0.549908
      55A     -0.544071    56A     -0.539701    57A     -0.535030
      58A     -0.532928    59A     -0.522816    60A     -0.509829
      61A     -0.493100    62A     -0.492194    63A     -0.487333
      64A     -0.447403    65A     -0.445204

  @DF-RHF Final Energy: -1029.03700331130472

   => Energetics <=

    Nuclear Repulsion Energy =           1345.1986173732477710
    One-Electron Energy =               -4081.9490451037677303
    Two-Electron Energy =                1707.7134244192150163
    Total Energy =                      -1029.0370033113047157
  Basis Set: (AUG-CC-PVTZ AUX)
    Blend: AUG-CC-PVTZ-RI
    Molecular point group: c1

    Geometry (in Angstrom), charge = 0, multiplicity = 1:

       Center              X                  Y                   Z               Mass
    ------------   -----------------  -----------------  -----------------  -----------------
         O           -2.913943569979    -0.479673166992     1.007949715909    15.994914619570
         O           -2.969200569979     0.513258833008    -1.049355284091    15.994914619570
         O           -0.314049569979    -3.432530166992     0.458271715909    15.994914619570
         O           -0.260052569979     3.445385833008    -0.486040284091    15.994914619570
         O           -1.902274569979    -2.483399166992    -0.757962284091    15.994914619570
         O           -1.841787569979     2.519288833008     0.758610715909    15.994914619570
         O            3.958674430021    -1.140401166992    -0.029904284091    15.994914619570
         O            3.980880430021     1.067681833008     0.037090715909    15.994914619570
         N           -0.845000569979    -2.465284166992    -0.108441284091    14.003074004430
         N           -0.797783569979     2.486764833008     0.088454715909    14.003074004430
         N            3.405893430021    -0.030627166992     0.000951715909    14.003074004430
         C           -0.865344569979     0.012940833008    -0.017729284091    12.000000000000
         C           -0.135337569979    -1.178396166992    -0.029577284091    12.000000000000
         C           -0.110378569979     1.188702833008    -0.000729284091    12.000000000000
         C            1.928507330021    -0.021369166992     0.193725415909    12.000000000000
         C            1.253077430021    -1.227947166992    -0.009475284091    12.000000000000
         C            1.277806430021     1.211405833008    -0.004112284091    12.000000000000
         C           -2.367621569979     0.052666833008    -0.101706284091    12.000000000000
         H            1.782444430021    -2.174018166992    -0.002072284091     1.007825032230
         H            1.825713430021     2.146979833008    -0.003468284091     1.007825032230
         H           -3.886878569979    -0.450926166992     0.881599715909     1.007825032230

  Basis Set: AUG-CC-PVTZ
    Blend: AUG-CC-PVTZ
  Basis Set: (AUG-CC-PVTZ AUX)
    Blend: AUG-CC-PVTZ-JKFIT
	 Reference Energy          =   -1029.0370033113047157 [Eh]
	 Singles Energy            =      -0.0000000000000000 [Eh]
	 Same-Spin Energy          =      -1.0502757007930565 [Eh]
	 Opposite-Spin Energy      =      -2.9513694345212240 [Eh]
	 Correlation Energy        =      -4.0016451353142806 [Eh]
	 Total Energy              =   -1033.0386484466189358 [Eh]

	 ================> DF-SCS-MP2 Energies <==================
	-----------------------------------------------------------
	 SCS Same-Spin Scale       =       0.3333333333333333 [-]
	 SCS Opposite-Spin Scale   =       1.2000000000000000 [-]
	 SCS Same-Spin Energy      =      -0.3500919002643522 [Eh]
	 SCS Opposite-Spin Energy  =      -3.5416433214254686 [Eh]
	 SCS Correlation Energy    =      -3.8917352216898209 [Eh]
	 SCS Total Energy          =   -1032.9287385329944300 [Eh]
	-----------------------------------------------------------

  Dipole Moment: [D]
     X:    -0.1732      Y:    -0.6164      Z:     1.2852     Total:     1.4359

*** Psi4 exiting successfully. Buy a developer a beer!
