                               Psi4 1.3.2 release

  ==> Input File <==

--------------------------------------------------------------------------
#psi4
#
memory 32 gb

molecule  {
0 1
  O       -2.9128620    -0.4781290     1.0138340
  O       -2.9681190     0.5148030    -1.0434710
  O       -0.3129680    -3.4309860     0.4641560
  O       -0.2589710     3.4469300    -0.4801560
  O       -1.9011930    -2.4818550    -0.7520780
  O       -1.8407060     2.5208330     0.7644950
  O        3.9597560    -1.1388570    -0.0240200
  O        3.9819620     1.0692260     0.0429750
  N       -0.8439190    -2.4637400    -0.1025570
  N       -0.7967020     2.4883090     0.0943390
  N        3.4069750    -0.0290830     0.0068360
  C       -0.8644727    -0.1656360    -0.0987725
  C       -0.1342560    -1.1768520    -0.0236930
  C       -0.1092970     1.1902470     0.0051550
  C        1.9306090    -0.0137700    -0.0002960
  C        1.2541590    -1.2264030    -0.0035910
  C        1.2788880     1.2129500     0.0017720
  C       -2.3665400     0.0542110    -0.0958220
  H        1.7835260    -2.1724740     0.0038120
  H        1.8267950     2.1485240     0.0024160
  H       -3.8857970    -0.4493820     0.8874840
units angstrom
no_reorient  #important for SAPT in psi4, default
symmetry c1  #important for SAPT in psi4, default
}

set PROPERTIES_ORIGIN ["COM"]
properties('MP2/aug-cc-pvtz', properties = ['dipole'])
--------------------------------------------------------------------------

    Molecular point group: c1
  Charge       = 0
  Multiplicity = 1
  Basis Set: AUG-CC-PVTZ
    Blend: AUG-CC-PVTZ
  Basis Set: (AUG-CC-PVTZ AUX)
    Blend: AUG-CC-PVTZ-JKFIT

    Orbital Energies [Eh]
    ---------------------

    Doubly Occupied:

       1A    -20.658204     2A    -20.654359     3A    -20.653137
       4A    -20.651781     5A    -20.649585     6A    -20.648761
       7A    -20.648326     8A    -20.596795     9A    -15.902023
      10A    -15.900750    11A    -15.900687    12A    -11.455477
      13A    -11.392652    14A    -11.380810    15A    -11.374215
      16A    -11.370900    17A    -11.358692    18A    -11.350977
      19A     -1.638322    20A     -1.634825    21A     -1.631823
      22A     -1.506504    23A     -1.438139    24A     -1.434790
      25A     -1.432555    26A     -1.406338    27A     -1.296283
      28A     -1.201086    29A     -1.166443    30A     -1.055676
      31A     -1.036456    32A     -1.026049    33A     -0.931958
      34A     -0.882460    35A     -0.867887    36A     -0.837147
      37A     -0.804124    38A     -0.794268    39A     -0.786793
      40A     -0.771281    41A     -0.766099    42A     -0.761490
      43A     -0.756799    44A     -0.753436    45A     -0.746185
      46A     -0.741248    47A     -0.720726    48A     -0.685530
      49A     -0.667848    50A     -0.646794    51A     -0.616341
      52A     -0.612271    53A     -0.555311    54A     -0.550020
      55A     -0.543860    56A     -0.540472    57A     -0.536066
      58A     -0.533412    59A     -0.522744    60A     -0.507800
      61A     -0.494029    62A     -0.492982    63A     -0.485667
      64A     -0.470802    65A     -0.428857

  @DF-RHF Final Energy: -1029.00846556570741

   => Energetics <=

    Nuclear Repulsion Energy =           1345.9968815421045747
    One-Electron Energy =               -4083.4784348916632553
    Two-Electron Energy =                1708.4730877838510423
    Total Energy =                      -1029.0084655657074109
  Basis Set: (AUG-CC-PVTZ AUX)
    Blend: AUG-CC-PVTZ-RI
    Molecular point group: c1

    Geometry (in Angstrom), charge = 0, multiplicity = 1:

       Center              X                  Y                   Z               Mass
    ------------   -----------------  -----------------  -----------------  -----------------
         O           -2.913981410843    -0.471545319099     1.021343121975    15.994914619570
         O           -2.969238410843     0.521386680901    -1.035961878025    15.994914619570
         O           -0.314087410843    -3.424402319099     0.471665121975    15.994914619570
         O           -0.260090410843     3.453513680901    -0.472646878025    15.994914619570
         O           -1.902312410843    -2.475271319099    -0.744568878025    15.994914619570
         O           -1.841825410843     2.527416680901     0.772004121975    15.994914619570
         O            3.958636589157    -1.132273319099    -0.016510878025    15.994914619570
         O            3.980842589157     1.075809680901     0.050484121975    15.994914619570
         N           -0.845038410843    -2.457156319099    -0.095047878025    14.003074004430
         N           -0.797821410843     2.494892680901     0.101848121975    14.003074004430
         N            3.405855589157    -0.022499319099     0.014345121975    14.003074004430
         C           -0.865592110843    -0.159052319099    -0.091263378025    12.000000000000
         C           -0.135375410843    -1.170268319099    -0.016183878025    12.000000000000
         C           -0.110416410843     1.196830680901     0.012664121975    12.000000000000
         C            1.929489589157    -0.007186319099     0.007213121975    12.000000000000
         C            1.253039589157    -1.219819319099     0.003918121975    12.000000000000
         C            1.277768589157     1.219533680901     0.009281121975    12.000000000000
         C           -2.367659410843     0.060794680901    -0.088312878025    12.000000000000
         H            1.782406589157    -2.165890319099     0.011321121975     1.007825032230
         H            1.825675589157     2.155107680901     0.009925121975     1.007825032230
         H           -3.886916410843    -0.442798319099     0.894993121975     1.007825032230

  Basis Set: AUG-CC-PVTZ
    Blend: AUG-CC-PVTZ
  Basis Set: (AUG-CC-PVTZ AUX)
    Blend: AUG-CC-PVTZ-JKFIT
	 Reference Energy          =   -1029.0084655657074109 [Eh]
	 Singles Energy            =      -0.0000000000000000 [Eh]
	 Same-Spin Energy          =      -1.0492772259165437 [Eh]
	 Opposite-Spin Energy      =      -2.9519285413163163 [Eh]
	 Correlation Energy        =      -4.0012057672328600 [Eh]
	 Total Energy              =   -1033.0096713329403428 [Eh]

	 ================> DF-SCS-MP2 Energies <==================
	-----------------------------------------------------------
	 SCS Same-Spin Scale       =       0.3333333333333333 [-]
	 SCS Opposite-Spin Scale   =       1.2000000000000000 [-]
	 SCS Same-Spin Energy      =      -0.3497590753055145 [Eh]
	 SCS Opposite-Spin Energy  =      -3.5423142495795794 [Eh]
	 SCS Correlation Energy    =      -3.8920733248850938 [Eh]
	 SCS Total Energy          =   -1032.9005388905925429 [Eh]
	-----------------------------------------------------------

  Dipole Moment: [D]
     X:    -0.2013      Y:    -0.5201      Z:     1.1632     Total:     1.2900

*** Psi4 exiting successfully. Buy a developer a beer!
