                               Psi4 1.3.2 release

  ==> Input File <==

--------------------------------------------------------------------------
#psi4
#
memory 32 gb

molecule  {
0 1
  O       -2.9128620    -0.4781290     1.0138340
  O       -2.9681190     0.5148030    -1.0434710
  O       -0.3129680    -3.4309860     0.4641560
  O       -0.2589710     3.4469300    -0.4801560
  O       -1.9011930    -2.4818550    -0.7520780
  O       -1.8407060     2.5208330     0.7644950
  O        3.9597560    -1.1388570    -0.0240200
  O        3.9819620     1.0692260     0.0429750
  N       -0.8439190    -2.4637400    -0.1025570
  N       -0.7967020     2.4883090     0.0943390
  N        3.4069750    -0.0290830     0.0068360
  C       -0.8642630     0.0144850    -0.0118450
  C       -0.1342560    -1.1768520    -0.0236930
  C       -0.1092970     1.1902470     0.0051550
  C        1.9293339    -0.0213388     0.2495861
  C        1.2541590    -1.2264030    -0.0035910
  C        1.2788880     1.2129500     0.0017720
  C       -2.3665400     0.0542110    -0.0958220
  H        1.7835260    -2.1724740     0.0038120
  H        1.8267950     2.1485240     0.0024160
  H       -3.8857970    -0.4493820     0.8874840
units angstrom
no_reorient  #important for SAPT in psi4, default
symmetry c1  #important for SAPT in psi4, default
}

set PROPERTIES_ORIGIN ["COM"]
properties('MP2/aug-cc-pvtz', properties = ['dipole'])
--------------------------------------------------------------------------

    Molecular point group: c1
  Charge       = 0
  Multiplicity = 1
  Basis Set: AUG-CC-PVTZ
    Blend: AUG-CC-PVTZ
  Basis Set: (AUG-CC-PVTZ AUX)
    Blend: AUG-CC-PVTZ-JKFIT

    Orbital Energies [Eh]
    ---------------------

    Doubly Occupied:

       1A    -20.658595     2A    -20.653220     3A    -20.652129
       4A    -20.650436     5A    -20.649726     6A    -20.649093
       7A    -20.648966     8A    -20.597219     9A    -15.902517
      10A    -15.900536    11A    -15.900043    12A    -11.453828
      13A    -11.385740    14A    -11.385242    15A    -11.383914
      16A    -11.378955    17A    -11.361438    18A    -11.359727
      19A     -1.636626    20A     -1.633855    21A     -1.631749
      22A     -1.507185    23A     -1.436736    24A     -1.434391
      25A     -1.432751    26A     -1.406779    27A     -1.288715
      28A     -1.181431    29A     -1.179553    30A     -1.056022
      31A     -1.030307    32A     -1.024990    33A     -0.924157
      34A     -0.883302    35A     -0.870720    36A     -0.835614
      37A     -0.800537    38A     -0.788406    39A     -0.786144
      40A     -0.778582    41A     -0.765874    42A     -0.763072
      43A     -0.755395    44A     -0.751438    45A     -0.746039
      46A     -0.742069    47A     -0.714785    48A     -0.692213
      49A     -0.667221    50A     -0.643902    51A     -0.631008
      52A     -0.606338    53A     -0.554270    54A     -0.549885
      55A     -0.544008    56A     -0.539365    57A     -0.534749
      58A     -0.531578    59A     -0.523039    60A     -0.510150
      61A     -0.492650    62A     -0.492135    63A     -0.487474
      64A     -0.447437    65A     -0.444595

  @DF-RHF Final Energy: -1029.02992557486141

   => Energetics <=

    Nuclear Repulsion Energy =           1344.8504640334542728
    One-Electron Energy =               -4081.2596479036146775
    Two-Electron Energy =                1707.3792582952992234
    Total Energy =                      -1029.0299255748614087
  Basis Set: (AUG-CC-PVTZ AUX)
    Blend: AUG-CC-PVTZ-RI
    Molecular point group: c1

    Geometry (in Angstrom), charge = 0, multiplicity = 1:

       Center              X                  Y                   Z               Mass
    ------------   -----------------  -----------------  -----------------  -----------------
         O           -2.913931662994    -0.479602481527     1.005616114991    15.994914619570
         O           -2.969188662994     0.513329518473    -1.051688885009    15.994914619570
         O           -0.314037662994    -3.432459481527     0.455938114991    15.994914619570
         O           -0.260040662994     3.445456518473    -0.488373885009    15.994914619570
         O           -1.902262662994    -2.483328481527    -0.760295885009    15.994914619570
         O           -1.841775662994     2.519359518473     0.756277114991    15.994914619570
         O            3.958686337006    -1.140330481527    -0.032237885009    15.994914619570
         O            3.980892337006     1.067752518473     0.034757114991    15.994914619570
         N           -0.844988662994    -2.465213481527    -0.110774885009    14.003074004430
         N           -0.797771662994     2.486835518473     0.086121114991    14.003074004430
         N            3.405905337006    -0.030556481527    -0.001381885009    14.003074004430
         C           -0.865332662994     0.013011518473    -0.020062885009    12.000000000000
         C           -0.135325662994    -1.178325481527    -0.031910885009    12.000000000000
         C           -0.110366662994     1.188773518473    -0.003062885009    12.000000000000
         C            1.928264237006    -0.022812281527     0.241368214991    12.000000000000
         C            1.253089337006    -1.227876481527    -0.011808885009    12.000000000000
         C            1.277818337006     1.211476518473    -0.006445885009    12.000000000000
         C           -2.367609662994     0.052737518473    -0.104039885009    12.000000000000
         H            1.782456337006    -2.173947481527    -0.004405885009     1.007825032230
         H            1.825725337006     2.147050518473    -0.005801885009     1.007825032230
         H           -3.886866662994    -0.450855481527     0.879266114991     1.007825032230

  Basis Set: AUG-CC-PVTZ
    Blend: AUG-CC-PVTZ
  Basis Set: (AUG-CC-PVTZ AUX)
    Blend: AUG-CC-PVTZ-JKFIT
	 Reference Energy          =   -1029.0299255748614087 [Eh]
	 Singles Energy            =      -0.0000000000000000 [Eh]
	 Same-Spin Energy          =      -1.0504468330766457 [Eh]
	 Opposite-Spin Energy      =      -2.9520926156338678 [Eh]
	 Correlation Energy        =      -4.0025394487105137 [Eh]
	 Total Energy              =   -1033.0324650235718309 [Eh]

	 ================> DF-SCS-MP2 Energies <==================
	-----------------------------------------------------------
	 SCS Same-Spin Scale       =       0.3333333333333333 [-]
	 SCS Opposite-Spin Scale   =       1.2000000000000000 [-]
	 SCS Same-Spin Energy      =      -0.3501489443588819 [Eh]
	 SCS Opposite-Spin Energy  =      -3.5425111387606414 [Eh]
	 SCS Correlation Energy    =      -3.8926600831195231 [Eh]
	 SCS Total Energy          =   -1032.9225856579810170 [Eh]
	-----------------------------------------------------------

  Dipole Moment: [D]
     X:    -0.1932      Y:    -0.6162      Z:     1.3068     Total:     1.4576

*** Psi4 exiting successfully. Buy a developer a beer!
