                               Psi4 1.3.2 release

  ==> Input File <==

--------------------------------------------------------------------------
#psi4
#
memory 32 gb

molecule  {
0 1
  O       -2.9128620    -0.4781290     1.0138340
  O       -2.9681190     0.5148030    -1.0434710
  O       -0.3129680    -3.4309860     0.4641560
  O       -0.2589710     3.4469300    -0.4801560
  O       -1.9011930    -2.4818550    -0.7520780
  O       -1.8407060     2.5208330     0.7644950
  O        3.9597560    -1.1388570    -0.0240200
  O        3.9819620     1.0692260     0.0429750
  N       -0.8439190    -2.4637400    -0.1025570
  N       -0.7967020     2.4883090     0.0943390
  N        3.4069750    -0.0290830     0.0068360
  C       -0.8642630     0.0144850    -0.0118450
  C       -0.1342560    -1.1768520    -0.0236930
  C       -0.1092970     1.1902470     0.0051550
  C        1.9298439    -0.0183113     0.1496333
  C        1.2541590    -1.2264030    -0.0035910
  C        1.2788880     1.2129500     0.0017720
  C       -2.3665400     0.0542110    -0.0958220
  H        1.7835260    -2.1724740     0.0038120
  H        1.8267950     2.1485240     0.0024160
  H       -3.8857970    -0.4493820     0.8874840
units angstrom
no_reorient  #important for SAPT in psi4, default
symmetry c1  #important for SAPT in psi4, default
}

set PROPERTIES_ORIGIN ["COM"]
properties('MP2/aug-cc-pvtz', properties = ['dipole'])
--------------------------------------------------------------------------

    Molecular point group: c1
  Charge       = 0
  Multiplicity = 1
  Basis Set: AUG-CC-PVTZ
    Blend: AUG-CC-PVTZ
  Basis Set: (AUG-CC-PVTZ AUX)
    Blend: AUG-CC-PVTZ-JKFIT

    Orbital Energies [Eh]
    ---------------------

    Doubly Occupied:

       1A    -20.658015     2A    -20.653042     3A    -20.652310
       4A    -20.650290     5A    -20.650134     6A    -20.650029
       7A    -20.649911     8A    -20.596471     9A    -15.902629
      10A    -15.901379    11A    -15.900359    12A    -11.453047
      13A    -11.386234    14A    -11.385458    15A    -11.381612
      16A    -11.377035    17A    -11.358064    18A    -11.357082
      19A     -1.636637    20A     -1.633899    21A     -1.633600
      22A     -1.506560    23A     -1.436728    24A     -1.434349
      25A     -1.434051    26A     -1.406126    27A     -1.289857
      28A     -1.182691    29A     -1.181419    30A     -1.056303
      31A     -1.033872    32A     -1.026993    33A     -0.924235
      34A     -0.883665    35A     -0.870982    36A     -0.836645
      37A     -0.801905    38A     -0.789431    39A     -0.787661
      40A     -0.777981    41A     -0.765908    42A     -0.763128
      43A     -0.756541    44A     -0.752958    45A     -0.745889
      46A     -0.741704    47A     -0.715571    48A     -0.691824
      49A     -0.667503    50A     -0.645528    51A     -0.630324
      52A     -0.607649    53A     -0.554926    54A     -0.549929
      55A     -0.544138    56A     -0.539963    57A     -0.535426
      58A     -0.533746    59A     -0.522650    60A     -0.509587
      61A     -0.493488    62A     -0.492212    63A     -0.487214
      64A     -0.447410    65A     -0.445683

  @DF-RHF Final Energy: -1029.04248527491382

   => Energetics <=

    Nuclear Repulsion Energy =           1345.4715396461588170
    One-Electron Energy =               -4082.4888718345232519
    Two-Electron Energy =                1707.9748469134506195
    Total Energy =                      -1029.0424852749138154
  Basis Set: (AUG-CC-PVTZ AUX)
    Blend: AUG-CC-PVTZ-RI
    Molecular point group: c1

    Geometry (in Angstrom), charge = 0, multiplicity = 1:

       Center              X                  Y                   Z               Mass
    ------------   -----------------  -----------------  -----------------  -----------------
         O           -2.913955476963    -0.479743847788     1.010283316827    15.994914619570
         O           -2.969212476963     0.513188152212    -1.047021683173    15.994914619570
         O           -0.314061476963    -3.432600847788     0.460605316827    15.994914619570
         O           -0.260064476963     3.445315152212    -0.483706683173    15.994914619570
         O           -1.902286476963    -2.483469847788    -0.755628683173    15.994914619570
         O           -1.841799476963     2.519218152212     0.760944316827    15.994914619570
         O            3.958662523037    -1.140471847788    -0.027570683173    15.994914619570
         O            3.980868523037     1.067611152212     0.039424316827    15.994914619570
         N           -0.845012476963    -2.465354847788    -0.106107683173    14.003074004430
         N           -0.797795476963     2.486694152212     0.090788316827    14.003074004430
         N            3.405881523037    -0.030697847788     0.003285316827    14.003074004430
         C           -0.865356476963     0.012870152212    -0.015395683173    12.000000000000
         C           -0.135349476963    -1.178466847788    -0.027243683173    12.000000000000
         C           -0.110390476963     1.188632152212     0.001604316827    12.000000000000
         C            1.928750423037    -0.019926147788     0.146082616827    12.000000000000
         C            1.253065523037    -1.228017847788    -0.007141683173    12.000000000000
         C            1.277794523037     1.211335152212    -0.001778683173    12.000000000000
         C           -2.367633476963     0.052596152212    -0.099372683173    12.000000000000
         H            1.782432523037    -2.174088847788     0.000261316827     1.007825032230
         H            1.825701523037     2.146909152212    -0.001134683173     1.007825032230
         H           -3.886890476963    -0.450996847788     0.883933316827     1.007825032230

  Basis Set: AUG-CC-PVTZ
    Blend: AUG-CC-PVTZ
  Basis Set: (AUG-CC-PVTZ AUX)
    Blend: AUG-CC-PVTZ-JKFIT
	 Reference Energy          =   -1029.0424852749138154 [Eh]
	 Singles Energy            =      -0.0000000000000000 [Eh]
	 Same-Spin Energy          =      -1.0501428637941765 [Eh]
	 Opposite-Spin Energy      =      -2.9508476540208073 [Eh]
	 Correlation Energy        =      -4.0009905178149836 [Eh]
	 Total Energy              =   -1033.0434757927287137 [Eh]

	 ================> DF-SCS-MP2 Energies <==================
	-----------------------------------------------------------
	 SCS Same-Spin Scale       =       0.3333333333333333 [-]
	 SCS Opposite-Spin Scale   =       1.2000000000000000 [-]
	 SCS Same-Spin Energy      =      -0.3500476212647255 [Eh]
	 SCS Opposite-Spin Energy  =      -3.5410171848249687 [Eh]
	 SCS Correlation Energy    =      -3.8910648060896942 [Eh]
	 SCS Total Energy          =   -1032.9335500810034318 [Eh]
	-----------------------------------------------------------

  Dipole Moment: [D]
     X:    -0.1575      Y:    -0.6167      Z:     1.2627     Total:     1.4140

*** Psi4 exiting successfully. Buy a developer a beer!
