                               Psi4 1.3.2 release

  ==> Input File <==

--------------------------------------------------------------------------
#psi4
#
memory 32 gb

molecule  {
0 1
  C        0.0000200     0.0000170     0.0000030
  C        1.0323080     1.1005010     0.2511920
  H        1.7036961     1.1574414    -0.6126328
  H        0.5407810     2.0585400     0.4530930
  H        1.6631030     0.8551880     1.1126530
  C       -0.8616050     0.3749750    -1.2070170
  H       -1.6102970    -0.3991140    -1.4081060
  H       -1.3889910     1.3191910    -1.0323370
  H       -0.2457010     0.4921210    -2.1054290
  C       -0.8907450    -0.1548370     1.2338820
  H       -1.6401910    -0.9387090     1.0787540
  H       -1.4184290     0.7795360     1.4545320
  H       -0.2961040    -0.4240080     2.1137440
  C        0.7200310    -1.3206420    -0.2780570
  H        1.3451780    -1.6115710     0.5732660
  H        0.0009600    -2.1265660    -0.4614120
  H        1.3656220    -1.2356900    -1.1590760
units angstrom
no_reorient  #important for SAPT in psi4, default
symmetry c1  #important for SAPT in psi4, default
}

set PROPERTIES_ORIGIN ["COM"]
properties('MP2/aug-cc-pvtz', properties = ['dipole'])
--------------------------------------------------------------------------

    Molecular point group: c1
  Charge       = 0
  Multiplicity = 1
  Basis Set: AUG-CC-PVTZ
    Blend: AUG-CC-PVTZ
  Basis Set: (AUG-CC-PVTZ AUX)
    Blend: AUG-CC-PVTZ-JKFIT

    Orbital Energies [Eh]
    ---------------------

    Doubly Occupied:

       1A    -11.228247     2A    -11.207937     3A    -11.207890
       4A    -11.207737     5A    -11.207484     6A     -1.104783
       7A     -0.927410     8A     -0.926902     9A     -0.926725
      10A     -0.728249    11A     -0.612628    12A     -0.610316
      13A     -0.608534    14A     -0.553781    15A     -0.550019
      16A     -0.510868    17A     -0.508215    18A     -0.506030
      19A     -0.452939    20A     -0.452090    21A     -0.450054

  @DF-RHF Final Energy:  -196.40339836236285

   => Energetics <=

    Nuclear Repulsion Energy =            198.8844036202955863
    One-Electron Energy =                -657.5979262603500501
    Two-Electron Energy =                 262.3101242776916138
    Total Energy =                       -196.4033983623628501
  Basis Set: (AUG-CC-PVTZ AUX)
    Blend: AUG-CC-PVTZ-RI
    Molecular point group: c1

    Geometry (in Angstrom), charge = 0, multiplicity = 1:

       Center              X                  Y                   Z               Mass
    ------------   -----------------  -----------------  -----------------  -----------------
         C           -0.000255871920     0.001044116575    -0.000096042501    12.000000000000
         C            1.032032128080     1.101528116575     0.251092957499    12.000000000000
         H            1.703420228080     1.158468516575    -0.612731842501     1.007825032230
         H            0.540505128080     2.059567116575     0.452993957499     1.007825032230
         H            1.662827128080     0.856215116575     1.112553957499     1.007825032230
         C           -0.861880871920     0.376002116575    -1.207116042501    12.000000000000
         H           -1.610572871920    -0.398086883425    -1.408205042501     1.007825032230
         H           -1.389266871920     1.320218116575    -1.032436042501     1.007825032230
         H           -0.245976871920     0.493148116575    -2.105528042501     1.007825032230
         C           -0.891020871920    -0.153809883425     1.233782957499    12.000000000000
         H           -1.640466871920    -0.937681883425     1.078654957499     1.007825032230
         H           -1.418704871920     0.780563116575     1.454432957499     1.007825032230
         H           -0.296379871920    -0.422980883425     2.113644957499     1.007825032230
         C            0.719755128080    -1.319614883425    -0.278156042501    12.000000000000
         H            1.344902128080    -1.610543883425     0.573166957499     1.007825032230
         H            0.000684128080    -2.125538883425    -0.461511042501     1.007825032230
         H            1.365346128080    -1.234662883425    -1.159175042501     1.007825032230

  Basis Set: AUG-CC-PVTZ
    Blend: AUG-CC-PVTZ
  Basis Set: (AUG-CC-PVTZ AUX)
    Blend: AUG-CC-PVTZ-JKFIT
	 Reference Energy          =    -196.4033983623628501 [Eh]
	 Singles Energy            =      -0.0000000000000000 [Eh]
	 Same-Spin Energy          =      -0.2116783708502833 [Eh]
	 Opposite-Spin Energy      =      -0.7982146586915991 [Eh]
	 Correlation Energy        =      -1.0098930295418824 [Eh]
	 Total Energy              =    -197.4132913919047212 [Eh]

	 ================> DF-SCS-MP2 Energies <==================
	-----------------------------------------------------------
	 SCS Same-Spin Scale       =       0.3333333333333333 [-]
	 SCS Opposite-Spin Scale   =       1.2000000000000000 [-]
	 SCS Same-Spin Energy      =      -0.0705594569500944 [Eh]
	 SCS Opposite-Spin Energy  =      -0.9578575904299189 [Eh]
	 SCS Correlation Energy    =      -1.0284170473800134 [Eh]
	 SCS Total Energy          =    -197.4318154097428533 [Eh]
	-----------------------------------------------------------

  Dipole Moment: [D]
     X:     0.0045      Y:    -0.0183      Z:     0.0088     Total:     0.0208

*** Psi4 exiting successfully. Buy a developer a beer!
