                               Psi4 1.3.2 release

  ==> Input File <==

--------------------------------------------------------------------------
#psi4
#
memory 32 gb

molecule  {
0 1
  C        0.0000200     0.0000170     0.0000030
  C        1.0323080     1.1005010     0.2511920
  H        1.6942573     1.1942743    -0.6166946
  H        0.5407810     2.0585400     0.4530930
  H        1.6631030     0.8551880     1.1126530
  C       -0.8616050     0.3749750    -1.2070170
  H       -1.6102970    -0.3991140    -1.4081060
  H       -1.3889910     1.3191910    -1.0323370
  H       -0.2457010     0.4921210    -2.1054290
  C       -0.8907450    -0.1548370     1.2338820
  H       -1.6401910    -0.9387090     1.0787540
  H       -1.4184290     0.7795360     1.4545320
  H       -0.2961040    -0.4240080     2.1137440
  C        0.7200310    -1.3206420    -0.2780570
  H        1.3451780    -1.6115710     0.5732660
  H        0.0009600    -2.1265660    -0.4614120
  H        1.3656220    -1.2356900    -1.1590760
units angstrom
no_reorient  #important for SAPT in psi4, default
symmetry c1  #important for SAPT in psi4, default
}

set PROPERTIES_ORIGIN ["COM"]
properties('MP2/aug-cc-pvtz', properties = ['dipole'])
--------------------------------------------------------------------------

    Molecular point group: c1
  Charge       = 0
  Multiplicity = 1
  Basis Set: AUG-CC-PVTZ
    Blend: AUG-CC-PVTZ
  Basis Set: (AUG-CC-PVTZ AUX)
    Blend: AUG-CC-PVTZ-JKFIT

    Orbital Energies [Eh]
    ---------------------

    Doubly Occupied:

       1A    -11.228456     2A    -11.207853     3A    -11.207828
       4A    -11.207751     5A    -11.207630     6A     -1.104671
       7A     -0.927198     8A     -0.926954     9A     -0.926855
      10A     -0.728601    11A     -0.611398    12A     -0.610275
      13A     -0.609368    14A     -0.552624    15A     -0.550748
      16A     -0.509594    17A     -0.508200    18A     -0.507127
      19A     -0.452559    20A     -0.452110    21A     -0.451134

  @DF-RHF Final Energy:  -196.40385817356497

   => Energetics <=

    Nuclear Repulsion Energy =            198.8539042280169156
    One-Electron Energy =                -657.5376545601212683
    Two-Electron Energy =                 262.2798921585393828
    Total Energy =                       -196.4038581735649700
  Basis Set: (AUG-CC-PVTZ AUX)
    Blend: AUG-CC-PVTZ-RI
    Molecular point group: c1

    Geometry (in Angstrom), charge = 0, multiplicity = 1:

       Center              X                  Y                   Z               Mass
    ------------   -----------------  -----------------  -----------------  -----------------
         C           -0.000123923740     0.000529217001    -0.000039261224    12.000000000000
         C            1.032164076260     1.101013217001     0.251149738776    12.000000000000
         H            1.694113376260     1.194786517001    -0.616736861224     1.007825032230
         H            0.540637076260     2.059052217001     0.453050738776     1.007825032230
         H            1.662959076260     0.855700217001     1.112610738776     1.007825032230
         C           -0.861748923740     0.375487217001    -1.207059261224    12.000000000000
         H           -1.610440923740    -0.398601782999    -1.408148261224     1.007825032230
         H           -1.389134923740     1.319703217001    -1.032379261224     1.007825032230
         H           -0.245844923740     0.492633217001    -2.105471261224     1.007825032230
         C           -0.890888923740    -0.154324782999     1.233839738776    12.000000000000
         H           -1.640334923740    -0.938196782999     1.078711738776     1.007825032230
         H           -1.418572923740     0.780048217001     1.454489738776     1.007825032230
         H           -0.296247923740    -0.423495782999     2.113701738776     1.007825032230
         C            0.719887076260    -1.320129782999    -0.278099261224    12.000000000000
         H            1.345034076260    -1.611058782999     0.573223738776     1.007825032230
         H            0.000816076260    -2.126053782999    -0.461454261224     1.007825032230
         H            1.365478076260    -1.235177782999    -1.159118261224     1.007825032230

  Basis Set: AUG-CC-PVTZ
    Blend: AUG-CC-PVTZ
  Basis Set: (AUG-CC-PVTZ AUX)
    Blend: AUG-CC-PVTZ-JKFIT
	 Reference Energy          =    -196.4038581735649700 [Eh]
	 Singles Energy            =      -0.0000000000000000 [Eh]
	 Same-Spin Energy          =      -0.2116373066274682 [Eh]
	 Opposite-Spin Energy      =      -0.7981469058768169 [Eh]
	 Correlation Energy        =      -1.0097842125042851 [Eh]
	 Total Energy              =    -197.4136423860692560 [Eh]

	 ================> DF-SCS-MP2 Energies <==================
	-----------------------------------------------------------
	 SCS Same-Spin Scale       =       0.3333333333333333 [-]
	 SCS Opposite-Spin Scale   =       1.2000000000000000 [-]
	 SCS Same-Spin Energy      =      -0.0705457688758227 [Eh]
	 SCS Opposite-Spin Energy  =      -0.9577762870521802 [Eh]
	 SCS Correlation Energy    =      -1.0283220559280029 [Eh]
	 SCS Total Energy          =    -197.4321802294929853 [Eh]
	-----------------------------------------------------------

  Dipole Moment: [D]
     X:     0.0026      Y:    -0.0092      Z:     0.0042     Total:     0.0105

*** Psi4 exiting successfully. Buy a developer a beer!
