                               Psi4 1.3.2 release

  ==> Input File <==

--------------------------------------------------------------------------
#psi4
#
memory 32 gb

molecule  {
0 1
  C        0.0000200     0.0000170     0.0000030
  C        1.0323080     1.1005010     0.2511920
  H        1.6245247     1.2190817    -0.5402044
  H        0.5407810     2.0585400     0.4530930
  H        1.6631030     0.8551880     1.1126530
  C       -0.8616050     0.3749750    -1.2070170
  H       -1.6102970    -0.3991140    -1.4081060
  H       -1.3889910     1.3191910    -1.0323370
  H       -0.2457010     0.4921210    -2.1054290
  C       -0.8907450    -0.1548370     1.2338820
  H       -1.6401910    -0.9387090     1.0787540
  H       -1.4184290     0.7795360     1.4545320
  H       -0.2961040    -0.4240080     2.1137440
  C        0.7200310    -1.3206420    -0.2780570
  H        1.3451780    -1.6115710     0.5732660
  H        0.0009600    -2.1265660    -0.4614120
  H        1.3656220    -1.2356900    -1.1590760
units angstrom
no_reorient  #important for SAPT in psi4, default
symmetry c1  #important for SAPT in psi4, default
}

set PROPERTIES_ORIGIN ["COM"]
properties('MP2/aug-cc-pvtz', properties = ['dipole'])
--------------------------------------------------------------------------

    Molecular point group: c1
  Charge       = 0
  Multiplicity = 1
  Basis Set: AUG-CC-PVTZ
    Blend: AUG-CC-PVTZ
  Basis Set: (AUG-CC-PVTZ AUX)
    Blend: AUG-CC-PVTZ-JKFIT

    Orbital Energies [Eh]
    ---------------------

    Doubly Occupied:

       1A    -11.227689     2A    -11.207730     3A    -11.207710
       4A    -11.206728     5A    -11.195031     6A     -1.105345
       7A     -0.937049     8A     -0.926930     9A     -0.926392
      10A     -0.731124    11A     -0.617512    12A     -0.609752
      13A     -0.609444    14A     -0.556865    15A     -0.550970
      16A     -0.514848    17A     -0.507919    18A     -0.507503
      19A     -0.453317    20A     -0.451679    21A     -0.451094

  @DF-RHF Final Energy:  -196.39806132581600

   => Energetics <=

    Nuclear Repulsion Energy =            199.2729799504725747
    One-Electron Energy =                -658.3368177034212749
    Two-Electron Energy =                 262.6657764271326982
    Total Energy =                       -196.3980613258160020
  Basis Set: (AUG-CC-PVTZ AUX)
    Blend: AUG-CC-PVTZ-RI
    Molecular point group: c1

    Geometry (in Angstrom), charge = 0, multiplicity = 1:

       Center              X                  Y                   Z               Mass
    ------------   -----------------  -----------------  -----------------  -----------------
         C            0.000850891875     0.000182425961    -0.001108543617    12.000000000000
         C            1.033138891875     1.100666425961     0.250080456383    12.000000000000
         H            1.625355591875     1.219247125961    -0.541315943617     1.007825032230
         H            0.541611891875     2.058705425961     0.451981456383     1.007825032230
         H            1.663933891875     0.855353425961     1.111541456383     1.007825032230
         C           -0.860774108125     0.375140425961    -1.208128543617    12.000000000000
         H           -1.609466108125    -0.398948574039    -1.409217543617     1.007825032230
         H           -1.388160108125     1.319356425961    -1.033448543617     1.007825032230
         H           -0.244870108125     0.492286425961    -2.106540543617     1.007825032230
         C           -0.889914108125    -0.154671574039     1.232770456383    12.000000000000
         H           -1.639360108125    -0.938543574039     1.077642456383     1.007825032230
         H           -1.417598108125     0.779701425961     1.453420456383     1.007825032230
         H           -0.295273108125    -0.423842574039     2.112632456383     1.007825032230
         C            0.720861891875    -1.320476574039    -0.279168543617    12.000000000000
         H            1.346008891875    -1.611405574039     0.572154456383     1.007825032230
         H            0.001790891875    -2.126400574039    -0.462523543617     1.007825032230
         H            1.366452891875    -1.235524574039    -1.160187543617     1.007825032230

  Basis Set: AUG-CC-PVTZ
    Blend: AUG-CC-PVTZ
  Basis Set: (AUG-CC-PVTZ AUX)
    Blend: AUG-CC-PVTZ-JKFIT
	 Reference Energy          =    -196.3980613258160020 [Eh]
	 Singles Energy            =      -0.0000000000000000 [Eh]
	 Same-Spin Energy          =      -0.2116120247511434 [Eh]
	 Opposite-Spin Energy      =      -0.7975873840020213 [Eh]
	 Correlation Energy        =      -1.0091994087531648 [Eh]
	 Total Energy              =    -197.4072607345691779 [Eh]

	 ================> DF-SCS-MP2 Energies <==================
	-----------------------------------------------------------
	 SCS Same-Spin Scale       =       0.3333333333333333 [-]
	 SCS Opposite-Spin Scale   =       1.2000000000000000 [-]
	 SCS Same-Spin Energy      =      -0.0705373415837145 [Eh]
	 SCS Opposite-Spin Energy  =      -0.9571048608024255 [Eh]
	 SCS Correlation Energy    =      -1.0276422023861400 [Eh]
	 SCS Total Energy          =    -197.4257035282021491 [Eh]
	-----------------------------------------------------------

  Dipole Moment: [D]
     X:     0.0482      Y:     0.0205      Z:    -0.0446     Total:     0.0688

*** Psi4 exiting successfully. Buy a developer a beer!
