                               Psi4 1.3.2 release

  ==> Input File <==

--------------------------------------------------------------------------
#psi4
#
memory 32 gb

molecule  {
0 1
  C        0.0000200     0.0000170     0.0000030
  C        0.9692794     1.1767163     0.1252804
  H        1.6840120     1.2309930    -0.6196990
  H        0.5407810     2.0585400     0.4530930
  H        1.6631030     0.8551880     1.1126530
  C       -0.8616050     0.3749750    -1.2070170
  H       -1.6102970    -0.3991140    -1.4081060
  H       -1.3889910     1.3191910    -1.0323370
  H       -0.2457010     0.4921210    -2.1054290
  C       -0.8907450    -0.1548370     1.2338820
  H       -1.6401910    -0.9387090     1.0787540
  H       -1.4184290     0.7795360     1.4545320
  H       -0.2961040    -0.4240080     2.1137440
  C        0.7200310    -1.3206420    -0.2780570
  H        1.3451780    -1.6115710     0.5732660
  H        0.0009600    -2.1265660    -0.4614120
  H        1.3656220    -1.2356900    -1.1590760
units angstrom
no_reorient  #important for SAPT in psi4, default
symmetry c1  #important for SAPT in psi4, default
}

set PROPERTIES_ORIGIN ["COM"]
properties('MP2/aug-cc-pvtz', properties = ['dipole'])
--------------------------------------------------------------------------

    Molecular point group: c1
  Charge       = 0
  Multiplicity = 1
  Basis Set: AUG-CC-PVTZ
    Blend: AUG-CC-PVTZ
  Basis Set: (AUG-CC-PVTZ AUX)
    Blend: AUG-CC-PVTZ-JKFIT

    Orbital Energies [Eh]
    ---------------------

    Doubly Occupied:

       1A    -11.230613     2A    -11.212335     3A    -11.209656
       4A    -11.209637     5A    -11.206227     6A     -1.106155
       7A     -0.934421     8A     -0.928138     9A     -0.922730
      10A     -0.731973    11A     -0.626694    12A     -0.613249
      13A     -0.602009    14A     -0.562379    15A     -0.545220
      16A     -0.523371    17A     -0.508828    18A     -0.486982
      19A     -0.464391    20A     -0.457198    21A     -0.424831

  @DF-RHF Final Energy:  -196.38045599219751

   => Energetics <=

    Nuclear Repulsion Energy =            198.8715636762240138
    One-Electron Energy =                -657.4899673860508074
    Two-Electron Energy =                 262.2379477176293108
    Total Energy =                       -196.3804559921974828
  Basis Set: (AUG-CC-PVTZ AUX)
    Blend: AUG-CC-PVTZ-RI
    Molecular point group: c1

    Geometry (in Angstrom), charge = 0, multiplicity = 1:

       Center              X                  Y                   Z               Mass
    ------------   -----------------  -----------------  -----------------  -----------------
         C            0.010510383264    -0.012670091400     0.020960672215    12.000000000000
         C            0.979769783264     1.164029208600     0.146238072215    12.000000000000
         H            1.694502383264     1.218305908600    -0.598741327785     1.007825032230
         H            0.551271383264     2.045852908600     0.474050672215     1.007825032230
         H            1.673593383264     0.842500908600     1.133610672215     1.007825032230
         C           -0.851114616736     0.362287908600    -1.186059327785    12.000000000000
         H           -1.599806616736    -0.411801091400    -1.387148327785     1.007825032230
         H           -1.378500616736     1.306503908600    -1.011379327785     1.007825032230
         H           -0.235210616736     0.479433908600    -2.084471327785     1.007825032230
         C           -0.880254616736    -0.167524091400     1.254839672215    12.000000000000
         H           -1.629700616736    -0.951396091400     1.099711672215     1.007825032230
         H           -1.407938616736     0.766848908600     1.475489672215     1.007825032230
         H           -0.285613616736    -0.436695091400     2.134701672215     1.007825032230
         C            0.730521383264    -1.333329091400    -0.257099327785    12.000000000000
         H            1.355668383264    -1.624258091400     0.594223672215     1.007825032230
         H            0.011450383264    -2.139253091400    -0.440454327785     1.007825032230
         H            1.376112383264    -1.248377091400    -1.138118327785     1.007825032230

  Basis Set: AUG-CC-PVTZ
    Blend: AUG-CC-PVTZ
  Basis Set: (AUG-CC-PVTZ AUX)
    Blend: AUG-CC-PVTZ-JKFIT
	 Reference Energy          =    -196.3804559921975113 [Eh]
	 Singles Energy            =      -0.0000000000000000 [Eh]
	 Same-Spin Energy          =      -0.2120703396553304 [Eh]
	 Opposite-Spin Energy      =      -0.7994234356571543 [Eh]
	 Correlation Energy        =      -1.0114937753124846 [Eh]
	 Total Energy              =    -197.3919497675099990 [Eh]

	 ================> DF-SCS-MP2 Energies <==================
	-----------------------------------------------------------
	 SCS Same-Spin Scale       =       0.3333333333333333 [-]
	 SCS Opposite-Spin Scale   =       1.2000000000000000 [-]
	 SCS Same-Spin Energy      =      -0.0706901132184435 [Eh]
	 SCS Opposite-Spin Energy  =      -0.9593081227885851 [Eh]
	 SCS Correlation Energy    =      -1.0299982360070286 [Eh]
	 SCS Total Energy          =    -197.4104542282045429 [Eh]
	-----------------------------------------------------------

  Dipole Moment: [D]
     X:    -0.0598      Y:     0.0005      Z:    -0.0642     Total:     0.0877

*** Psi4 exiting successfully. Buy a developer a beer!
