                               Psi4 1.4a3.dev225

  ==> Input File <==

--------------------------------------------------------------------------
#psi4
#
memory 32 gb

molecule  {
0 1
  C        0.0000000     0.0000000     0.0000010
  C        0.3472150     0.0817990     1.4875160
  H        1.0353963     0.9362971     1.6890818
  H       -0.5552030     0.2238040     2.0922020
  H        0.8398860    -0.8366930     1.8248780
  C       -0.6850330     1.2964610    -0.4357480
  H       -0.9443620     1.2629370    -1.4996040
  H       -1.6069860     1.4613930     0.1325540
  H       -0.0287410     2.1586270    -0.2741370
  C       -0.9430840    -1.1803730    -0.2393110
  H       -1.2073380    -1.2607230    -1.2994430
  H       -1.8698920    -1.0622760     0.3327440
  H       -0.4747760    -2.1227260     0.0653640
  C        1.2809020    -0.1978880    -0.8124580
  H        1.7912680    -1.1216440    -0.5185760
  H        1.0587200    -0.2597050    -1.8834300
  H        1.9743670     0.6360310    -0.6580170
units angstrom
no_reorient  #important for SAPT in psi4, default
symmetry c1  #important for SAPT in psi4, default
}

set PROPERTIES_ORIGIN ["COM"]
properties('MP2/aug-cc-pvtz', properties = ['dipole'])
--------------------------------------------------------------------------

    Molecular point group: c1
  Charge       = 0
  Multiplicity = 1
  Basis Set: AUG-CC-PVTZ
    Blend: AUG-CC-PVTZ
  Basis Set: (AUG-CC-PVTZ AUX)
    Blend: AUG-CC-PVTZ-JKFIT

    Orbital Energies [Eh]
    ---------------------

    Doubly Occupied:

       1A    -11.228932     2A    -11.210261     3A    -11.208008
       4A    -11.207796     5A    -11.207776     6A     -1.104487
       7A     -0.927153     8A     -0.927036     9A     -0.925406
      10A     -0.728680    11A     -0.610420    12A     -0.610347
      13A     -0.609055    14A     -0.551614    15A     -0.550536
      16A     -0.508352    17A     -0.508250    18A     -0.506539
      19A     -0.452393    20A     -0.452256    21A     -0.451810

  @DF-RHF Final Energy:  -196.40352847965136

   => Energetics <=

    Nuclear Repulsion Energy =            198.7379627272313769
    One-Electron Energy =                -657.3087722504923249
    Two-Electron Energy =                 262.1672810436095915
    Total Energy =                       -196.4035284796513565
  Basis Set: (AUG-CC-PVTZ AUX)
    Blend: AUG-CC-PVTZ-RI
    Molecular point group: c1

    Geometry (in Angstrom), charge = 0, multiplicity = 1:

       Center              X                  Y                   Z               Mass
    ------------   -----------------  -----------------  -----------------  -----------------
         C           -0.000172495251    -0.000214026372    -0.000049560471    12.000000000000
         C            0.347042504749     0.081584973628     1.487465439529    12.000000000000
         H            1.035223804749     0.936083073628     1.689031239529     1.007825032230
         H           -0.555375495251     0.223589973628     2.092151439529     1.007825032230
         H            0.839713504749    -0.836907026372     1.824827439529     1.007825032230
         C           -0.685205495251     1.296246973628    -0.435798560471    12.000000000000
         H           -0.944534495251     1.262722973628    -1.499654560471     1.007825032230
         H           -1.607158495251     1.461178973628     0.132503439529     1.007825032230
         H           -0.028913495251     2.158412973628    -0.274187560471     1.007825032230
         C           -0.943256495251    -1.180587026372    -0.239361560471    12.000000000000
         H           -1.207510495251    -1.260937026372    -1.299493560471     1.007825032230
         H           -1.870064495251    -1.062490026372     0.332693439529     1.007825032230
         H           -0.474948495251    -2.122940026372     0.065313439529     1.007825032230
         C            1.280729504749    -0.198102026372    -0.812508560471    12.000000000000
         H            1.791095504749    -1.121858026372    -0.518626560471     1.007825032230
         H            1.058547504749    -0.259919026372    -1.883480560471     1.007825032230
         H            1.974194504749     0.635816973628    -0.658067560471     1.007825032230

  Basis Set: AUG-CC-PVTZ
    Blend: AUG-CC-PVTZ
  Basis Set: (AUG-CC-PVTZ AUX)
    Blend: AUG-CC-PVTZ-JKFIT
	 Reference Energy          =    -196.4035284796513565 [Eh]
	 Singles Energy            =      -0.0000000000000000 [Eh]
	 Same-Spin Energy          =      -0.2116112758687130 [Eh]
	 Opposite-Spin Energy      =      -0.7982315738658168 [Eh]
	 Correlation Energy        =      -1.0098428497345298 [Eh]
	 Total Energy              =    -197.4133713293858818 [Eh]

	 ================> DF-SCS-MP2 Energies <==================
	-----------------------------------------------------------
	 SCS Same-Spin Scale       =       0.3333333333333333 [-]
	 SCS Opposite-Spin Scale   =       1.2000000000000000 [-]
	 SCS Same-Spin Energy      =      -0.0705370919562377 [Eh]
	 SCS Opposite-Spin Energy  =      -0.9578778886389800 [Eh]
	 SCS Correlation Energy    =      -1.0284149805952176 [Eh]
	 SCS Total Energy          =    -197.4319434602465719 [Eh]
	-----------------------------------------------------------

  Dipole Moment: [D]
     X:    -0.0095      Y:    -0.0109      Z:    -0.0066     Total:     0.0159

*** Psi4 exiting successfully. Buy a developer a beer!
