                               Psi4 1.4a3.dev225

  ==> Input File <==

--------------------------------------------------------------------------
#psi4
#
memory 32 gb

molecule  {
0 1
  C        0.0000000     0.0000000     0.0000010
  C        0.3472150     0.0817990     1.4875160
  H        1.0107197     0.9056569     1.6818542
  H       -0.5552030     0.2238040     2.0922020
  H        0.8398860    -0.8366930     1.8248780
  C       -0.6850330     1.2964610    -0.4357480
  H       -0.9443620     1.2629370    -1.4996040
  H       -1.6069860     1.4613930     0.1325540
  H       -0.0287410     2.1586270    -0.2741370
  C       -0.9430840    -1.1803730    -0.2393110
  H       -1.2073380    -1.2607230    -1.2994430
  H       -1.8698920    -1.0622760     0.3327440
  H       -0.4747760    -2.1227260     0.0653640
  C        1.2809020    -0.1978880    -0.8124580
  H        1.7912680    -1.1216440    -0.5185760
  H        1.0587200    -0.2597050    -1.8834300
  H        1.9743670     0.6360310    -0.6580170
units angstrom
no_reorient  #important for SAPT in psi4, default
symmetry c1  #important for SAPT in psi4, default
}

set PROPERTIES_ORIGIN ["COM"]
properties('MP2/aug-cc-pvtz', properties = ['dipole'])
--------------------------------------------------------------------------

    Molecular point group: c1
  Charge       = 0
  Multiplicity = 1
  Basis Set: AUG-CC-PVTZ
    Blend: AUG-CC-PVTZ
  Basis Set: (AUG-CC-PVTZ AUX)
    Blend: AUG-CC-PVTZ-JKFIT

    Orbital Energies [Eh]
    ---------------------

    Doubly Occupied:

       1A    -11.228483     2A    -11.207762     3A    -11.207744
       4A    -11.207538     5A    -11.205252     6A     -1.104650
       7A     -0.928744     8A     -0.926990     9A     -0.926876
      10A     -0.729353    11A     -0.611496    12A     -0.610118
      13A     -0.610050    14A     -0.552486    15A     -0.551361
      16A     -0.509731    17A     -0.508124    18A     -0.508028
      19A     -0.452441    20A     -0.452041    21A     -0.451911

  @DF-RHF Final Energy:  -196.40406443113750

   => Energetics <=

    Nuclear Repulsion Energy =            198.9059368611474952
    One-Electron Energy =                -657.6376432081319763
    Two-Electron Energy =                 262.3276419158469821
    Total Energy =                       -196.4040644311374990
  Basis Set: (AUG-CC-PVTZ AUX)
    Blend: AUG-CC-PVTZ-RI
    Molecular point group: c1

    Geometry (in Angstrom), charge = 0, multiplicity = 1:

       Center              X                  Y                   Z               Mass
    ------------   -----------------  -----------------  -----------------  -----------------
         C            0.000172467292     0.000214303354     0.000051476595    12.000000000000
         C            0.347387467292     0.082013303354     1.487566476595    12.000000000000
         H            1.010892167292     0.905871203354     1.681904676595     1.007825032230
         H           -0.555030532708     0.224018303354     2.092252476595     1.007825032230
         H            0.840058467292    -0.836478696646     1.824928476595     1.007825032230
         C           -0.684860532708     1.296675303354    -0.435697523405    12.000000000000
         H           -0.944189532708     1.263151303354    -1.499553523405     1.007825032230
         H           -1.606813532708     1.461607303354     0.132604476595     1.007825032230
         H           -0.028568532708     2.158841303354    -0.274086523405     1.007825032230
         C           -0.942911532708    -1.180158696646    -0.239260523405    12.000000000000
         H           -1.207165532708    -1.260508696646    -1.299392523405     1.007825032230
         H           -1.869719532708    -1.062061696646     0.332794476595     1.007825032230
         H           -0.474603532708    -2.122511696646     0.065414476595     1.007825032230
         C            1.281074467292    -0.197673696646    -0.812407523405    12.000000000000
         H            1.791440467292    -1.121429696646    -0.518525523405     1.007825032230
         H            1.058892467292    -0.259490696646    -1.883379523405     1.007825032230
         H            1.974539467292     0.636245303354    -0.657966523405     1.007825032230

  Basis Set: AUG-CC-PVTZ
    Blend: AUG-CC-PVTZ
  Basis Set: (AUG-CC-PVTZ AUX)
    Blend: AUG-CC-PVTZ-JKFIT
	 Reference Energy          =    -196.4040644311374990 [Eh]
	 Singles Energy            =      -0.0000000000000000 [Eh]
	 Same-Spin Energy          =      -0.2116057644404024 [Eh]
	 Opposite-Spin Energy      =      -0.7979715062602685 [Eh]
	 Correlation Energy        =      -1.0095772707006709 [Eh]
	 Total Energy              =    -197.4136417018381735 [Eh]

	 ================> DF-SCS-MP2 Energies <==================
	-----------------------------------------------------------
	 SCS Same-Spin Scale       =       0.3333333333333333 [-]
	 SCS Opposite-Spin Scale   =       1.2000000000000000 [-]
	 SCS Same-Spin Energy      =      -0.0705352548134675 [Eh]
	 SCS Opposite-Spin Energy  =      -0.9575658075123221 [Eh]
	 SCS Correlation Energy    =      -1.0281010623257896 [Eh]
	 SCS Total Energy          =    -197.4321654934632875 [Eh]
	-----------------------------------------------------------

  Dipole Moment: [D]
     X:     0.0091      Y:     0.0104      Z:     0.0063     Total:     0.0152

*** Psi4 exiting successfully. Buy a developer a beer!
