                               Psi4 1.3.2 release

  ==> Input File <==

--------------------------------------------------------------------------
#psi4
#
memory 32 gb

molecule  {
0 1
  C        0.0000200     0.0000170     0.0000030
  C        0.8973361     0.9566124     0.2183490
  H        1.6840120     1.2309930    -0.6196990
  H        0.5407810     2.0585400     0.4530930
  H        1.6631030     0.8551880     1.1126530
  C       -0.8616050     0.3749750    -1.2070170
  H       -1.6102970    -0.3991140    -1.4081060
  H       -1.3889910     1.3191910    -1.0323370
  H       -0.2457010     0.4921210    -2.1054290
  C       -0.8907450    -0.1548370     1.2338820
  H       -1.6401910    -0.9387090     1.0787540
  H       -1.4184290     0.7795360     1.4545320
  H       -0.2961040    -0.4240080     2.1137440
  C        0.7200310    -1.3206420    -0.2780570
  H        1.3451780    -1.6115710     0.5732660
  H        0.0009600    -2.1265660    -0.4614120
  H        1.3656220    -1.2356900    -1.1590760
units angstrom
no_reorient  #important for SAPT in psi4, default
symmetry c1  #important for SAPT in psi4, default
}

set PROPERTIES_ORIGIN ["COM"]
properties('MP2/aug-cc-pvtz', properties = ['dipole'])
--------------------------------------------------------------------------

    Molecular point group: c1
  Charge       = 0
  Multiplicity = 1
  Basis Set: AUG-CC-PVTZ
    Blend: AUG-CC-PVTZ
  Basis Set: (AUG-CC-PVTZ AUX)
    Blend: AUG-CC-PVTZ-JKFIT

    Orbital Energies [Eh]
    ---------------------

    Doubly Occupied:

       1A    -11.222388     2A    -11.217537     3A    -11.210107
       4A    -11.210107     5A    -11.210057     6A     -1.138371
       7A     -0.931503     8A     -0.931500     9A     -0.926440
      10A     -0.737833    11A     -0.622846    12A     -0.616336
      13A     -0.616334    14A     -0.549209    15A     -0.549207
      16A     -0.510322    17A     -0.494391    18A     -0.492596
      19A     -0.492596    20A     -0.431684    21A     -0.431684

  @DF-RHF Final Energy:  -196.35380108776542

   => Energetics <=

    Nuclear Repulsion Energy =            202.0963373966635572
    One-Electron Energy =                -663.8141853450142662
    Two-Electron Energy =                 265.3640468605852902
    Total Energy =                       -196.3538010877654187
  Basis Set: (AUG-CC-PVTZ AUX)
    Blend: AUG-CC-PVTZ-RI
    Molecular point group: c1

    Geometry (in Angstrom), charge = 0, multiplicity = 1:

       Center              X                  Y                   Z               Mass
    ------------   -----------------  -----------------  -----------------  -----------------
         C            0.022485315891     0.023966112021     0.005469442111    12.000000000000
         C            0.919801415891     0.980561512021     0.223815442111    12.000000000000
         H            1.706477315891     1.254942112021    -0.614232557889     1.007825032230
         H            0.563246315891     2.082489112021     0.458559442111     1.007825032230
         H            1.685568315891     0.879137112021     1.118119442111     1.007825032230
         C           -0.839139684109     0.398924112021    -1.201550557889    12.000000000000
         H           -1.587831684109    -0.375164887979    -1.402639557889     1.007825032230
         H           -1.366525684109     1.343140112021    -1.026870557889     1.007825032230
         H           -0.223235684109     0.516070112021    -2.099962557889     1.007825032230
         C           -0.868279684109    -0.130887887979     1.239348442111    12.000000000000
         H           -1.617725684109    -0.914759887979     1.084220442111     1.007825032230
         H           -1.395963684109     0.803485112021     1.459998442111     1.007825032230
         H           -0.273638684109    -0.400058887979     2.119210442111     1.007825032230
         C            0.742496315891    -1.296692887979    -0.272590557889    12.000000000000
         H            1.367643315891    -1.587621887979     0.578732442111     1.007825032230
         H            0.023425315891    -2.102616887979    -0.455945557889     1.007825032230
         H            1.388087315891    -1.211740887979    -1.153609557889     1.007825032230

  Basis Set: AUG-CC-PVTZ
    Blend: AUG-CC-PVTZ
  Basis Set: (AUG-CC-PVTZ AUX)
    Blend: AUG-CC-PVTZ-JKFIT
	 Reference Energy          =    -196.3538010877654187 [Eh]
	 Singles Energy            =      -0.0000000000000000 [Eh]
	 Same-Spin Energy          =      -0.2149787780226636 [Eh]
	 Opposite-Spin Energy      =      -0.8027214475230523 [Eh]
	 Correlation Energy        =      -1.0177002255457159 [Eh]
	 Total Energy              =    -197.3715013133111427 [Eh]

	 ================> DF-SCS-MP2 Energies <==================
	-----------------------------------------------------------
	 SCS Same-Spin Scale       =       0.3333333333333333 [-]
	 SCS Opposite-Spin Scale   =       1.2000000000000000 [-]
	 SCS Same-Spin Energy      =      -0.0716595926742212 [Eh]
	 SCS Opposite-Spin Energy  =      -0.9632657370276627 [Eh]
	 SCS Correlation Energy    =      -1.0349253297018839 [Eh]
	 SCS Total Energy          =    -197.3887264174672964 [Eh]
	-----------------------------------------------------------

  Dipole Moment: [D]
     X:    -0.0733      Y:    -0.0781      Z:    -0.0178     Total:     0.1086

*** Psi4 exiting successfully. Buy a developer a beer!
