                               Psi4 1.4a3.dev225

  ==> Input File <==

--------------------------------------------------------------------------
#psi4
#
memory 32 gb

molecule  {
0 1
  C        0.0000000     0.0000000     0.0000010
  C        0.3585642     0.0844727     1.5361375
  H        1.0230580     0.9209770     1.6854680
  H       -0.5552030     0.2238040     2.0922020
  H        0.8398860    -0.8366930     1.8248780
  C       -0.6850330     1.2964610    -0.4357480
  H       -0.9443620     1.2629370    -1.4996040
  H       -1.6069860     1.4613930     0.1325540
  H       -0.0287410     2.1586270    -0.2741370
  C       -0.9430840    -1.1803730    -0.2393110
  H       -1.2073380    -1.2607230    -1.2994430
  H       -1.8698920    -1.0622760     0.3327440
  H       -0.4747760    -2.1227260     0.0653640
  C        1.2809020    -0.1978880    -0.8124580
  H        1.7912680    -1.1216440    -0.5185760
  H        1.0587200    -0.2597050    -1.8834300
  H        1.9743670     0.6360310    -0.6580170
units angstrom
no_reorient  #important for SAPT in psi4, default
symmetry c1  #important for SAPT in psi4, default
}

set PROPERTIES_ORIGIN ["COM"]
properties('MP2/aug-cc-pvtz', properties = ['dipole'])
--------------------------------------------------------------------------

    Molecular point group: c1
  Charge       = 0
  Multiplicity = 1
  Basis Set: AUG-CC-PVTZ
    Blend: AUG-CC-PVTZ
  Basis Set: (AUG-CC-PVTZ AUX)
    Blend: AUG-CC-PVTZ-JKFIT

    Orbital Energies [Eh]
    ---------------------

    Doubly Occupied:

       1A    -11.231022     2A    -11.207683     3A    -11.207683
       4A    -11.207656     5A    -11.205594     6A     -1.099208
       7A     -0.928189     8A     -0.926417     9A     -0.926417
      10A     -0.726740    11A     -0.610013    12A     -0.610013
      13A     -0.607599    14A     -0.553689    15A     -0.553689
      16A     -0.512977    17A     -0.512977    18A     -0.507978
      19A     -0.453827    20A     -0.453827    21A     -0.439120

  @DF-RHF Final Energy:  -196.40253906945512

   => Energetics <=

    Nuclear Repulsion Energy =            198.0802254583502133
    One-Electron Energy =                -656.0008914136285512
    Two-Electron Energy =                 261.5181268858232215
    Total Energy =                       -196.4025390694550879
  Basis Set: (AUG-CC-PVTZ AUX)
    Blend: AUG-CC-PVTZ-RI
    Molecular point group: c1

    Geometry (in Angstrom), charge = 0, multiplicity = 1:

       Center              X                  Y                   Z               Mass
    ------------   -----------------  -----------------  -----------------  -----------------
         C           -0.001889083641    -0.000444897772    -0.008092070570    12.000000000000
         C            0.356675116359     0.084027802228     1.528044429430    12.000000000000
         H            1.021168916359     0.920532102228     1.677374929430     1.007825032230
         H           -0.557092083641     0.223359102228     2.084108929430     1.007825032230
         H            0.837996916359    -0.837137897772     1.816784929430     1.007825032230
         C           -0.686922083641     1.296016102228    -0.443841070570    12.000000000000
         H           -0.946251083641     1.262492102228    -1.507697070570     1.007825032230
         H           -1.608875083641     1.460948102228     0.124460929430     1.007825032230
         H           -0.030630083641     2.158182102228    -0.282230070570     1.007825032230
         C           -0.944973083641    -1.180817897772    -0.247404070570    12.000000000000
         H           -1.209227083641    -1.261167897772    -1.307536070570     1.007825032230
         H           -1.871781083641    -1.062720897772     0.324650929430     1.007825032230
         H           -0.476665083641    -2.123170897772     0.057270929430     1.007825032230
         C            1.279012916359    -0.198332897772    -0.820551070570    12.000000000000
         H            1.789378916359    -1.122088897772    -0.526669070570     1.007825032230
         H            1.056830916359    -0.260149897772    -1.891523070570     1.007825032230
         H            1.972477916359     0.635586102228    -0.666110070570     1.007825032230

  Basis Set: AUG-CC-PVTZ
    Blend: AUG-CC-PVTZ
  Basis Set: (AUG-CC-PVTZ AUX)
    Blend: AUG-CC-PVTZ-JKFIT
	 Reference Energy          =    -196.4025390694551163 [Eh]
	 Singles Energy            =      -0.0000000000000000 [Eh]
	 Same-Spin Energy          =      -0.2113155667421281 [Eh]
	 Opposite-Spin Energy      =      -0.7978827205479597 [Eh]
	 Correlation Energy        =      -1.0091982872900878 [Eh]
	 Total Energy              =    -197.4117373567451921 [Eh]

	 ================> DF-SCS-MP2 Energies <==================
	-----------------------------------------------------------
	 SCS Same-Spin Scale       =       0.3333333333333333 [-]
	 SCS Opposite-Spin Scale   =       1.2000000000000000 [-]
	 SCS Same-Spin Energy      =      -0.0704385222473760 [Eh]
	 SCS Opposite-Spin Energy  =      -0.9574592646575516 [Eh]
	 SCS Correlation Energy    =      -1.0278977869049277 [Eh]
	 SCS Total Energy          =    -197.4304368563600462 [Eh]
	-----------------------------------------------------------

  Dipole Moment: [D]
     X:    -0.0021      Y:    -0.0005      Z:    -0.0089     Total:     0.0092

*** Psi4 exiting successfully. Buy a developer a beer!
