                               Psi4 1.3.2 release

  ==> Input File <==

--------------------------------------------------------------------------
#psi4
#
memory 32 gb

molecule  {
0 1
  C        0.0000200     0.0000170     0.0000030
  C        1.0323080     1.1005010     0.2511920
  H        1.6892347     1.2126507    -0.6183292
  H        0.5407810     2.0585400     0.4530930
  H        1.6631030     0.8551880     1.1126530
  C       -0.8616050     0.3749750    -1.2070170
  H       -1.6102970    -0.3991140    -1.4081060
  H       -1.3889910     1.3191910    -1.0323370
  H       -0.2457010     0.4921210    -2.1054290
  C       -0.8907450    -0.1548370     1.2338820
  H       -1.6401910    -0.9387090     1.0787540
  H       -1.4184290     0.7795360     1.4545320
  H       -0.2961040    -0.4240080     2.1137440
  C        0.7200310    -1.3206420    -0.2780570
  H        1.3451780    -1.6115710     0.5732660
  H        0.0009600    -2.1265660    -0.4614120
  H        1.3656220    -1.2356900    -1.1590760
units angstrom
no_reorient  #important for SAPT in psi4, default
symmetry c1  #important for SAPT in psi4, default
}

set PROPERTIES_ORIGIN ["COM"]
properties('MP2/aug-cc-pvtz', properties = ['dipole'])
--------------------------------------------------------------------------

    Molecular point group: c1
  Charge       = 0
  Multiplicity = 1
  Basis Set: AUG-CC-PVTZ
    Blend: AUG-CC-PVTZ
  Basis Set: (AUG-CC-PVTZ AUX)
    Blend: AUG-CC-PVTZ-JKFIT

    Orbital Energies [Eh]
    ---------------------

    Doubly Occupied:

       1A    -11.228566     2A    -11.207815     3A    -11.207799
       4A    -11.207759     5A    -11.207698     6A     -1.104622
       7A     -0.927102     8A     -0.926980     9A     -0.926930
      10A     -0.728785    11A     -0.610809    12A     -0.610257
      13A     -0.609799    14A     -0.552054    15A     -0.551119
      16A     -0.508908    17A     -0.508193    18A     -0.507662
      19A     -0.452353    20A     -0.452123    21A     -0.451646

  @DF-RHF Final Energy:  -196.40398142869157

   => Energetics <=

    Nuclear Repulsion Energy =            198.8392434463292773
    One-Electron Energy =                -657.5084926737422393
    Two-Electron Energy =                 262.2652677987213679
    Total Energy =                       -196.4039814286915657
  Basis Set: (AUG-CC-PVTZ AUX)
    Blend: AUG-CC-PVTZ-RI
    Molecular point group: c1

    Geometry (in Angstrom), charge = 0, multiplicity = 1:

       Center              X                  Y                   Z               Mass
    ------------   -----------------  -----------------  -----------------  -----------------
         C           -0.000053711115     0.000272327086    -0.000016410598    12.000000000000
         C            1.032234288885     1.100756327086     0.251172589402    12.000000000000
         H            1.689160988885     1.212906027086    -0.618348610598     1.007825032230
         H            0.540707288885     2.058795327086     0.453073589402     1.007825032230
         H            1.663029288885     0.855443327086     1.112633589402     1.007825032230
         C           -0.861678711115     0.375230327086    -1.207036410598    12.000000000000
         H           -1.610370711115    -0.398858672914    -1.408125410598     1.007825032230
         H           -1.389064711115     1.319446327086    -1.032356410598     1.007825032230
         H           -0.245774711115     0.492376327086    -2.105448410598     1.007825032230
         C           -0.890818711115    -0.154581672914     1.233862589402    12.000000000000
         H           -1.640264711115    -0.938453672914     1.078734589402     1.007825032230
         H           -1.418502711115     0.779791327086     1.454512589402     1.007825032230
         H           -0.296177711115    -0.423752672914     2.113724589402     1.007825032230
         C            0.719957288885    -1.320386672914    -0.278076410598    12.000000000000
         H            1.345104288885    -1.611315672914     0.573246589402     1.007825032230
         H            0.000886288885    -2.126310672914    -0.461431410598     1.007825032230
         H            1.365548288885    -1.235434672914    -1.159095410598     1.007825032230

  Basis Set: AUG-CC-PVTZ
    Blend: AUG-CC-PVTZ
  Basis Set: (AUG-CC-PVTZ AUX)
    Blend: AUG-CC-PVTZ-JKFIT
	 Reference Energy          =    -196.4039814286915657 [Eh]
	 Singles Energy            =      -0.0000000000000000 [Eh]
	 Same-Spin Energy          =      -0.2116222089344832 [Eh]
	 Opposite-Spin Energy      =      -0.7981211855940363 [Eh]
	 Correlation Energy        =      -1.0097433945285195 [Eh]
	 Total Energy              =    -197.4137248232200932 [Eh]

	 ================> DF-SCS-MP2 Energies <==================
	-----------------------------------------------------------
	 SCS Same-Spin Scale       =       0.3333333333333333 [-]
	 SCS Opposite-Spin Scale   =       1.2000000000000000 [-]
	 SCS Same-Spin Energy      =      -0.0705407363114944 [Eh]
	 SCS Opposite-Spin Energy  =      -0.9577454227128436 [Eh]
	 SCS Correlation Energy    =      -1.0282861590243380 [Eh]
	 SCS Total Energy          =    -197.4322675877158986 [Eh]
	-----------------------------------------------------------

  Dipole Moment: [D]
     X:     0.0014      Y:    -0.0046      Z:     0.0021     Total:     0.0053

*** Psi4 exiting successfully. Buy a developer a beer!
