                               Psi4 1.3.2 release

  ==> Input File <==

--------------------------------------------------------------------------
#psi4
#
memory 32 gb

molecule  {
0 1
  C       -0.0549457     0.0295685     0.1474499
  C        1.0323080     1.1005010     0.2511920
  H        1.6840120     1.2309930    -0.6196990
  H        0.5407810     2.0585400     0.4530930
  H        1.6631030     0.8551880     1.1126530
  C       -0.8616050     0.3749750    -1.2070170
  H       -1.6102970    -0.3991140    -1.4081060
  H       -1.3889910     1.3191910    -1.0323370
  H       -0.2457010     0.4921210    -2.1054290
  C       -0.8907450    -0.1548370     1.2338820
  H       -1.6401910    -0.9387090     1.0787540
  H       -1.4184290     0.7795360     1.4545320
  H       -0.2961040    -0.4240080     2.1137440
  C        0.7200310    -1.3206420    -0.2780570
  H        1.3451780    -1.6115710     0.5732660
  H        0.0009600    -2.1265660    -0.4614120
  H        1.3656220    -1.2356900    -1.1590760
units angstrom
no_reorient  #important for SAPT in psi4, default
symmetry c1  #important for SAPT in psi4, default
}

set PROPERTIES_ORIGIN ["COM"]
properties('MP2/aug-cc-pvtz', properties = ['dipole'])
--------------------------------------------------------------------------

    Molecular point group: c1
  Charge       = 0
  Multiplicity = 1
  Basis Set: AUG-CC-PVTZ
    Blend: AUG-CC-PVTZ
  Basis Set: (AUG-CC-PVTZ AUX)
    Blend: AUG-CC-PVTZ-JKFIT

    Orbital Energies [Eh]
    ---------------------

    Doubly Occupied:

       1A    -11.231382     2A    -11.209634     3A    -11.209092
       4A    -11.209080     5A    -11.205159     6A     -1.111441
       7A     -0.945410     8A     -0.922574     9A     -0.915039
      10A     -0.729391    11A     -0.617823    12A     -0.615517
      13A     -0.603636    14A     -0.552155    15A     -0.551249
      16A     -0.512685    17A     -0.509205    18A     -0.505664
      19A     -0.501887    20A     -0.432888    21A     -0.408972

  @DF-RHF Final Energy:  -196.37545627017650

   => Energetics <=

    Nuclear Repulsion Energy =            198.8458957828599409
    One-Electron Energy =                -657.4429354035660253
    Two-Electron Energy =                 262.2215833505296132
    Total Energy =                       -196.3754562701764712
  Basis Set: (AUG-CC-PVTZ AUX)
    Blend: AUG-CC-PVTZ-RI
    Molecular point group: c1

    Geometry (in Angstrom), charge = 0, multiplicity = 1:

       Center              X                  Y                   Z               Mass
    ------------   -----------------  -----------------  -----------------  -----------------
         C           -0.045797383118     0.024648578874     0.122907162577    12.000000000000
         C            1.041456316882     1.095581078874     0.226649262577    12.000000000000
         H            1.693160316882     1.226073078874    -0.644241737423     1.007825032230
         H            0.549929316882     2.053620078874     0.428550262577     1.007825032230
         H            1.672251316882     0.850268078874     1.088110262577     1.007825032230
         C           -0.852456683118     0.370055078874    -1.231559737423    12.000000000000
         H           -1.601148683118    -0.404033921126    -1.432648737423     1.007825032230
         H           -1.379842683118     1.314271078874    -1.056879737423     1.007825032230
         H           -0.236552683118     0.487201078874    -2.129971737423     1.007825032230
         C           -0.881596683118    -0.159756921126     1.209339262577    12.000000000000
         H           -1.631042683118    -0.943628921126     1.054211262577     1.007825032230
         H           -1.409280683118     0.774616078874     1.429989262577     1.007825032230
         H           -0.286955683118    -0.428927921126     2.089201262577     1.007825032230
         C            0.729179316882    -1.325561921126    -0.302599737423    12.000000000000
         H            1.354326316882    -1.616490921126     0.548723262577     1.007825032230
         H            0.010108316882    -2.131485921126    -0.485954737423     1.007825032230
         H            1.374770316882    -1.240609921126    -1.183618737423     1.007825032230

  Basis Set: AUG-CC-PVTZ
    Blend: AUG-CC-PVTZ
  Basis Set: (AUG-CC-PVTZ AUX)
    Blend: AUG-CC-PVTZ-JKFIT
	 Reference Energy          =    -196.3754562701764996 [Eh]
	 Singles Energy            =      -0.0000000000000000 [Eh]
	 Same-Spin Energy          =      -0.2127768504296099 [Eh]
	 Opposite-Spin Energy      =      -0.8001990758859895 [Eh]
	 Correlation Energy        =      -1.0129759263155993 [Eh]
	 Total Energy              =    -197.3884321964920900 [Eh]

	 ================> DF-SCS-MP2 Energies <==================
	-----------------------------------------------------------
	 SCS Same-Spin Scale       =       0.3333333333333333 [-]
	 SCS Opposite-Spin Scale   =       1.2000000000000000 [-]
	 SCS Same-Spin Energy      =      -0.0709256168098699 [Eh]
	 SCS Opposite-Spin Energy  =      -0.9602388910631874 [Eh]
	 SCS Correlation Energy    =      -1.0311645078730574 [Eh]
	 SCS Total Energy          =    -197.4066207780495574 [Eh]
	-----------------------------------------------------------

  Dipole Moment: [D]
     X:    -0.0230      Y:     0.0176      Z:     0.0713     Total:     0.0769

*** Psi4 exiting successfully. Buy a developer a beer!
