                               Psi4 1.3.2 release

  ==> Input File <==

--------------------------------------------------------------------------
#psi4
#
memory 32 gb

molecule  {
0 1
  C        0.0000200     0.0000170     0.0000030
  C        1.0840266     1.0122286     0.3743516
  H        1.6840120     1.2309930    -0.6196990
  H        0.5407810     2.0585400     0.4530930
  H        1.6631030     0.8551880     1.1126530
  C       -0.8616050     0.3749750    -1.2070170
  H       -1.6102970    -0.3991140    -1.4081060
  H       -1.3889910     1.3191910    -1.0323370
  H       -0.2457010     0.4921210    -2.1054290
  C       -0.8907450    -0.1548370     1.2338820
  H       -1.6401910    -0.9387090     1.0787540
  H       -1.4184290     0.7795360     1.4545320
  H       -0.2961040    -0.4240080     2.1137440
  C        0.7200310    -1.3206420    -0.2780570
  H        1.3451780    -1.6115710     0.5732660
  H        0.0009600    -2.1265660    -0.4614120
  H        1.3656220    -1.2356900    -1.1590760
units angstrom
no_reorient  #important for SAPT in psi4, default
symmetry c1  #important for SAPT in psi4, default
}

set PROPERTIES_ORIGIN ["COM"]
properties('MP2/aug-cc-pvtz', properties = ['dipole'])
--------------------------------------------------------------------------

    Molecular point group: c1
  Charge       = 0
  Multiplicity = 1
  Basis Set: AUG-CC-PVTZ
    Blend: AUG-CC-PVTZ
  Basis Set: (AUG-CC-PVTZ AUX)
    Blend: AUG-CC-PVTZ-JKFIT

    Orbital Energies [Eh]
    ---------------------

    Doubly Occupied:

       1A    -11.230856     2A    -11.212103     3A    -11.211588
       4A    -11.207014     5A    -11.206996     6A     -1.106152
       7A     -0.936384     8A     -0.927140     9A     -0.923477
      10A     -0.734981    11A     -0.628844    12A     -0.608674
      13A     -0.603175    14A     -0.559132    15A     -0.545975
      16A     -0.524872    17A     -0.508873    18A     -0.486679
      19A     -0.466639    20A     -0.440485    21A     -0.438713

  @DF-RHF Final Energy:  -196.37187465723562

   => Energetics <=

    Nuclear Repulsion Energy =            198.8968116613967538
    One-Electron Energy =                -657.5198707272764977
    Two-Electron Energy =                 262.2511844086441215
    Total Energy =                       -196.3718746572355940
  Basis Set: (AUG-CC-PVTZ AUX)
    Blend: AUG-CC-PVTZ-RI
    Molecular point group: c1

    Geometry (in Angstrom), charge = 0, multiplicity = 1:

       Center              X                  Y                   Z               Mass
    ------------   -----------------  -----------------  -----------------  -----------------
         C           -0.008589240874     0.014708818458    -0.020497126350    12.000000000000
         C            1.075417359126     1.026920418458     0.353851473650    12.000000000000
         H            1.675402759126     1.245684818458    -0.640199126350     1.007825032230
         H            0.532171759126     2.073231818458     0.432592873650     1.007825032230
         H            1.654493759126     0.869879818458     1.092152873650     1.007825032230
         C           -0.870214240874     0.389666818458    -1.227517126350    12.000000000000
         H           -1.618906240874    -0.384422181542    -1.428606126350     1.007825032230
         H           -1.397600240874     1.333882818458    -1.052837126350     1.007825032230
         H           -0.254310240874     0.506812818458    -2.125929126350     1.007825032230
         C           -0.899354240874    -0.140145181542     1.213381873650    12.000000000000
         H           -1.648800240874    -0.924017181542     1.058253873650     1.007825032230
         H           -1.427038240874     0.794227818458     1.434031873650     1.007825032230
         H           -0.304713240874    -0.409316181542     2.093243873650     1.007825032230
         C            0.711421759126    -1.305950181542    -0.298557126350    12.000000000000
         H            1.336568759126    -1.596879181542     0.552765873650     1.007825032230
         H           -0.007649240874    -2.111874181542    -0.481912126350     1.007825032230
         H            1.357012759126    -1.220998181542    -1.179576126350     1.007825032230

  Basis Set: AUG-CC-PVTZ
    Blend: AUG-CC-PVTZ
  Basis Set: (AUG-CC-PVTZ AUX)
    Blend: AUG-CC-PVTZ-JKFIT
	 Reference Energy          =    -196.3718746572356224 [Eh]
	 Singles Energy            =      -0.0000000000000000 [Eh]
	 Same-Spin Energy          =      -0.2121011193969501 [Eh]
	 Opposite-Spin Energy      =      -0.7995874272763055 [Eh]
	 Correlation Energy        =      -1.0116885466732557 [Eh]
	 Total Energy              =    -197.3835632039088921 [Eh]

	 ================> DF-SCS-MP2 Energies <==================
	-----------------------------------------------------------
	 SCS Same-Spin Scale       =       0.3333333333333333 [-]
	 SCS Opposite-Spin Scale   =       1.2000000000000000 [-]
	 SCS Same-Spin Energy      =      -0.0707003731323167 [Eh]
	 SCS Opposite-Spin Energy  =      -0.9595049127315666 [Eh]
	 SCS Correlation Energy    =      -1.0302052858638833 [Eh]
	 SCS Total Energy          =    -197.4020799430994941 [Eh]
	-----------------------------------------------------------

  Dipole Moment: [D]
     X:    -0.0329      Y:    -0.0499      Z:     0.0034     Total:     0.0598

*** Psi4 exiting successfully. Buy a developer a beer!
