                               Psi4 1.3.2 release

  ==> Input File <==

--------------------------------------------------------------------------
#psi4
#
memory 32 gb

molecule  {
0 1
  C        0.0000200     0.0000170     0.0000030
  C        1.0323080     1.1005010     0.2511920
  H        1.7123169     1.1205390    -0.6075185
  H        0.5407810     2.0585400     0.4530930
  H        1.6631030     0.8551880     1.1126530
  C       -0.8616050     0.3749750    -1.2070170
  H       -1.6102970    -0.3991140    -1.4081060
  H       -1.3889910     1.3191910    -1.0323370
  H       -0.2457010     0.4921210    -2.1054290
  C       -0.8907450    -0.1548370     1.2338820
  H       -1.6401910    -0.9387090     1.0787540
  H       -1.4184290     0.7795360     1.4545320
  H       -0.2961040    -0.4240080     2.1137440
  C        0.7200310    -1.3206420    -0.2780570
  H        1.3451780    -1.6115710     0.5732660
  H        0.0009600    -2.1265660    -0.4614120
  H        1.3656220    -1.2356900    -1.1590760
units angstrom
no_reorient  #important for SAPT in psi4, default
symmetry c1  #important for SAPT in psi4, default
}

set PROPERTIES_ORIGIN ["COM"]
properties('MP2/aug-cc-pvtz', properties = ['dipole'])
--------------------------------------------------------------------------

    Molecular point group: c1
  Charge       = 0
  Multiplicity = 1
  Basis Set: AUG-CC-PVTZ
    Blend: AUG-CC-PVTZ
  Basis Set: (AUG-CC-PVTZ AUX)
    Blend: AUG-CC-PVTZ-JKFIT

    Orbital Energies [Eh]
    ---------------------

    Doubly Occupied:

       1A    -11.228050     2A    -11.208031     3A    -11.207952
       4A    -11.207728     5A    -11.207332     6A     -1.104913
       7A     -0.927650     8A     -0.926853     9A     -0.926616
      10A     -0.727915    11A     -0.613929    12A     -0.610362
      13A     -0.607738    14A     -0.554953    15A     -0.549309
      16A     -0.512016    17A     -0.508236    18A     -0.504902
      19A     -0.453283    20A     -0.452075    21A     -0.448892

  @DF-RHF Final Energy:  -196.40265338445616

   => Energetics <=

    Nuclear Repulsion Energy =            198.9164821494300099
    One-Electron Energy =                -657.6608002954704943
    Two-Electron Energy =                 262.3416647615843544
    Total Energy =                       -196.4026533844561300
  Basis Set: (AUG-CC-PVTZ AUX)
    Blend: AUG-CC-PVTZ-RI
    Molecular point group: c1

    Geometry (in Angstrom), charge = 0, multiplicity = 1:

       Center              X                  Y                   Z               Mass
    ------------   -----------------  -----------------  -----------------  -----------------
         C           -0.000376385000     0.001559987714    -0.000167537032    12.000000000000
         C            1.031911615000     1.102043987714     0.251021462968    12.000000000000
         H            1.711920515000     1.122081987714    -0.607689037032     1.007825032230
         H            0.540384615000     2.060082987714     0.452922462968     1.007825032230
         H            1.662706615000     0.856730987714     1.112482462968     1.007825032230
         C           -0.862001385000     0.376517987714    -1.207187537032    12.000000000000
         H           -1.610693385000    -0.397571012286    -1.408276537032     1.007825032230
         H           -1.389387385000     1.320733987714    -1.032507537032     1.007825032230
         H           -0.246097385000     0.493663987714    -2.105599537032     1.007825032230
         C           -0.891141385000    -0.153294012286     1.233711462968    12.000000000000
         H           -1.640587385000    -0.937166012286     1.078583462968     1.007825032230
         H           -1.418825385000     0.781078987714     1.454361462968     1.007825032230
         H           -0.296500385000    -0.422465012286     2.113573462968     1.007825032230
         C            0.719634615000    -1.319099012286    -0.278227537032    12.000000000000
         H            1.344781615000    -1.610028012286     0.573095462968     1.007825032230
         H            0.000563615000    -2.125023012286    -0.461582537032     1.007825032230
         H            1.365225615000    -1.234147012286    -1.159246537032     1.007825032230

  Basis Set: AUG-CC-PVTZ
    Blend: AUG-CC-PVTZ
  Basis Set: (AUG-CC-PVTZ AUX)
    Blend: AUG-CC-PVTZ-JKFIT
	 Reference Energy          =    -196.4026533844561584 [Eh]
	 Singles Energy            =      -0.0000000000000000 [Eh]
	 Same-Spin Energy          =      -0.2117339649671607 [Eh]
	 Opposite-Spin Energy      =      -0.7983037964619639 [Eh]
	 Correlation Energy        =      -1.0100377614291247 [Eh]
	 Total Energy              =    -197.4126911458852760 [Eh]

	 ================> DF-SCS-MP2 Energies <==================
	-----------------------------------------------------------
	 SCS Same-Spin Scale       =       0.3333333333333333 [-]
	 SCS Opposite-Spin Scale   =       1.2000000000000000 [-]
	 SCS Same-Spin Energy      =      -0.0705779883223869 [Eh]
	 SCS Opposite-Spin Energy  =      -0.9579645557543567 [Eh]
	 SCS Correlation Energy    =      -1.0285425440767435 [Eh]
	 SCS Total Energy          =    -197.4311959285329010 [Eh]
	-----------------------------------------------------------

  Dipole Moment: [D]
     X:     0.0059      Y:    -0.0273      Z:     0.0136     Total:     0.0310

*** Psi4 exiting successfully. Buy a developer a beer!
