                               Psi4 1.4a3.dev225

  ==> Input File <==

--------------------------------------------------------------------------
#psi4
#
memory 32 gb

molecule  {
0 1
  C        0.0000000     0.0000000     0.0000010
  C        0.3358658     0.0791253     1.4388945
  H        1.0230580     0.9209770     1.6854680
  H       -0.5552030     0.2238040     2.0922020
  H        0.8398860    -0.8366930     1.8248780
  C       -0.6850330     1.2964610    -0.4357480
  H       -0.9443620     1.2629370    -1.4996040
  H       -1.6069860     1.4613930     0.1325540
  H       -0.0287410     2.1586270    -0.2741370
  C       -0.9430840    -1.1803730    -0.2393110
  H       -1.2073380    -1.2607230    -1.2994430
  H       -1.8698920    -1.0622760     0.3327440
  H       -0.4747760    -2.1227260     0.0653640
  C        1.2809020    -0.1978880    -0.8124580
  H        1.7912680    -1.1216440    -0.5185760
  H        1.0587200    -0.2597050    -1.8834300
  H        1.9743670     0.6360310    -0.6580170
units angstrom
no_reorient  #important for SAPT in psi4, default
symmetry c1  #important for SAPT in psi4, default
}

set PROPERTIES_ORIGIN ["COM"]
properties('MP2/aug-cc-pvtz', properties = ['dipole'])
--------------------------------------------------------------------------

    Molecular point group: c1
  Charge       = 0
  Multiplicity = 1
  Basis Set: AUG-CC-PVTZ
    Blend: AUG-CC-PVTZ
  Basis Set: (AUG-CC-PVTZ AUX)
    Blend: AUG-CC-PVTZ-JKFIT

    Orbital Energies [Eh]
    ---------------------

    Doubly Occupied:

       1A    -11.226212     2A    -11.210611     3A    -11.208035
       4A    -11.208035     5A    -11.208005     6A     -1.110974
       7A     -0.927788     8A     -0.927788     9A     -0.926092
      10A     -0.731449    11A     -0.613164    12A     -0.610928
      13A     -0.610928    14A     -0.549977    15A     -0.549977
      16A     -0.508505    17A     -0.503110    18A     -0.503109
      19A     -0.464340    20A     -0.449529    21A     -0.449529

  @DF-RHF Final Energy:  -196.40085999472936

   => Energetics <=

    Nuclear Repulsion Energy =            199.5873506113116207
    One-Electron Energy =                -658.9802511302439143
    Two-Electron Energy =                 262.9920405242028778
    Total Energy =                       -196.4008599947293874
  Basis Set: (AUG-CC-PVTZ AUX)
    Blend: AUG-CC-PVTZ-RI
    Molecular point group: c1

    Geometry (in Angstrom), charge = 0, multiplicity = 1:

       Center              X                  Y                   Z               Mass
    ------------   -----------------  -----------------  -----------------  -----------------
         C            0.001889055682     0.000445174754     0.008093986694    12.000000000000
         C            0.337754855682     0.079570474754     1.446987486694    12.000000000000
         H            1.024947055682     0.921422174754     1.693560986694     1.007825032230
         H           -0.553313944318     0.224249174754     2.100294986694     1.007825032230
         H            0.841775055682    -0.836247825246     1.832970986694     1.007825032230
         C           -0.683143944318     1.296906174754    -0.427655013306    12.000000000000
         H           -0.942472944318     1.263382174754    -1.491511013306     1.007825032230
         H           -1.605096944318     1.461838174754     0.140646986694     1.007825032230
         H           -0.026851944318     2.159072174754    -0.266044013306     1.007825032230
         C           -0.941194944318    -1.179927825246    -0.231218013306    12.000000000000
         H           -1.205448944318    -1.260277825246    -1.291350013306     1.007825032230
         H           -1.868002944318    -1.061830825246     0.340836986694     1.007825032230
         H           -0.472886944318    -2.122280825246     0.073456986694     1.007825032230
         C            1.282791055682    -0.197442825246    -0.804365013306    12.000000000000
         H            1.793157055682    -1.121198825246    -0.510483013306     1.007825032230
         H            1.060609055682    -0.259259825246    -1.875337013306     1.007825032230
         H            1.976256055682     0.636476174754    -0.649924013306     1.007825032230

  Basis Set: AUG-CC-PVTZ
    Blend: AUG-CC-PVTZ
  Basis Set: (AUG-CC-PVTZ AUX)
    Blend: AUG-CC-PVTZ-JKFIT
	 Reference Energy          =    -196.4008599947293590 [Eh]
	 Singles Energy            =      -0.0000000000000000 [Eh]
	 Same-Spin Energy          =      -0.2121031539735904 [Eh]
	 Opposite-Spin Energy      =      -0.7986645370212436 [Eh]
	 Correlation Energy        =      -1.0107676909948340 [Eh]
	 Total Energy              =    -197.4116276857241985 [Eh]

	 ================> DF-SCS-MP2 Energies <==================
	-----------------------------------------------------------
	 SCS Same-Spin Scale       =       0.3333333333333333 [-]
	 SCS Opposite-Spin Scale   =       1.2000000000000000 [-]
	 SCS Same-Spin Energy      =      -0.0707010513245301 [Eh]
	 SCS Opposite-Spin Energy  =      -0.9583974444254924 [Eh]
	 SCS Correlation Energy    =      -1.0290984957500224 [Eh]
	 SCS Total Energy          =    -197.4299584904793790 [Eh]
	-----------------------------------------------------------

  Dipole Moment: [D]
     X:    -0.0009      Y:    -0.0002      Z:    -0.0039     Total:     0.0040

*** Psi4 exiting successfully. Buy a developer a beer!
