                               Psi4 1.3.2 release

  ==> Input File <==

--------------------------------------------------------------------------
#psi4
#
memory 32 gb

molecule  {
0 1
  C        0.0000200     0.0000170     0.0000030
  C        1.0508348     1.0723714     0.2926184
  H        1.6840120     1.2309930    -0.6196990
  H        0.5407810     2.0585400     0.4530930
  H        1.6631030     0.8551880     1.1126530
  C       -0.8616050     0.3749750    -1.2070170
  H       -1.6102970    -0.3991140    -1.4081060
  H       -1.3889910     1.3191910    -1.0323370
  H       -0.2457010     0.4921210    -2.1054290
  C       -0.8907450    -0.1548370     1.2338820
  H       -1.6401910    -0.9387090     1.0787540
  H       -1.4184290     0.7795360     1.4545320
  H       -0.2961040    -0.4240080     2.1137440
  C        0.7200310    -1.3206420    -0.2780570
  H        1.3451780    -1.6115710     0.5732660
  H        0.0009600    -2.1265660    -0.4614120
  H        1.3656220    -1.2356900    -1.1590760
units angstrom
no_reorient  #important for SAPT in psi4, default
symmetry c1  #important for SAPT in psi4, default
}

set PROPERTIES_ORIGIN ["COM"]
properties('MP2/aug-cc-pvtz', properties = ['dipole'])
--------------------------------------------------------------------------

    Molecular point group: c1
  Charge       = 0
  Multiplicity = 1
  Basis Set: AUG-CC-PVTZ
    Blend: AUG-CC-PVTZ
  Basis Set: (AUG-CC-PVTZ AUX)
    Blend: AUG-CC-PVTZ-JKFIT

    Orbital Energies [Eh]
    ---------------------

    Doubly Occupied:

       1A    -11.228913     2A    -11.208806     3A    -11.208260
       4A    -11.207389     5A    -11.207370     6A     -1.104753
       7A     -0.929436     8A     -0.926899     9A     -0.925293
      10A     -0.729516    11A     -0.615511    12A     -0.609553
      13A     -0.606963    14A     -0.554516    15A     -0.548901
      16A     -0.514714    17A     -0.508266    18A     -0.500841
      19A     -0.457988    20A     -0.449491    21A     -0.447808

  @DF-RHF Final Energy:  -196.40076055873220

   => Energetics <=

    Nuclear Repulsion Energy =            198.8321417590356930
    One-Electron Energy =                -657.4834294711210987
    Two-Electron Energy =                 262.2505271533531754
    Total Energy =                       -196.4007605587322018
  Basis Set: (AUG-CC-PVTZ AUX)
    Blend: AUG-CC-PVTZ-RI
    Molecular point group: c1

    Geometry (in Angstrom), charge = 0, multiplicity = 1:

       Center              X                  Y                   Z               Mass
    ------------   -----------------  -----------------  -----------------  -----------------
         C           -0.003064479447     0.004698074191    -0.006892668903    12.000000000000
         C            1.047750320553     1.077052474191     0.285722731097    12.000000000000
         H            1.680927520553     1.235674074191    -0.626594668903     1.007825032230
         H            0.537696520553     2.063221074191     0.446197331097     1.007825032230
         H            1.660018520553     0.859869074191     1.105757331097     1.007825032230
         C           -0.864689479447     0.379656074191    -1.213912668903    12.000000000000
         H           -1.613381479447    -0.394432925809    -1.415001668903     1.007825032230
         H           -1.392075479447     1.323872074191    -1.039232668903     1.007825032230
         H           -0.248785479447     0.496802074191    -2.112324668903     1.007825032230
         C           -0.893829479447    -0.150155925809     1.226986331097    12.000000000000
         H           -1.643275479447    -0.934027925809     1.071858331097     1.007825032230
         H           -1.421513479447     0.784217074191     1.447636331097     1.007825032230
         H           -0.299188479447    -0.419326925809     2.106848331097     1.007825032230
         C            0.716946520553    -1.315960925809    -0.284952668903    12.000000000000
         H            1.342093520553    -1.606889925809     0.566370331097     1.007825032230
         H           -0.002124479447    -2.121884925809    -0.468307668903     1.007825032230
         H            1.362537520553    -1.231008925809    -1.165971668903     1.007825032230

  Basis Set: AUG-CC-PVTZ
    Blend: AUG-CC-PVTZ
  Basis Set: (AUG-CC-PVTZ AUX)
    Blend: AUG-CC-PVTZ-JKFIT
	 Reference Energy          =    -196.4007605587322018 [Eh]
	 Singles Energy            =      -0.0000000000000000 [Eh]
	 Same-Spin Energy          =      -0.2116638693269690 [Eh]
	 Opposite-Spin Energy      =      -0.7982591906243006 [Eh]
	 Correlation Energy        =      -1.0099230599512696 [Eh]
	 Total Energy              =    -197.4106836186834641 [Eh]

	 ================> DF-SCS-MP2 Energies <==================
	-----------------------------------------------------------
	 SCS Same-Spin Scale       =       0.3333333333333333 [-]
	 SCS Opposite-Spin Scale   =       1.2000000000000000 [-]
	 SCS Same-Spin Energy      =      -0.0705546231089896 [Eh]
	 SCS Opposite-Spin Energy  =      -0.9579110287491607 [Eh]
	 SCS Correlation Energy    =      -1.0284656518581503 [Eh]
	 SCS Total Energy          =    -197.4292262105903433 [Eh]
	-----------------------------------------------------------

  Dipole Moment: [D]
     X:     0.0000      Y:    -0.0105      Z:     0.0081     Total:     0.0133

*** Psi4 exiting successfully. Buy a developer a beer!
