                               Psi4 1.3.2 release

  ==> Input File <==

--------------------------------------------------------------------------
#psi4
#
memory 32 gb

molecule  {
0 1
  C        0.0000200     0.0000170     0.0000030
  C        1.0323080     1.1005010     0.2511920
  H        1.6485669     1.3400173    -0.6223378
  H        0.5407810     2.0585400     0.4530930
  H        1.6631030     0.8551880     1.1126530
  C       -0.8616050     0.3749750    -1.2070170
  H       -1.6102970    -0.3991140    -1.4081060
  H       -1.3889910     1.3191910    -1.0323370
  H       -0.2457010     0.4921210    -2.1054290
  C       -0.8907450    -0.1548370     1.2338820
  H       -1.6401910    -0.9387090     1.0787540
  H       -1.4184290     0.7795360     1.4545320
  H       -0.2961040    -0.4240080     2.1137440
  C        0.7200310    -1.3206420    -0.2780570
  H        1.3451780    -1.6115710     0.5732660
  H        0.0009600    -2.1265660    -0.4614120
  H        1.3656220    -1.2356900    -1.1590760
units angstrom
no_reorient  #important for SAPT in psi4, default
symmetry c1  #important for SAPT in psi4, default
}

set PROPERTIES_ORIGIN ["COM"]
properties('MP2/aug-cc-pvtz', properties = ['dipole'])
--------------------------------------------------------------------------

    Molecular point group: c1
  Charge       = 0
  Multiplicity = 1
  Basis Set: AUG-CC-PVTZ
    Blend: AUG-CC-PVTZ
  Basis Set: (AUG-CC-PVTZ AUX)
    Blend: AUG-CC-PVTZ-JKFIT

    Orbital Energies [Eh]
    ---------------------

    Doubly Occupied:

       1A    -11.229401     2A    -11.208141     3A    -11.207851
       4A    -11.207606     5A    -11.207573     6A     -1.104384
       7A     -0.927650     8A     -0.927160     9A     -0.926592
      10A     -0.730205    11A     -0.613075    12A     -0.610164
      13A     -0.607165    14A     -0.553801    15A     -0.548356
      16A     -0.511150    17A     -0.508164    18A     -0.503151
      19A     -0.454778    20A     -0.452245    21A     -0.450514

  @DF-RHF Final Energy:  -196.40286254570250

   => Energetics <=

    Nuclear Repulsion Energy =            198.7474955379365156
    One-Electron Energy =                -657.3224616239465377
    Two-Electron Energy =                 262.1721035403074893
    Total Energy =                       -196.4028625457025328
  Basis Set: (AUG-CC-PVTZ AUX)
    Blend: AUG-CC-PVTZ-RI
    Molecular point group: c1

    Geometry (in Angstrom), charge = 0, multiplicity = 1:

       Center              X                  Y                   Z               Mass
    ------------   -----------------  -----------------  -----------------  -----------------
         C            0.000514797825    -0.001508173720     0.000039626978    12.000000000000
         C            1.032802797825     1.098975826280     0.251228626978    12.000000000000
         H            1.649061697825     1.338492126280    -0.622301173022     1.007825032230
         H            0.541275797825     2.057014826280     0.453129626978     1.007825032230
         H            1.663597797825     0.853662826280     1.112689626978     1.007825032230
         C           -0.861110202175     0.373449826280    -1.206980373022    12.000000000000
         H           -1.609802202175    -0.400639173720    -1.408069373022     1.007825032230
         H           -1.388496202175     1.317665826280    -1.032300373022     1.007825032230
         H           -0.245206202175     0.490595826280    -2.105392373022     1.007825032230
         C           -0.890250202175    -0.156362173720     1.233918626978    12.000000000000
         H           -1.639696202175    -0.940234173720     1.078790626978     1.007825032230
         H           -1.417934202175     0.778010826280     1.454568626978     1.007825032230
         H           -0.295609202175    -0.425533173720     2.113780626978     1.007825032230
         C            0.720525797825    -1.322167173720    -0.278020373022    12.000000000000
         H            1.345672797825    -1.613096173720     0.573302626978     1.007825032230
         H            0.001454797825    -2.128091173720    -0.461375373022     1.007825032230
         H            1.366116797825    -1.237215173720    -1.159039373022     1.007825032230

  Basis Set: AUG-CC-PVTZ
    Blend: AUG-CC-PVTZ
  Basis Set: (AUG-CC-PVTZ AUX)
    Blend: AUG-CC-PVTZ-JKFIT
	 Reference Energy          =    -196.4028625457025043 [Eh]
	 Singles Energy            =      -0.0000000000000000 [Eh]
	 Same-Spin Energy          =      -0.2116180970279015 [Eh]
	 Opposite-Spin Energy      =      -0.7980986071679819 [Eh]
	 Correlation Energy        =      -1.0097167041958834 [Eh]
	 Total Energy              =    -197.4125792498983856 [Eh]

	 ================> DF-SCS-MP2 Energies <==================
	-----------------------------------------------------------
	 SCS Same-Spin Scale       =       0.3333333333333333 [-]
	 SCS Opposite-Spin Scale   =       1.2000000000000000 [-]
	 SCS Same-Spin Energy      =      -0.0705393656759672 [Eh]
	 SCS Opposite-Spin Energy  =      -0.9577183286015782 [Eh]
	 SCS Correlation Energy    =      -1.0282576942775454 [Eh]
	 SCS Total Energy          =    -197.4311202399800607 [Eh]
	-----------------------------------------------------------

  Dipole Moment: [D]
     X:    -0.0111      Y:     0.0296      Z:    -0.0108     Total:     0.0334

*** Psi4 exiting successfully. Buy a developer a beer!
