                               Psi4 1.3.2 release

  ==> Input File <==

--------------------------------------------------------------------------
#psi4
#
memory 32 gb

molecule  {
0 1
  C        0.0000200     0.0000170     0.0000030
  C        1.0225715     1.1140651     0.2303609
  H        1.6840120     1.2309930    -0.6196990
  H        0.5407810     2.0585400     0.4530930
  H        1.6631030     0.8551880     1.1126530
  C       -0.8616050     0.3749750    -1.2070170
  H       -1.6102970    -0.3991140    -1.4081060
  H       -1.3889910     1.3191910    -1.0323370
  H       -0.2457010     0.4921210    -2.1054290
  C       -0.8907450    -0.1548370     1.2338820
  H       -1.6401910    -0.9387090     1.0787540
  H       -1.4184290     0.7795360     1.4545320
  H       -0.2961040    -0.4240080     2.1137440
  C        0.7200310    -1.3206420    -0.2780570
  H        1.3451780    -1.6115710     0.5732660
  H        0.0009600    -2.1265660    -0.4614120
  H        1.3656220    -1.2356900    -1.1590760
units angstrom
no_reorient  #important for SAPT in psi4, default
symmetry c1  #important for SAPT in psi4, default
}

set PROPERTIES_ORIGIN ["COM"]
properties('MP2/aug-cc-pvtz', properties = ['dipole'])
--------------------------------------------------------------------------

    Molecular point group: c1
  Charge       = 0
  Multiplicity = 1
  Basis Set: AUG-CC-PVTZ
    Blend: AUG-CC-PVTZ
  Basis Set: (AUG-CC-PVTZ AUX)
    Blend: AUG-CC-PVTZ-JKFIT

    Orbital Energies [Eh]
    ---------------------

    Doubly Occupied:

       1A    -11.228735     2A    -11.208023     3A    -11.208006
       4A    -11.207893     5A    -11.207347     6A     -1.104621
       7A     -0.928038     8A     -0.927116     9A     -0.926012
      10A     -0.729086    11A     -0.612292    12A     -0.610644
      13A     -0.608120    14A     -0.553076    15A     -0.550043
      16A     -0.511532    17A     -0.508203    18A     -0.504628
      19A     -0.454261    20A     -0.453191    21A     -0.448680

  @DF-RHF Final Energy:  -196.40327525106011

   => Energetics <=

    Nuclear Repulsion Energy =            198.8265859714656187
    One-Electron Energy =                -657.4806231373567016
    Two-Electron Energy =                 262.2507619148309459
    Total Energy =                       -196.4032752510601085
  Basis Set: (AUG-CC-PVTZ AUX)
    Blend: AUG-CC-PVTZ-RI
    Molecular point group: c1

    Geometry (in Angstrom), charge = 0, multiplicity = 1:

       Center              X                  Y                   Z               Mass
    ------------   -----------------  -----------------  -----------------  -----------------
         C            0.001639935187    -0.002241824987     0.003470066308    12.000000000000
         C            1.024191435187     1.111806275013     0.233827966308    12.000000000000
         H            1.685631935187     1.228734175013    -0.616231933692     1.007825032230
         H            0.542400935187     2.056281175013     0.456560066308     1.007825032230
         H            1.664722935187     0.852929175013     1.116120066308     1.007825032230
         C           -0.859985064813     0.372716175013    -1.203549933692    12.000000000000
         H           -1.608677064813    -0.401372824987    -1.404638933692     1.007825032230
         H           -1.387371064813     1.316932175013    -1.028869933692     1.007825032230
         H           -0.244081064813     0.489862175013    -2.101961933692     1.007825032230
         C           -0.889125064813    -0.157095824987     1.237349066308    12.000000000000
         H           -1.638571064813    -0.940967824987     1.082221066308     1.007825032230
         H           -1.416809064813     0.777277175013     1.457999066308     1.007825032230
         H           -0.294484064813    -0.426266824987     2.117211066308     1.007825032230
         C            0.721650935187    -1.322900824987    -0.274589933692    12.000000000000
         H            1.346797935187    -1.613829824987     0.576733066308     1.007825032230
         H            0.002579935187    -2.128824824987    -0.457944933692     1.007825032230
         H            1.367241935187    -1.237948824987    -1.155608933692     1.007825032230

  Basis Set: AUG-CC-PVTZ
    Blend: AUG-CC-PVTZ
  Basis Set: (AUG-CC-PVTZ AUX)
    Blend: AUG-CC-PVTZ-JKFIT
	 Reference Energy          =    -196.4032752510601085 [Eh]
	 Singles Energy            =      -0.0000000000000000 [Eh]
	 Same-Spin Energy          =      -0.2116237866782211 [Eh]
	 Opposite-Spin Energy      =      -0.7981394989684316 [Eh]
	 Correlation Energy        =      -1.0097632856466527 [Eh]
	 Total Energy              =    -197.4130385367067504 [Eh]

	 ================> DF-SCS-MP2 Energies <==================
	-----------------------------------------------------------
	 SCS Same-Spin Scale       =       0.3333333333333333 [-]
	 SCS Opposite-Spin Scale   =       1.2000000000000000 [-]
	 SCS Same-Spin Energy      =      -0.0705412622260737 [Eh]
	 SCS Opposite-Spin Energy  =      -0.9577673987621179 [Eh]
	 SCS Correlation Energy    =      -1.0283086609881915 [Eh]
	 SCS Total Energy          =    -197.4315839120482963 [Eh]
	-----------------------------------------------------------

  Dipole Moment: [D]
     X:    -0.0040      Y:     0.0032      Z:    -0.0067     Total:     0.0084

*** Psi4 exiting successfully. Buy a developer a beer!
