                               Psi4 1.3.2 release

  ==> Input File <==

--------------------------------------------------------------------------
#psi4
#
memory 32 gb

molecule  {
0 1
  C       -0.0195909     0.0085411     0.0489255
  C        1.0323080     1.1005010     0.2511920
  H        1.6840120     1.2309930    -0.6196990
  H        0.5407810     2.0585400     0.4530930
  H        1.6631030     0.8551880     1.1126530
  C       -0.8616050     0.3749750    -1.2070170
  H       -1.6102970    -0.3991140    -1.4081060
  H       -1.3889910     1.3191910    -1.0323370
  H       -0.2457010     0.4921210    -2.1054290
  C       -0.8907450    -0.1548370     1.2338820
  H       -1.6401910    -0.9387090     1.0787540
  H       -1.4184290     0.7795360     1.4545320
  H       -0.2961040    -0.4240080     2.1137440
  C        0.7200310    -1.3206420    -0.2780570
  H        1.3451780    -1.6115710     0.5732660
  H        0.0009600    -2.1265660    -0.4614120
  H        1.3656220    -1.2356900    -1.1590760
units angstrom
no_reorient  #important for SAPT in psi4, default
symmetry c1  #important for SAPT in psi4, default
}

set PROPERTIES_ORIGIN ["COM"]
properties('MP2/aug-cc-pvtz', properties = ['dipole'])
--------------------------------------------------------------------------

    Molecular point group: c1
  Charge       = 0
  Multiplicity = 1
  Basis Set: AUG-CC-PVTZ
    Blend: AUG-CC-PVTZ
  Basis Set: (AUG-CC-PVTZ AUX)
    Blend: AUG-CC-PVTZ-JKFIT

    Orbital Energies [Eh]
    ---------------------

    Doubly Occupied:

       1A    -11.229002     2A    -11.208096     3A    -11.208081
       4A    -11.207976     5A    -11.207154     6A     -1.105258
       7A     -0.933030     8A     -0.925473     9A     -0.922800
      10A     -0.729031    11A     -0.612156    12A     -0.611221
      13A     -0.608006    14A     -0.551568    15A     -0.551478
      16A     -0.509021    17A     -0.508493    18A     -0.507257
      19A     -0.470150    20A     -0.446714    21A     -0.438292

  @DF-RHF Final Energy:  -196.40103930381582

   => Energetics <=

    Nuclear Repulsion Energy =            198.8258093239157347
    One-Electron Energy =                -657.4731820570852960
    Two-Electron Energy =                 262.2463334293537400
    Total Energy =                       -196.4010393038158213
  Basis Set: (AUG-CC-PVTZ AUX)
    Blend: AUG-CC-PVTZ-RI
    Molecular point group: c1

    Geometry (in Angstrom), charge = 0, multiplicity = 1:

       Center              X                  Y                   Z               Mass
    ------------   -----------------  -----------------  -----------------  -----------------
         C           -0.016327375003     0.007121180936     0.040782108342    12.000000000000
         C            1.035571524997     1.099081080936     0.243048608342    12.000000000000
         H            1.687275524997     1.229573080936    -0.627842391658     1.007825032230
         H            0.544044524997     2.057120080936     0.444949608342     1.007825032230
         H            1.666366524997     0.853768080936     1.104509608342     1.007825032230
         C           -0.858341475003     0.373555080936    -1.215160391658    12.000000000000
         H           -1.607033475003    -0.400533919064    -1.416249391658     1.007825032230
         H           -1.385727475003     1.317771080936    -1.040480391658     1.007825032230
         H           -0.242437475003     0.490701080936    -2.113572391658     1.007825032230
         C           -0.887481475003    -0.156256919064     1.225738608342    12.000000000000
         H           -1.636927475003    -0.940128919064     1.070610608342     1.007825032230
         H           -1.415165475003     0.778116080936     1.446388608342     1.007825032230
         H           -0.292840475003    -0.425427919064     2.105600608342     1.007825032230
         C            0.723294524997    -1.322061919064    -0.286200391658    12.000000000000
         H            1.348441524997    -1.612990919064     0.565122608342     1.007825032230
         H            0.004223524997    -2.127985919064    -0.469555391658     1.007825032230
         H            1.368885524997    -1.237109919064    -1.167219391658     1.007825032230

  Basis Set: AUG-CC-PVTZ
    Blend: AUG-CC-PVTZ
  Basis Set: (AUG-CC-PVTZ AUX)
    Blend: AUG-CC-PVTZ-JKFIT
	 Reference Energy          =    -196.4010393038158213 [Eh]
	 Singles Energy            =      -0.0000000000000000 [Eh]
	 Same-Spin Energy          =      -0.2117355290006985 [Eh]
	 Opposite-Spin Energy      =      -0.7983296644666023 [Eh]
	 Correlation Energy        =      -1.0100651934673008 [Eh]
	 Total Energy              =    -197.4111044972831337 [Eh]

	 ================> DF-SCS-MP2 Energies <==================
	-----------------------------------------------------------
	 SCS Same-Spin Scale       =       0.3333333333333333 [-]
	 SCS Opposite-Spin Scale   =       1.2000000000000000 [-]
	 SCS Same-Spin Energy      =      -0.0705785096668995 [Eh]
	 SCS Opposite-Spin Energy  =      -0.9579955973599227 [Eh]
	 SCS Correlation Energy    =      -1.0285741070268222 [Eh]
	 SCS Total Energy          =    -197.4296134108426486 [Eh]
	-----------------------------------------------------------

  Dipole Moment: [D]
     X:    -0.0084      Y:     0.0043      Z:     0.0222     Total:     0.0241

*** Psi4 exiting successfully. Buy a developer a beer!
