                               Psi4 1.3.2 release

  ==> Input File <==

--------------------------------------------------------------------------
#psi4
#
memory 32 gb

molecule  {
0 1
  C        0.0000200     0.0000170     0.0000030
  C        1.0323080     1.1005010     0.2511920
  H        1.7434993     1.2429043    -0.6991936
  H        0.5407810     2.0585400     0.4530930
  H        1.6631030     0.8551880     1.1126530
  C       -0.8616050     0.3749750    -1.2070170
  H       -1.6102970    -0.3991140    -1.4081060
  H       -1.3889910     1.3191910    -1.0323370
  H       -0.2457010     0.4921210    -2.1054290
  C       -0.8907450    -0.1548370     1.2338820
  H       -1.6401910    -0.9387090     1.0787540
  H       -1.4184290     0.7795360     1.4545320
  H       -0.2961040    -0.4240080     2.1137440
  C        0.7200310    -1.3206420    -0.2780570
  H        1.3451780    -1.6115710     0.5732660
  H        0.0009600    -2.1265660    -0.4614120
  H        1.3656220    -1.2356900    -1.1590760
units angstrom
no_reorient  #important for SAPT in psi4, default
symmetry c1  #important for SAPT in psi4, default
}

set PROPERTIES_ORIGIN ["COM"]
properties('MP2/aug-cc-pvtz', properties = ['dipole'])
--------------------------------------------------------------------------

    Molecular point group: c1
  Charge       = 0
  Multiplicity = 1
  Basis Set: AUG-CC-PVTZ
    Blend: AUG-CC-PVTZ
  Basis Set: (AUG-CC-PVTZ AUX)
    Blend: AUG-CC-PVTZ-JKFIT

    Orbital Energies [Eh]
    ---------------------

    Doubly Occupied:

       1A    -11.229935     2A    -11.219962     3A    -11.209069
       4A    -11.207903     5A    -11.207885     6A     -1.104474
       7A     -0.927779     8A     -0.927167     9A     -0.920173
      10A     -0.727725    11A     -0.611299    12A     -0.610905
      13A     -0.605223    14A     -0.552246    15A     -0.547417
      16A     -0.509121    17A     -0.508553    18A     -0.499177
      19A     -0.453492    20A     -0.452758    21A     -0.449912

  @DF-RHF Final Energy:  -196.39760892914745

   => Energetics <=

    Nuclear Repulsion Energy =            198.4289249976442591
    One-Electron Energy =                -656.6887211765748589
    Two-Electron Energy =                 261.8621872497831760
    Total Energy =                       -196.3976089291474523
  Basis Set: (AUG-CC-PVTZ AUX)
    Blend: AUG-CC-PVTZ-RI
    Molecular point group: c1

    Geometry (in Angstrom), charge = 0, multiplicity = 1:

       Center              X                  Y                   Z               Mass
    ------------   -----------------  -----------------  -----------------  -----------------
         C           -0.000812294323    -0.000150598227     0.001114020217    12.000000000000
         C            1.031475705677     1.100333401773     0.252303020217    12.000000000000
         H            1.742667005677     1.242736701773    -0.698082579783     1.007825032230
         H            0.539948705677     2.058372401773     0.454204020217     1.007825032230
         H            1.662270705677     0.855020401773     1.113764020217     1.007825032230
         C           -0.862437294323     0.374807401773    -1.205905979783    12.000000000000
         H           -1.611129294323    -0.399281598227    -1.406994979783     1.007825032230
         H           -1.389823294323     1.319023401773    -1.031225979783     1.007825032230
         H           -0.246533294323     0.491953401773    -2.104317979783     1.007825032230
         C           -0.891577294323    -0.155004598227     1.234993020217    12.000000000000
         H           -1.641023294323    -0.938876598227     1.079865020217     1.007825032230
         H           -1.419261294323     0.779368401773     1.455643020217     1.007825032230
         H           -0.296936294323    -0.424175598227     2.114855020217     1.007825032230
         C            0.719198705677    -1.320809598227    -0.276945979783    12.000000000000
         H            1.344345705677    -1.611738598227     0.574377020217     1.007825032230
         H            0.000127705677    -2.126733598227    -0.460300979783     1.007825032230
         H            1.364789705677    -1.235857598227    -1.157964979783     1.007825032230

  Basis Set: AUG-CC-PVTZ
    Blend: AUG-CC-PVTZ
  Basis Set: (AUG-CC-PVTZ AUX)
    Blend: AUG-CC-PVTZ-JKFIT
	 Reference Energy          =    -196.3976089291474523 [Eh]
	 Singles Energy            =      -0.0000000000000000 [Eh]
	 Same-Spin Energy          =      -0.2116278136946304 [Eh]
	 Opposite-Spin Energy      =      -0.7988460070751691 [Eh]
	 Correlation Energy        =      -1.0104738207697994 [Eh]
	 Total Energy              =    -197.4080827499172415 [Eh]

	 ================> DF-SCS-MP2 Energies <==================
	-----------------------------------------------------------
	 SCS Same-Spin Scale       =       0.3333333333333333 [-]
	 SCS Opposite-Spin Scale   =       1.2000000000000000 [-]
	 SCS Same-Spin Energy      =      -0.0705426045648768 [Eh]
	 SCS Opposite-Spin Energy  =      -0.9586152084902029 [Eh]
	 SCS Correlation Energy    =      -1.0291578130550796 [Eh]
	 SCS Total Energy          =    -197.4267667422025454 [Eh]
	-----------------------------------------------------------

  Dipole Moment: [D]
     X:    -0.0602      Y:    -0.0253      Z:     0.0562     Total:     0.0861

*** Psi4 exiting successfully. Buy a developer a beer!
