                               Psi4 1.3.2 release

  ==> Input File <==

--------------------------------------------------------------------------
#psi4
#
memory 32 gb

molecule  {
0 1
  C        0.0000200     0.0000170     0.0000030
  C        1.0323080     1.1005010     0.2511920
  H        1.6729727     1.2675527    -0.6216424
  H        0.5407810     2.0585400     0.4530930
  H        1.6631030     0.8551880     1.1126530
  C       -0.8616050     0.3749750    -1.2070170
  H       -1.6102970    -0.3991140    -1.4081060
  H       -1.3889910     1.3191910    -1.0323370
  H       -0.2457010     0.4921210    -2.1054290
  C       -0.8907450    -0.1548370     1.2338820
  H       -1.6401910    -0.9387090     1.0787540
  H       -1.4184290     0.7795360     1.4545320
  H       -0.2961040    -0.4240080     2.1137440
  C        0.7200310    -1.3206420    -0.2780570
  H        1.3451780    -1.6115710     0.5732660
  H        0.0009600    -2.1265660    -0.4614120
  H        1.3656220    -1.2356900    -1.1590760
units angstrom
no_reorient  #important for SAPT in psi4, default
symmetry c1  #important for SAPT in psi4, default
}

set PROPERTIES_ORIGIN ["COM"]
properties('MP2/aug-cc-pvtz', properties = ['dipole'])
--------------------------------------------------------------------------

    Molecular point group: c1
  Charge       = 0
  Multiplicity = 1
  Basis Set: AUG-CC-PVTZ
    Blend: AUG-CC-PVTZ
  Basis Set: (AUG-CC-PVTZ AUX)
    Blend: AUG-CC-PVTZ-JKFIT

    Orbital Energies [Eh]
    ---------------------

    Doubly Occupied:

       1A    -11.228910     2A    -11.207904     3A    -11.207795
       4A    -11.207716     5A    -11.207692     6A     -1.104499
       7A     -0.927192     8A     -0.927059     9A     -0.926850
      10A     -0.729364    11A     -0.611147    12A     -0.610211
      13A     -0.609147    14A     -0.552252    15A     -0.550397
      16A     -0.509214    17A     -0.508178    18A     -0.506645
      19A     -0.453080    20A     -0.452169    21A     -0.451661

  @DF-RHF Final Energy:  -196.40392583303088

   => Energetics <=

    Nuclear Repulsion Energy =            198.7976005807127535
    One-Electron Energy =                -657.4248912175985424
    Two-Electron Energy =                 262.2233648038549063
    Total Energy =                       -196.4039258330308826
  Basis Set: (AUG-CC-PVTZ AUX)
    Blend: AUG-CC-PVTZ-RI
    Molecular point group: c1

    Geometry (in Angstrom), charge = 0, multiplicity = 1:

       Center              X                  Y                   Z               Mass
    ------------   -----------------  -----------------  -----------------  -----------------
         C            0.000173620887    -0.000495166552     0.000029905746    12.000000000000
         C            1.032461620887     1.099988833448     0.251218905746    12.000000000000
         H            1.673126320887     1.267040533448    -0.621615494254     1.007825032230
         H            0.540934620887     2.058027833448     0.453119905746     1.007825032230
         H            1.663256620887     0.854675833448     1.112679905746     1.007825032230
         C           -0.861451379113     0.374462833448    -1.206990094254    12.000000000000
         H           -1.610143379113    -0.399626166552    -1.408079094254     1.007825032230
         H           -1.388837379113     1.318678833448    -1.032310094254     1.007825032230
         H           -0.245547379113     0.491608833448    -2.105402094254     1.007825032230
         C           -0.890591379113    -0.155349166552     1.233908905746    12.000000000000
         H           -1.640037379113    -0.939221166552     1.078780905746     1.007825032230
         H           -1.418275379113     0.779023833448     1.454558905746     1.007825032230
         H           -0.295950379113    -0.424520166552     2.113770905746     1.007825032230
         C            0.720184620887    -1.321154166552    -0.278030094254    12.000000000000
         H            1.345331620887    -1.612083166552     0.573292905746     1.007825032230
         H            0.001113620887    -2.127078166552    -0.461385094254     1.007825032230
         H            1.365775620887    -1.236202166552    -1.159049094254     1.007825032230

  Basis Set: AUG-CC-PVTZ
    Blend: AUG-CC-PVTZ
  Basis Set: (AUG-CC-PVTZ AUX)
    Blend: AUG-CC-PVTZ-JKFIT
	 Reference Energy          =    -196.4039258330308826 [Eh]
	 Singles Energy            =      -0.0000000000000000 [Eh]
	 Same-Spin Energy          =      -0.2115986429338542 [Eh]
	 Opposite-Spin Energy      =      -0.7980773321000347 [Eh]
	 Correlation Energy        =      -1.0096759750338888 [Eh]
	 Total Energy              =    -197.4136018080647830 [Eh]

	 ================> DF-SCS-MP2 Energies <==================
	-----------------------------------------------------------
	 SCS Same-Spin Scale       =       0.3333333333333333 [-]
	 SCS Opposite-Spin Scale   =       1.2000000000000000 [-]
	 SCS Same-Spin Energy      =      -0.0705328809779514 [Eh]
	 SCS Opposite-Spin Energy  =      -0.9576927985200416 [Eh]
	 SCS Correlation Energy    =      -1.0282256794979929 [Eh]
	 SCS Total Energy          =    -197.4321515125288897 [Eh]
	-----------------------------------------------------------

  Dipole Moment: [D]
     X:    -0.0031      Y:     0.0095      Z:    -0.0039     Total:     0.0108

*** Psi4 exiting successfully. Buy a developer a beer!
