                               Psi4 1.3.2 release

  ==> Input File <==

--------------------------------------------------------------------------
#psi4
#
memory 32 gb

molecule  {
0 1
  C        0.0000200     0.0000170     0.0000030
  C        0.9915055     1.1527052     0.1674720
  H        1.6840120     1.2309930    -0.6196990
  H        0.5407810     2.0585400     0.4530930
  H        1.6631030     0.8551880     1.1126530
  C       -0.8616050     0.3749750    -1.2070170
  H       -1.6102970    -0.3991140    -1.4081060
  H       -1.3889910     1.3191910    -1.0323370
  H       -0.2457010     0.4921210    -2.1054290
  C       -0.8907450    -0.1548370     1.2338820
  H       -1.6401910    -0.9387090     1.0787540
  H       -1.4184290     0.7795360     1.4545320
  H       -0.2961040    -0.4240080     2.1137440
  C        0.7200310    -1.3206420    -0.2780570
  H        1.3451780    -1.6115710     0.5732660
  H        0.0009600    -2.1265660    -0.4614120
  H        1.3656220    -1.2356900    -1.1590760
units angstrom
no_reorient  #important for SAPT in psi4, default
symmetry c1  #important for SAPT in psi4, default
}

set PROPERTIES_ORIGIN ["COM"]
properties('MP2/aug-cc-pvtz', properties = ['dipole'])
--------------------------------------------------------------------------

    Molecular point group: c1
  Charge       = 0
  Multiplicity = 1
  Basis Set: AUG-CC-PVTZ
    Blend: AUG-CC-PVTZ
  Basis Set: (AUG-CC-PVTZ AUX)
    Blend: AUG-CC-PVTZ-JKFIT

    Orbital Energies [Eh]
    ---------------------

    Doubly Occupied:

       1A    -11.229562     2A    -11.209791     3A    -11.208925
       4A    -11.208906     5A    -11.206473     6A     -1.105281
       7A     -0.931667     8A     -0.927639     9A     -0.923740
      10A     -0.730479    11A     -0.620189    12A     -0.612088
      13A     -0.603686    14A     -0.558598    15A     -0.546580
      16A     -0.519598    17A     -0.508472    18A     -0.493684
      19A     -0.460438    20A     -0.455759    21A     -0.435709

  @DF-RHF Final Energy:  -196.39288533714665

   => Energetics <=

    Nuclear Repulsion Energy =            198.8477546982696538
    One-Electron Energy =                -657.4867524194717134
    Two-Electron Energy =                 262.2461123840553796
    Total Energy =                       -196.3928853371466516
  Basis Set: (AUG-CC-PVTZ AUX)
    Blend: AUG-CC-PVTZ-RI
    Molecular point group: c1

    Geometry (in Angstrom), charge = 0, multiplicity = 1:

       Center              X                  Y                   Z               Mass
    ------------   -----------------  -----------------  -----------------  -----------------
         C            0.006810858081    -0.008673453703     0.013937897788    12.000000000000
         C            0.998296358081     1.144014746297     0.181406897788    12.000000000000
         H            1.690802858081     1.222302546297    -0.605764102212     1.007825032230
         H            0.547571858081     2.049849546297     0.467027897788     1.007825032230
         H            1.669893858081     0.846497546297     1.126587897788     1.007825032230
         C           -0.854814141919     0.366284546297    -1.193082102212    12.000000000000
         H           -1.603506141919    -0.407804453703    -1.394171102212     1.007825032230
         H           -1.382200141919     1.310500546297    -1.018402102212     1.007825032230
         H           -0.238910141919     0.483430546297    -2.091494102212     1.007825032230
         C           -0.883954141919    -0.163527453703     1.247816897788    12.000000000000
         H           -1.633400141919    -0.947399453703     1.092688897788     1.007825032230
         H           -1.411638141919     0.770845546297     1.468466897788     1.007825032230
         H           -0.289313141919    -0.432698453703     2.127678897788     1.007825032230
         C            0.726821858081    -1.329332453703    -0.264122102212    12.000000000000
         H            1.351968858081    -1.620261453703     0.587200897788     1.007825032230
         H            0.007750858081    -2.135256453703    -0.447477102212     1.007825032230
         H            1.372412858081    -1.244380453703    -1.145141102212     1.007825032230

  Basis Set: AUG-CC-PVTZ
    Blend: AUG-CC-PVTZ
  Basis Set: (AUG-CC-PVTZ AUX)
    Blend: AUG-CC-PVTZ-JKFIT
	 Reference Energy          =    -196.3928853371466516 [Eh]
	 Singles Energy            =      -0.0000000000000000 [Eh]
	 Same-Spin Energy          =      -0.2118164955224029 [Eh]
	 Opposite-Spin Energy      =      -0.7987002660118849 [Eh]
	 Correlation Energy        =      -1.0105167615342878 [Eh]
	 Total Energy              =    -197.4034020986809423 [Eh]

	 ================> DF-SCS-MP2 Energies <==================
	-----------------------------------------------------------
	 SCS Same-Spin Scale       =       0.3333333333333333 [-]
	 SCS Opposite-Spin Scale   =       1.2000000000000000 [-]
	 SCS Same-Spin Energy      =      -0.0706054985074676 [Eh]
	 SCS Opposite-Spin Energy  =      -0.9584403192142619 [Eh]
	 SCS Correlation Energy    =      -1.0290458177217294 [Eh]
	 SCS Total Energy          =    -197.4219311548683891 [Eh]
	-----------------------------------------------------------

  Dipole Moment: [D]
     X:    -0.0309      Y:     0.0051      Z:    -0.0369     Total:     0.0484

*** Psi4 exiting successfully. Buy a developer a beer!
