                               Psi4 1.3.2 release

  ==> Input File <==

--------------------------------------------------------------------------
#psi4
#
memory 32 gb

molecule  {
0 1
  C        0.0000200     0.0000170     0.0000030
  C        1.0323080     1.1005010     0.2511920
  H        1.6840120     1.2309930    -0.6196990
  H        0.5407810     2.0585400     0.4530930
  H        1.6631030     0.8551880     1.1126530
  C       -0.8616050     0.3749750    -1.2070170
  H       -1.6102970    -0.3991140    -1.4081060
  H       -1.3889910     1.3191910    -1.0323370
  H       -0.2457010     0.4921210    -2.1054290
  C       -0.8907450    -0.1548370     1.2338820
  H       -1.6401910    -0.9387090     1.0787540
  H       -1.4184290     0.7795360     1.4545320
  H       -0.2961040    -0.4240080     2.1137440
  C        0.7200310    -1.3206420    -0.2780570
  H        1.3451780    -1.6115710     0.5732660
  H        0.0009600    -2.1265660    -0.4614120
  H        1.3656220    -1.2356900    -1.1590760
units angstrom
no_reorient  #important for SAPT in psi4, default
symmetry c1  #important for SAPT in psi4, default
}

set PROPERTIES_ORIGIN ["COM"]
properties('MP2/aug-cc-pvtz', properties = ['dipole'])
--------------------------------------------------------------------------

    Molecular point group: c1
  Charge       = 0
  Multiplicity = 1
  Basis Set: AUG-CC-PVTZ
    Blend: AUG-CC-PVTZ
  Basis Set: (AUG-CC-PVTZ AUX)
    Blend: AUG-CC-PVTZ-JKFIT

    Orbital Energies [Eh]
    ---------------------

    Doubly Occupied:

       1A    -11.228678     2A    -11.207780     3A    -11.207780
       4A    -11.207779     5A    -11.207742     6A     -1.104577
       7A     -0.927013     8A     -0.927009     9A     -0.927006
      10A     -0.728973    11A     -0.610242    12A     -0.610238
      13A     -0.610237    14A     -0.551493    15A     -0.551492
      16A     -0.508190    17A     -0.508188    18A     -0.508186
      19A     -0.452145    20A     -0.452135    21A     -0.452133

  @DF-RHF Final Energy:  -196.40403372583671

   => Energetics <=

    Nuclear Repulsion Energy =            198.8249732051328351
    One-Electron Energy =                -657.4799783795585881
    Two-Electron Energy =                 262.2509714485890413
    Total Energy =                       -196.4040337258367117
  Basis Set: (AUG-CC-PVTZ AUX)
    Blend: AUG-CC-PVTZ-RI
    Molecular point group: c1

    Geometry (in Angstrom), charge = 0, multiplicity = 1:

       Center              X                  Y                   Z               Mass
    ------------   -----------------  -----------------  -----------------  -----------------
         C            0.000019298776     0.000015913867     0.000002738300    12.000000000000
         C            1.032307298776     1.100499913867     0.251191738300    12.000000000000
         H            1.684011298776     1.230991913867    -0.619699261700     1.007825032230
         H            0.540780298776     2.058538913867     0.453092738300     1.007825032230
         H            1.663102298776     0.855186913867     1.112652738300     1.007825032230
         C           -0.861605701224     0.374973913867    -1.207017261700    12.000000000000
         H           -1.610297701224    -0.399115086133    -1.408106261700     1.007825032230
         H           -1.388991701224     1.319189913867    -1.032337261700     1.007825032230
         H           -0.245701701224     0.492119913867    -2.105429261700     1.007825032230
         C           -0.890745701224    -0.154838086133     1.233881738300    12.000000000000
         H           -1.640191701224    -0.938710086133     1.078753738300     1.007825032230
         H           -1.418429701224     0.779534913867     1.454531738300     1.007825032230
         H           -0.296104701224    -0.424009086133     2.113743738300     1.007825032230
         C            0.720030298776    -1.320643086133    -0.278057261700    12.000000000000
         H            1.345177298776    -1.611572086133     0.573265738300     1.007825032230
         H            0.000959298776    -2.126567086133    -0.461412261700     1.007825032230
         H            1.365621298776    -1.235691086133    -1.159076261700     1.007825032230

  Basis Set: AUG-CC-PVTZ
    Blend: AUG-CC-PVTZ
  Basis Set: (AUG-CC-PVTZ AUX)
    Blend: AUG-CC-PVTZ-JKFIT
	 Reference Energy          =    -196.4040337258367117 [Eh]
	 Singles Energy            =      -0.0000000000000000 [Eh]
	 Same-Spin Energy          =      -0.2116107311645458 [Eh]
	 Opposite-Spin Energy      =      -0.7981009787265474 [Eh]
	 Correlation Energy        =      -1.0097117098910933 [Eh]
	 Total Energy              =    -197.4137454357278045 [Eh]

	 ================> DF-SCS-MP2 Energies <==================
	-----------------------------------------------------------
	 SCS Same-Spin Scale       =       0.3333333333333333 [-]
	 SCS Opposite-Spin Scale   =       1.2000000000000000 [-]
	 SCS Same-Spin Energy      =      -0.0705369103881819 [Eh]
	 SCS Opposite-Spin Energy  =      -0.9577211744718568 [Eh]
	 SCS Correlation Energy    =      -1.0282580848600387 [Eh]
	 SCS Total Energy          =    -197.4322918106967393 [Eh]
	-----------------------------------------------------------

  Dipole Moment: [D]
     X:     0.0000      Y:     0.0000      Z:    -0.0000     Total:     0.0000

*** Psi4 exiting successfully. Buy a developer a beer!
