                               Psi4 1.3.2 release

  ==> Input File <==

--------------------------------------------------------------------------
#psi4
#
memory 32 gb

molecule  {
0 1
  C        0.0000200     0.0000170     0.0000030
  C        1.0323080     1.1005010     0.2511920
  H        1.8029865     1.2548155    -0.7786881
  H        0.5407810     2.0585400     0.4530930
  H        1.6631030     0.8551880     1.1126530
  C       -0.8616050     0.3749750    -1.2070170
  H       -1.6102970    -0.3991140    -1.4081060
  H       -1.3889910     1.3191910    -1.0323370
  H       -0.2457010     0.4921210    -2.1054290
  C       -0.8907450    -0.1548370     1.2338820
  H       -1.6401910    -0.9387090     1.0787540
  H       -1.4184290     0.7795360     1.4545320
  H       -0.2961040    -0.4240080     2.1137440
  C        0.7200310    -1.3206420    -0.2780570
  H        1.3451780    -1.6115710     0.5732660
  H        0.0009600    -2.1265660    -0.4614120
  H        1.3656220    -1.2356900    -1.1590760
units angstrom
no_reorient  #important for SAPT in psi4, default
symmetry c1  #important for SAPT in psi4, default
}

set PROPERTIES_ORIGIN ["COM"]
properties('MP2/aug-cc-pvtz', properties = ['dipole'])
--------------------------------------------------------------------------

    Molecular point group: c1
  Charge       = 0
  Multiplicity = 1
  Basis Set: AUG-CC-PVTZ
    Blend: AUG-CC-PVTZ
  Basis Set: (AUG-CC-PVTZ AUX)
    Blend: AUG-CC-PVTZ-JKFIT

    Orbital Energies [Eh]
    ---------------------

    Doubly Occupied:

       1A    -11.231743     2A    -11.231129     3A    -11.210616
       4A    -11.208117     5A    -11.208099     6A     -1.104900
       7A     -0.928714     8A     -0.927426     9A     -0.915921
      10A     -0.727253    11A     -0.612632    12A     -0.611763
      13A     -0.602036    14A     -0.553257    15A     -0.545029
      16A     -0.510281    17A     -0.509026    18A     -0.489620
      19A     -0.455108    20A     -0.453557    21A     -0.445596

  @DF-RHF Final Energy:  -196.38427631587510

   => Energetics <=

    Nuclear Repulsion Energy =            198.0737508316532001
    One-Electron Energy =                -655.9524066477578117
    Two-Electron Energy =                 261.4943795002295133
    Total Energy =                       -196.3842763158750699
  Basis Set: (AUG-CC-PVTZ AUX)
    Blend: AUG-CC-PVTZ-RI
    Molecular point group: c1

    Geometry (in Angstrom), charge = 0, multiplicity = 1:

       Center              X                  Y                   Z               Mass
    ------------   -----------------  -----------------  -----------------  -----------------
         C           -0.001643886024    -0.000317108923     0.002225300736    12.000000000000
         C            1.030644113976     1.100166891077     0.253414300736    12.000000000000
         H            1.801322613976     1.254481391077    -0.776465799264     1.007825032230
         H            0.539117113976     2.058205891077     0.455315300736     1.007825032230
         H            1.661439113976     0.854853891077     1.114875300736     1.007825032230
         C           -0.863268886024     0.374640891077    -1.204794699264    12.000000000000
         H           -1.611960886024    -0.399448108923    -1.405883699264     1.007825032230
         H           -1.390654886024     1.318856891077    -1.030114699264     1.007825032230
         H           -0.247364886024     0.491786891077    -2.103206699264     1.007825032230
         C           -0.892408886024    -0.155171108923     1.236104300736    12.000000000000
         H           -1.641854886024    -0.939043108923     1.080976300736     1.007825032230
         H           -1.420092886024     0.779201891077     1.456754300736     1.007825032230
         H           -0.297767886024    -0.424342108923     2.115966300736     1.007825032230
         C            0.718367113976    -1.320976108923    -0.275834699264    12.000000000000
         H            1.343514113976    -1.611905108923     0.575488300736     1.007825032230
         H           -0.000703886024    -2.126900108923    -0.459189699264     1.007825032230
         H            1.363958113976    -1.236024108923    -1.156853699264     1.007825032230

  Basis Set: AUG-CC-PVTZ
    Blend: AUG-CC-PVTZ
  Basis Set: (AUG-CC-PVTZ AUX)
    Blend: AUG-CC-PVTZ-JKFIT
	 Reference Energy          =    -196.3842763158750984 [Eh]
	 Singles Energy            =      -0.0000000000000000 [Eh]
	 Same-Spin Energy          =      -0.2116356210554238 [Eh]
	 Opposite-Spin Energy      =      -0.7997249818132413 [Eh]
	 Correlation Energy        =      -1.0113606028686650 [Eh]
	 Total Energy              =    -197.3956369187437758 [Eh]

	 ================> DF-SCS-MP2 Energies <==================
	-----------------------------------------------------------
	 SCS Same-Spin Scale       =       0.3333333333333333 [-]
	 SCS Opposite-Spin Scale   =       1.2000000000000000 [-]
	 SCS Same-Spin Energy      =      -0.0705452070184746 [Eh]
	 SCS Opposite-Spin Energy  =      -0.9596699781758895 [Eh]
	 SCS Correlation Energy    =      -1.0302151851943642 [Eh]
	 SCS Total Energy          =    -197.4144915010694490 [Eh]
	-----------------------------------------------------------

  Dipole Moment: [D]
     X:    -0.1314      Y:    -0.0552      Z:     0.1229     Total:     0.1882

*** Psi4 exiting successfully. Buy a developer a beer!
