                               Psi4 1.4a3.dev225

  ==> Input File <==

--------------------------------------------------------------------------
#psi4
#
memory 32 gb

molecule  {
0 1
  C        0.0000000     0.0000000     0.0000010
  C        0.3472150     0.0817990     1.4875160
  H        0.9922123     0.8826766     1.6764334
  H       -0.5552030     0.2238040     2.0922020
  H        0.8398860    -0.8366930     1.8248780
  C       -0.6850330     1.2964610    -0.4357480
  H       -0.9443620     1.2629370    -1.4996040
  H       -1.6069860     1.4613930     0.1325540
  H       -0.0287410     2.1586270    -0.2741370
  C       -0.9430840    -1.1803730    -0.2393110
  H       -1.2073380    -1.2607230    -1.2994430
  H       -1.8698920    -1.0622760     0.3327440
  H       -0.4747760    -2.1227260     0.0653640
  C        1.2809020    -0.1978880    -0.8124580
  H        1.7912680    -1.1216440    -0.5185760
  H        1.0587200    -0.2597050    -1.8834300
  H        1.9743670     0.6360310    -0.6580170
units angstrom
no_reorient  #important for SAPT in psi4, default
symmetry c1  #important for SAPT in psi4, default
}

set PROPERTIES_ORIGIN ["COM"]
properties('MP2/aug-cc-pvtz', properties = ['dipole'])
--------------------------------------------------------------------------

    Molecular point group: c1
  Charge       = 0
  Multiplicity = 1
  Basis Set: AUG-CC-PVTZ
    Blend: AUG-CC-PVTZ
  Basis Set: (AUG-CC-PVTZ AUX)
    Blend: AUG-CC-PVTZ-JKFIT

    Orbital Energies [Eh]
    ---------------------

    Doubly Occupied:

       1A    -11.228174     2A    -11.207744     3A    -11.207726
       4A    -11.207215     5A    -11.201442     6A     -1.104845
       7A     -0.931594     8A     -0.926963     9A     -0.926685
      10A     -0.729954    11A     -0.613573    12A     -0.609965
      13A     -0.609800    14A     -0.554075    15A     -0.551195
      16A     -0.511849    17A     -0.508039    18A     -0.507811
      19A     -0.452822    20A     -0.451897    21A     -0.451582

  @DF-RHF Final Energy:  -196.40306650876244

   => Energetics <=

    Nuclear Repulsion Energy =            199.0375721137432095
    One-Electron Energy =                -657.8913758025122434
    Two-Electron Energy =                 262.4507371800066267
    Total Energy =                       -196.4030665087624357
  Basis Set: (AUG-CC-PVTZ AUX)
    Blend: AUG-CC-PVTZ-RI
    Molecular point group: c1

    Geometry (in Angstrom), charge = 0, multiplicity = 1:

       Center              X                  Y                   Z               Mass
    ------------   -----------------  -----------------  -----------------  -----------------
         C            0.000431188500     0.000535552745     0.000127255793    12.000000000000
         C            0.347646188500     0.082334552745     1.487642255793    12.000000000000
         H            0.992643488500     0.883212152745     1.676559655793     1.007825032230
         H           -0.554771811500     0.224339552745     2.092328255793     1.007825032230
         H            0.840317188500    -0.836157447255     1.825004255793     1.007825032230
         C           -0.684601811500     1.296996552745    -0.435621744207    12.000000000000
         H           -0.943930811500     1.263472552745    -1.499477744207     1.007825032230
         H           -1.606554811500     1.461928552745     0.132680255793     1.007825032230
         H           -0.028309811500     2.159162552745    -0.274010744207     1.007825032230
         C           -0.942652811500    -1.179837447255    -0.239184744207    12.000000000000
         H           -1.206906811500    -1.260187447255    -1.299316744207     1.007825032230
         H           -1.869460811500    -1.061740447255     0.332870255793     1.007825032230
         H           -0.474344811500    -2.122190447255     0.065490255793     1.007825032230
         C            1.281333188500    -0.197352447255    -0.812331744207    12.000000000000
         H            1.791699188500    -1.121108447255    -0.518449744207     1.007825032230
         H            1.059151188500    -0.259169447255    -1.883303744207     1.007825032230
         H            1.974798188500     0.636566552745    -0.657890744207     1.007825032230

  Basis Set: AUG-CC-PVTZ
    Blend: AUG-CC-PVTZ
  Basis Set: (AUG-CC-PVTZ AUX)
    Blend: AUG-CC-PVTZ-JKFIT
	 Reference Energy          =    -196.4030665087624357 [Eh]
	 Singles Energy            =      -0.0000000000000000 [Eh]
	 Same-Spin Energy          =      -0.2116041472694484 [Eh]
	 Opposite-Spin Energy      =      -0.7978028653330080 [Eh]
	 Correlation Energy        =      -1.0094070126024564 [Eh]
	 Total Energy              =    -197.4124735213648876 [Eh]

	 ================> DF-SCS-MP2 Energies <==================
	-----------------------------------------------------------
	 SCS Same-Spin Scale       =       0.3333333333333333 [-]
	 SCS Opposite-Spin Scale   =       1.2000000000000000 [-]
	 SCS Same-Spin Energy      =      -0.0705347157564828 [Eh]
	 SCS Opposite-Spin Energy  =      -0.9573634383996096 [Eh]
	 SCS Correlation Energy    =      -1.0278981541560923 [Eh]
	 SCS Total Energy          =    -197.4309646629185409 [Eh]
	-----------------------------------------------------------

  Dipole Moment: [D]
     X:     0.0219      Y:     0.0250      Z:     0.0153     Total:     0.0366

*** Psi4 exiting successfully. Buy a developer a beer!
