                               Psi4 1.3.2 release

  ==> Input File <==

--------------------------------------------------------------------------
#psi4
#
memory 32 gb

molecule  {
0 1
  C       -0.0379203     0.0183956     0.0980945
  C        1.0323080     1.1005010     0.2511920
  H        1.6840120     1.2309930    -0.6196990
  H        0.5407810     2.0585400     0.4530930
  H        1.6631030     0.8551880     1.1126530
  C       -0.8616050     0.3749750    -1.2070170
  H       -1.6102970    -0.3991140    -1.4081060
  H       -1.3889910     1.3191910    -1.0323370
  H       -0.2457010     0.4921210    -2.1054290
  C       -0.8907450    -0.1548370     1.2338820
  H       -1.6401910    -0.9387090     1.0787540
  H       -1.4184290     0.7795360     1.4545320
  H       -0.2961040    -0.4240080     2.1137440
  C        0.7200310    -1.3206420    -0.2780570
  H        1.3451780    -1.6115710     0.5732660
  H        0.0009600    -2.1265660    -0.4614120
  H        1.3656220    -1.2356900    -1.1590760
units angstrom
no_reorient  #important for SAPT in psi4, default
symmetry c1  #important for SAPT in psi4, default
}

set PROPERTIES_ORIGIN ["COM"]
properties('MP2/aug-cc-pvtz', properties = ['dipole'])
--------------------------------------------------------------------------

    Molecular point group: c1
  Charge       = 0
  Multiplicity = 1
  Basis Set: AUG-CC-PVTZ
    Blend: AUG-CC-PVTZ
  Basis Set: (AUG-CC-PVTZ AUX)
    Blend: AUG-CC-PVTZ-JKFIT

    Orbital Energies [Eh]
    ---------------------

    Doubly Occupied:

       1A    -11.229926     2A    -11.208600     3A    -11.208561
       4A    -11.208544     5A    -11.206243     6A     -1.107469
       7A     -0.939215     8A     -0.924002     9A     -0.918811
      10A     -0.729180    11A     -0.614667    12A     -0.612978
      13A     -0.605790    14A     -0.551789    15A     -0.551406
      16A     -0.510172    17A     -0.508843    18A     -0.506424
      19A     -0.487159    20A     -0.440289    21A     -0.423840

  @DF-RHF Final Energy:  -196.39168860910766

   => Energetics <=

    Nuclear Repulsion Energy =            198.8314352783340269
    One-Electron Energy =                -657.4584300296023684
    Two-Electron Energy =                 262.2353061421606526
    Total Energy =                       -196.3916886091076890
  Basis Set: (AUG-CC-PVTZ AUX)
    Blend: AUG-CC-PVTZ-RI
    Molecular point group: c1

    Geometry (in Angstrom), charge = 0, multiplicity = 1:

       Center              X                  Y                   Z               Mass
    ------------   -----------------  -----------------  -----------------  -----------------
         C           -0.031605853929     0.015335403473     0.081766948561    12.000000000000
         C            1.038622446071     1.097440803473     0.234864448561    12.000000000000
         H            1.690326446071     1.227932803473    -0.636026551439     1.007825032230
         H            0.547095446071     2.055479803473     0.436765448561     1.007825032230
         H            1.669417446071     0.852127803473     1.096325448561     1.007825032230
         C           -0.855290553929     0.371914803473    -1.223344551439    12.000000000000
         H           -1.603982553929    -0.402174196527    -1.424433551439     1.007825032230
         H           -1.382676553929     1.316130803473    -1.048664551439     1.007825032230
         H           -0.239386553929     0.489060803473    -2.121756551439     1.007825032230
         C           -0.884430553929    -0.157897196527     1.217554448561    12.000000000000
         H           -1.633876553929    -0.941769196527     1.062426448561     1.007825032230
         H           -1.412114553929     0.776475803473     1.438204448561     1.007825032230
         H           -0.289789553929    -0.427068196527     2.097416448561     1.007825032230
         C            0.726345446071    -1.323702196527    -0.294384551439    12.000000000000
         H            1.351492446071    -1.614631196527     0.556938448561     1.007825032230
         H            0.007274446071    -2.129626196527    -0.477739551439     1.007825032230
         H            1.371936446071    -1.238750196527    -1.175403551439     1.007825032230

  Basis Set: AUG-CC-PVTZ
    Blend: AUG-CC-PVTZ
  Basis Set: (AUG-CC-PVTZ AUX)
    Blend: AUG-CC-PVTZ-JKFIT
	 Reference Energy          =    -196.3916886091076606 [Eh]
	 Singles Energy            =      -0.0000000000000000 [Eh]
	 Same-Spin Energy          =      -0.2121196119805212 [Eh]
	 Opposite-Spin Energy      =      -0.7990254683186707 [Eh]
	 Correlation Energy        =      -1.0111450802991919 [Eh]
	 Total Energy              =    -197.4028336894068616 [Eh]

	 ================> DF-SCS-MP2 Energies <==================
	-----------------------------------------------------------
	 SCS Same-Spin Scale       =       0.3333333333333333 [-]
	 SCS Opposite-Spin Scale   =       1.2000000000000000 [-]
	 SCS Same-Spin Energy      =      -0.0707065373268404 [Eh]
	 SCS Opposite-Spin Energy  =      -0.9588305619824048 [Eh]
	 SCS Correlation Energy    =      -1.0295370993092452 [Eh]
	 SCS Total Energy          =    -197.4212257084168982 [Eh]
	-----------------------------------------------------------

  Dipole Moment: [D]
     X:    -0.0158      Y:     0.0100      Z:     0.0452     Total:     0.0489

*** Psi4 exiting successfully. Buy a developer a beer!
