                               Psi4 1.4a3.dev225

  ==> Input File <==

--------------------------------------------------------------------------
#psi4
#
memory 32 gb

molecule  {
0 1
  C        0.0000000     0.0000000     0.0000010
  C        0.3472150     0.0817990     1.4875160
  H        1.0539037     0.9592774     1.6945026
  H       -0.5552030     0.2238040     2.0922020
  H        0.8398860    -0.8366930     1.8248780
  C       -0.6850330     1.2964610    -0.4357480
  H       -0.9443620     1.2629370    -1.4996040
  H       -1.6069860     1.4613930     0.1325540
  H       -0.0287410     2.1586270    -0.2741370
  C       -0.9430840    -1.1803730    -0.2393110
  H       -1.2073380    -1.2607230    -1.2994430
  H       -1.8698920    -1.0622760     0.3327440
  H       -0.4747760    -2.1227260     0.0653640
  C        1.2809020    -0.1978880    -0.8124580
  H        1.7912680    -1.1216440    -0.5185760
  H        1.0587200    -0.2597050    -1.8834300
  H        1.9743670     0.6360310    -0.6580170
units angstrom
no_reorient  #important for SAPT in psi4, default
symmetry c1  #important for SAPT in psi4, default
}

set PROPERTIES_ORIGIN ["COM"]
properties('MP2/aug-cc-pvtz', properties = ['dipole'])
--------------------------------------------------------------------------

    Molecular point group: c1
  Charge       = 0
  Multiplicity = 1
  Basis Set: AUG-CC-PVTZ
    Blend: AUG-CC-PVTZ
  Basis Set: (AUG-CC-PVTZ AUX)
    Blend: AUG-CC-PVTZ-JKFIT

    Orbital Energies [Eh]
    ---------------------

    Doubly Occupied:

       1A    -11.229297     2A    -11.213951     3A    -11.208385
       4A    -11.207829     5A    -11.207810     6A     -1.104431
       7A     -0.927377     8A     -0.927079     9A     -0.923229
      10A     -0.728269    11A     -0.610726    12A     -0.610538
      13A     -0.607460    14A     -0.551829    15A     -0.549233
      16A     -0.508622    17A     -0.508355    18A     -0.503901
      19A     -0.452785    20A     -0.452435    21A     -0.451217

  @DF-RHF Final Energy:  -196.40196804715117

   => Energetics <=

    Nuclear Repulsion Energy =            198.6171797513686101
    One-Electron Energy =                -657.0687853860857786
    Two-Electron Energy =                 262.0496375875659965
    Total Energy =                       -196.4019680471511720
  Basis Set: (AUG-CC-PVTZ AUX)
    Blend: AUG-CC-PVTZ-RI
    Molecular point group: c1

    Geometry (in Angstrom), charge = 0, multiplicity = 1:

       Center              X                  Y                   Z               Mass
    ------------   -----------------  -----------------  -----------------  -----------------
         C           -0.000431216459    -0.000535275763    -0.000125339669    12.000000000000
         C            0.346783783541     0.081263724237     1.487389660331    12.000000000000
         H            1.053472483541     0.958742124237     1.694376260331     1.007825032230
         H           -0.555634216459     0.223268724237     2.092075660331     1.007825032230
         H            0.839454783541    -0.837228275763     1.824751660331     1.007825032230
         C           -0.685464216459     1.295925724237    -0.435874339669    12.000000000000
         H           -0.944793216459     1.262401724237    -1.499730339669     1.007825032230
         H           -1.607417216459     1.460857724237     0.132427660331     1.007825032230
         H           -0.029172216459     2.158091724237    -0.274263339669     1.007825032230
         C           -0.943515216459    -1.180908275763    -0.239437339669    12.000000000000
         H           -1.207769216459    -1.261258275763    -1.299569339669     1.007825032230
         H           -1.870323216459    -1.062811275763     0.332617660331     1.007825032230
         H           -0.475207216459    -2.123261275763     0.065237660331     1.007825032230
         C            1.280470783541    -0.198423275763    -0.812584339669    12.000000000000
         H            1.790836783541    -1.122179275763    -0.518702339669     1.007825032230
         H            1.058288783541    -0.260240275763    -1.883556339669     1.007825032230
         H            1.973935783541     0.635495724237    -0.658143339669     1.007825032230

  Basis Set: AUG-CC-PVTZ
    Blend: AUG-CC-PVTZ
  Basis Set: (AUG-CC-PVTZ AUX)
    Blend: AUG-CC-PVTZ-JKFIT
	 Reference Energy          =    -196.4019680471511720 [Eh]
	 Singles Energy            =      -0.0000000000000000 [Eh]
	 Same-Spin Energy          =      -0.2116165956594113 [Eh]
	 Opposite-Spin Energy      =      -0.7984483061644143 [Eh]
	 Correlation Energy        =      -1.0100649018238257 [Eh]
	 Total Energy              =    -197.4120329489749963 [Eh]

	 ================> DF-SCS-MP2 Energies <==================
	-----------------------------------------------------------
	 SCS Same-Spin Scale       =       0.3333333333333333 [-]
	 SCS Opposite-Spin Scale   =       1.2000000000000000 [-]
	 SCS Same-Spin Energy      =      -0.0705388652198038 [Eh]
	 SCS Opposite-Spin Energy  =      -0.9581379673972972 [Eh]
	 SCS Correlation Energy    =      -1.0286768326171010 [Eh]
	 SCS Total Energy          =    -197.4306448797682663 [Eh]
	-----------------------------------------------------------

  Dipole Moment: [D]
     X:    -0.0246      Y:    -0.0280      Z:    -0.0170     Total:     0.0410

*** Psi4 exiting successfully. Buy a developer a beer!
