                               Psi4 1.3.2 release

  ==> Input File <==

--------------------------------------------------------------------------
#psi4
#
memory 32 gb

molecule  {
0 1
  C       -0.0099442     0.0041121     0.0244297
  C        1.0323080     1.1005010     0.2511920
  H        1.6840120     1.2309930    -0.6196990
  H        0.5407810     2.0585400     0.4530930
  H        1.6631030     0.8551880     1.1126530
  C       -0.8616050     0.3749750    -1.2070170
  H       -1.6102970    -0.3991140    -1.4081060
  H       -1.3889910     1.3191910    -1.0323370
  H       -0.2457010     0.4921210    -2.1054290
  C       -0.8907450    -0.1548370     1.2338820
  H       -1.6401910    -0.9387090     1.0787540
  H       -1.4184290     0.7795360     1.4545320
  H       -0.2961040    -0.4240080     2.1137440
  C        0.7200310    -1.3206420    -0.2780570
  H        1.3451780    -1.6115710     0.5732660
  H        0.0009600    -2.1265660    -0.4614120
  H        1.3656220    -1.2356900    -1.1590760
units angstrom
no_reorient  #important for SAPT in psi4, default
symmetry c1  #important for SAPT in psi4, default
}

set PROPERTIES_ORIGIN ["COM"]
properties('MP2/aug-cc-pvtz', properties = ['dipole'])
--------------------------------------------------------------------------

    Molecular point group: c1
  Charge       = 0
  Multiplicity = 1
  Basis Set: AUG-CC-PVTZ
    Blend: AUG-CC-PVTZ
  Basis Set: (AUG-CC-PVTZ AUX)
    Blend: AUG-CC-PVTZ-JKFIT

    Orbital Energies [Eh]
    ---------------------

    Doubly Occupied:

       1A    -11.228761     2A    -11.207914     3A    -11.207899
       4A    -11.207820     5A    -11.207506     6A     -1.104742
       7A     -0.929991     8A     -0.926232     9A     -0.924877
      10A     -0.728989    11A     -0.611125    12A     -0.610635
      13A     -0.609122    14A     -0.551512    15A     -0.551490
      16A     -0.508577    17A     -0.508331    18A     -0.507709
      19A     -0.461241    20A     -0.449554    21A     -0.445304

  @DF-RHF Final Energy:  -196.40329687039801

   => Energetics <=

    Nuclear Repulsion Energy =            198.8250789087828139
    One-Electron Energy =                -657.4780917961697924
    Two-Electron Energy =                 262.2497160169889980
    Total Energy =                       -196.4032968703979805
  Basis Set: (AUG-CC-PVTZ AUX)
    Blend: AUG-CC-PVTZ-RI
    Molecular point group: c1

    Geometry (in Angstrom), charge = 0, multiplicity = 1:

       Center              X                  Y                   Z               Mass
    ------------   -----------------  -----------------  -----------------  -----------------
         C           -0.008286364242     0.003429386160     0.020363624154    12.000000000000
         C            1.033965835758     1.099818286160     0.247125924154    12.000000000000
         H            1.685669835758     1.230310286160    -0.623765075846     1.007825032230
         H            0.542438835758     2.057857286160     0.449026924154     1.007825032230
         H            1.664760835758     0.854505286160     1.108586924154     1.007825032230
         C           -0.859947164242     0.374292286160    -1.211083075846    12.000000000000
         H           -1.608639164242    -0.399796713840    -1.412172075846     1.007825032230
         H           -1.387333164242     1.318508286160    -1.036403075846     1.007825032230
         H           -0.244043164242     0.491438286160    -2.109495075846     1.007825032230
         C           -0.889087164242    -0.155519713840     1.229815924154    12.000000000000
         H           -1.638533164242    -0.939391713840     1.074687924154     1.007825032230
         H           -1.416771164242     0.778853286160     1.450465924154     1.007825032230
         H           -0.294446164242    -0.424690713840     2.109677924154     1.007825032230
         C            0.721688835758    -1.321324713840    -0.282123075846    12.000000000000
         H            1.346835835758    -1.612253713840     0.569199924154     1.007825032230
         H            0.002617835758    -2.127248713840    -0.465478075846     1.007825032230
         H            1.367279835758    -1.236372713840    -1.163142075846     1.007825032230

  Basis Set: AUG-CC-PVTZ
    Blend: AUG-CC-PVTZ
  Basis Set: (AUG-CC-PVTZ AUX)
    Blend: AUG-CC-PVTZ-JKFIT
	 Reference Energy          =    -196.4032968703980089 [Eh]
	 Singles Energy            =      -0.0000000000000000 [Eh]
	 Same-Spin Energy          =      -0.2116416208921406 [Eh]
	 Opposite-Spin Energy      =      -0.7981577904166774 [Eh]
	 Correlation Energy        =      -1.0097994113088180 [Eh]
	 Total Energy              =    -197.4130962817068280 [Eh]

	 ================> DF-SCS-MP2 Energies <==================
	-----------------------------------------------------------
	 SCS Same-Spin Scale       =       0.3333333333333333 [-]
	 SCS Opposite-Spin Scale   =       1.2000000000000000 [-]
	 SCS Same-Spin Energy      =      -0.0705472069640469 [Eh]
	 SCS Opposite-Spin Energy  =      -0.9577893485000128 [Eh]
	 SCS Correlation Energy    =      -1.0283365554640598 [Eh]
	 SCS Total Energy          =    -197.4316334258620600 [Eh]
	-----------------------------------------------------------

  Dipole Moment: [D]
     X:    -0.0044      Y:     0.0020      Z:     0.0111     Total:     0.0121

*** Psi4 exiting successfully. Buy a developer a beer!
