                               Psi4 1.3.2 release

  ==> Input File <==

--------------------------------------------------------------------------
#psi4
#
memory 32 gb

molecule  {
0 1
  C        0.0429895    -0.0130002    -0.0968647
  C        1.0323080     1.1005010     0.2511920
  H        1.6840120     1.2309930    -0.6196990
  H        0.5407810     2.0585400     0.4530930
  H        1.6631030     0.8551880     1.1126530
  C       -0.8616050     0.3749750    -1.2070170
  H       -1.6102970    -0.3991140    -1.4081060
  H       -1.3889910     1.3191910    -1.0323370
  H       -0.2457010     0.4921210    -2.1054290
  C       -0.8907450    -0.1548370     1.2338820
  H       -1.6401910    -0.9387090     1.0787540
  H       -1.4184290     0.7795360     1.4545320
  H       -0.2961040    -0.4240080     2.1137440
  C        0.7200310    -1.3206420    -0.2780570
  H        1.3451780    -1.6115710     0.5732660
  H        0.0009600    -2.1265660    -0.4614120
  H        1.3656220    -1.2356900    -1.1590760
units angstrom
no_reorient  #important for SAPT in psi4, default
symmetry c1  #important for SAPT in psi4, default
}

set PROPERTIES_ORIGIN ["COM"]
properties('MP2/aug-cc-pvtz', properties = ['dipole'])
--------------------------------------------------------------------------

    Molecular point group: c1
  Charge       = 0
  Multiplicity = 1
  Basis Set: AUG-CC-PVTZ
    Blend: AUG-CC-PVTZ
  Basis Set: (AUG-CC-PVTZ AUX)
    Blend: AUG-CC-PVTZ-JKFIT

    Orbital Energies [Eh]
    ---------------------

    Doubly Occupied:

       1A    -11.230147     2A    -11.208613     3A    -11.207902
       4A    -11.207879     5A    -11.207699     6A     -1.106819
       7A     -0.936054     8A     -0.930406     9A     -0.915835
      10A     -0.729308    11A     -0.614640    12A     -0.610479
      13A     -0.608105    14A     -0.551878    15A     -0.551554
      16A     -0.510504    17A     -0.508112    18A     -0.507151
      19A     -0.476666    20A     -0.459966    21A     -0.414461

  @DF-RHF Final Energy:  -196.39320612357227

   => Energetics <=

    Nuclear Repulsion Energy =            198.8177134013575369
    One-Electron Energy =                -657.4334802612110025
    Two-Electron Energy =                 262.2225607362811957
    Total Energy =                       -196.3932061235722699
  Basis Set: (AUG-CC-PVTZ AUX)
    Blend: AUG-CC-PVTZ-RI
    Molecular point group: c1

    Geometry (in Angstrom), charge = 0, multiplicity = 1:

       Center              X                  Y                   Z               Mass
    ------------   -----------------  -----------------  -----------------  -----------------
         C            0.035836543214    -0.010834578559    -0.080741372967    12.000000000000
         C            1.025155043214     1.102666621441     0.267315327033    12.000000000000
         H            1.676859043214     1.233158621441    -0.603575672967     1.007825032230
         H            0.533628043214     2.060705621441     0.469216327033     1.007825032230
         H            1.655950043214     0.857353621441     1.128776327033     1.007825032230
         C           -0.868757956786     0.377140621441    -1.190893672967    12.000000000000
         H           -1.617449956786    -0.396948378559    -1.391982672967     1.007825032230
         H           -1.396143956786     1.321356621441    -1.016213672967     1.007825032230
         H           -0.252853956786     0.494286621441    -2.089305672967     1.007825032230
         C           -0.897897956786    -0.152671378559     1.250005327033    12.000000000000
         H           -1.647343956786    -0.936543378559     1.094877327033     1.007825032230
         H           -1.425581956786     0.781701621441     1.470655327033     1.007825032230
         H           -0.303256956786    -0.421842378559     2.129867327033     1.007825032230
         C            0.712878043214    -1.318476378559    -0.261933672967    12.000000000000
         H            1.338025043214    -1.609405378559     0.589389327033     1.007825032230
         H           -0.006192956786    -2.124400378559    -0.445288672967     1.007825032230
         H            1.358469043214    -1.233524378559    -1.142952672967     1.007825032230

  Basis Set: AUG-CC-PVTZ
    Blend: AUG-CC-PVTZ
  Basis Set: (AUG-CC-PVTZ AUX)
    Blend: AUG-CC-PVTZ-JKFIT
	 Reference Energy          =    -196.3932061235722699 [Eh]
	 Singles Energy            =      -0.0000000000000000 [Eh]
	 Same-Spin Energy          =      -0.2120794153997135 [Eh]
	 Opposite-Spin Energy      =      -0.7989716111784981 [Eh]
	 Correlation Energy        =      -1.0110510265782116 [Eh]
	 Total Energy              =    -197.4042571501504710 [Eh]

	 ================> DF-SCS-MP2 Energies <==================
	-----------------------------------------------------------
	 SCS Same-Spin Scale       =       0.3333333333333333 [-]
	 SCS Opposite-Spin Scale   =       1.2000000000000000 [-]
	 SCS Same-Spin Energy      =      -0.0706931384665712 [Eh]
	 SCS Opposite-Spin Energy  =      -0.9587659334141977 [Eh]
	 SCS Correlation Energy    =      -1.0294590718807688 [Eh]
	 SCS Total Energy          =    -197.4226651954530496 [Eh]
	-----------------------------------------------------------

  Dipole Moment: [D]
     X:     0.0243      Y:    -0.0048      Z:    -0.0501     Total:     0.0559

*** Psi4 exiting successfully. Buy a developer a beer!
