                               Psi4 1.3.2 release

  ==> Input File <==

--------------------------------------------------------------------------
#psi4
#
memory 32 gb

molecule  {
0 1
  C        0.0000200     0.0000170     0.0000030
  C        1.0417301     1.0866017     0.2719466
  H        1.6840120     1.2309930    -0.6196990
  H        0.5407810     2.0585400     0.4530930
  H        1.6631030     0.8551880     1.1126530
  C       -0.8616050     0.3749750    -1.2070170
  H       -1.6102970    -0.3991140    -1.4081060
  H       -1.3889910     1.3191910    -1.0323370
  H       -0.2457010     0.4921210    -2.1054290
  C       -0.8907450    -0.1548370     1.2338820
  H       -1.6401910    -0.9387090     1.0787540
  H       -1.4184290     0.7795360     1.4545320
  H       -0.2961040    -0.4240080     2.1137440
  C        0.7200310    -1.3206420    -0.2780570
  H        1.3451780    -1.6115710     0.5732660
  H        0.0009600    -2.1265660    -0.4614120
  H        1.3656220    -1.2356900    -1.1590760
units angstrom
no_reorient  #important for SAPT in psi4, default
symmetry c1  #important for SAPT in psi4, default
}

set PROPERTIES_ORIGIN ["COM"]
properties('MP2/aug-cc-pvtz', properties = ['dipole'])
--------------------------------------------------------------------------

    Molecular point group: c1
  Charge       = 0
  Multiplicity = 1
  Basis Set: AUG-CC-PVTZ
    Blend: AUG-CC-PVTZ
  Basis Set: (AUG-CC-PVTZ AUX)
    Blend: AUG-CC-PVTZ-JKFIT

    Orbital Energies [Eh]
    ---------------------

    Doubly Occupied:

       1A    -11.228736     2A    -11.208258     3A    -11.207893
       4A    -11.207569     5A    -11.207549     6A     -1.104621
       7A     -0.928148     8A     -0.926935     9A     -0.926091
      10A     -0.729101    11A     -0.612707    12A     -0.609877
      13A     -0.608467    14A     -0.553008    15A     -0.550096
      16A     -0.511567    17A     -0.508208    18A     -0.504594
      19A     -0.455225    20A     -0.450917    21A     -0.449990

  @DF-RHF Final Energy:  -196.40323506508525

   => Energetics <=

    Nuclear Repulsion Energy =            198.8267082103758412
    One-Electron Energy =                -657.4807717703608887
    Two-Electron Energy =                 262.2508284948997925
    Total Energy =                       -196.4032350650852550
  Basis Set: (AUG-CC-PVTZ AUX)
    Blend: AUG-CC-PVTZ-RI
    Molecular point group: c1

    Geometry (in Angstrom), charge = 0, multiplicity = 1:

       Center              X                  Y                   Z               Mass
    ------------   -----------------  -----------------  -----------------  -----------------
         C           -0.001549005885     0.002329446622    -0.003451856314    12.000000000000
         C            1.040161094115     1.088914146622     0.268491743686    12.000000000000
         H            1.682442994115     1.233305446622    -0.623153856314     1.007825032230
         H            0.539211994115     2.060852446622     0.449638143686     1.007825032230
         H            1.661533994115     0.857500446622     1.109198143686     1.007825032230
         C           -0.863174005885     0.377287446622    -1.210471856314    12.000000000000
         H           -1.611866005885    -0.396801553378    -1.411560856314     1.007825032230
         H           -1.390560005885     1.321503446622    -1.035791856314     1.007825032230
         H           -0.247270005885     0.494433446622    -2.108883856314     1.007825032230
         C           -0.892314005885    -0.152524553378     1.230427143686    12.000000000000
         H           -1.641760005885    -0.936396553378     1.075299143686     1.007825032230
         H           -1.419998005885     0.781848446622     1.451077143686     1.007825032230
         H           -0.297673005885    -0.421695553378     2.110289143686     1.007825032230
         C            0.718461994115    -1.318329553378    -0.281511856314    12.000000000000
         H            1.343608994115    -1.609258553378     0.569811143686     1.007825032230
         H           -0.000609005885    -2.124253553378    -0.464866856314     1.007825032230
         H            1.364052994115    -1.233377553378    -1.162530856314     1.007825032230

  Basis Set: AUG-CC-PVTZ
    Blend: AUG-CC-PVTZ
  Basis Set: (AUG-CC-PVTZ AUX)
    Blend: AUG-CC-PVTZ-JKFIT
	 Reference Energy          =    -196.4032350650852550 [Eh]
	 Singles Energy            =      -0.0000000000000000 [Eh]
	 Same-Spin Energy          =      -0.2116239343031798 [Eh]
	 Opposite-Spin Energy      =      -0.7981401723069360 [Eh]
	 Correlation Energy        =      -1.0097641066101157 [Eh]
	 Total Energy              =    -197.4129991716953612 [Eh]

	 ================> DF-SCS-MP2 Energies <==================
	-----------------------------------------------------------
	 SCS Same-Spin Scale       =       0.3333333333333333 [-]
	 SCS Opposite-Spin Scale   =       1.2000000000000000 [-]
	 SCS Same-Spin Energy      =      -0.0705413114343933 [Eh]
	 SCS Opposite-Spin Energy  =      -0.9577682067683232 [Eh]
	 SCS Correlation Energy    =      -1.0283095182027164 [Eh]
	 SCS Total Energy          =    -197.4315445832879732 [Eh]
	-----------------------------------------------------------

  Dipole Moment: [D]
     X:     0.0014      Y:    -0.0045      Z:     0.0049     Total:     0.0068

*** Psi4 exiting successfully. Buy a developer a beer!
