                               Psi4 1.3.2 release

  ==> Input File <==

--------------------------------------------------------------------------
#psi4
#
memory 32 gb

molecule  {
0 1
  C        0.0000200     0.0000170     0.0000030
  C        1.0125235     1.1272898     0.2094596
  H        1.6840120     1.2309930    -0.6196990
  H        0.5407810     2.0585400     0.4530930
  H        1.6631030     0.8551880     1.1126530
  C       -0.8616050     0.3749750    -1.2070170
  H       -1.6102970    -0.3991140    -1.4081060
  H       -1.3889910     1.3191910    -1.0323370
  H       -0.2457010     0.4921210    -2.1054290
  C       -0.8907450    -0.1548370     1.2338820
  H       -1.6401910    -0.9387090     1.0787540
  H       -1.4184290     0.7795360     1.4545320
  H       -0.2961040    -0.4240080     2.1137440
  C        0.7200310    -1.3206420    -0.2780570
  H        1.3451780    -1.6115710     0.5732660
  H        0.0009600    -2.1265660    -0.4614120
  H        1.3656220    -1.2356900    -1.1590760
units angstrom
no_reorient  #important for SAPT in psi4, default
symmetry c1  #important for SAPT in psi4, default
}

set PROPERTIES_ORIGIN ["COM"]
properties('MP2/aug-cc-pvtz', properties = ['dipole'])
--------------------------------------------------------------------------

    Molecular point group: c1
  Charge       = 0
  Multiplicity = 1
  Basis Set: AUG-CC-PVTZ
    Blend: AUG-CC-PVTZ
  Basis Set: (AUG-CC-PVTZ AUX)
    Blend: AUG-CC-PVTZ-JKFIT

    Orbital Energies [Eh]
    ---------------------

    Doubly Occupied:

       1A    -11.228904     2A    -11.208296     3A    -11.208288
       4A    -11.208260     5A    -11.206990     6A     -1.104753
       7A     -0.929164     8A     -0.927259     9A     -0.925141
      10A     -0.729399    11A     -0.614638    12A     -0.611086
      13A     -0.606340    14A     -0.554821    15A     -0.548717
      16A     -0.514563    17A     -0.508257    18A     -0.500964
      19A     -0.456351    20A     -0.454128    21A     -0.444808

  @DF-RHF Final Energy:  -196.40108131904020

   => Energetics <=

    Nuclear Repulsion Energy =            198.8311786128749077
    One-Electron Energy =                -657.4822670918914582
    Two-Electron Energy =                 262.2500071599763487
    Total Energy =                       -196.4010813190402018
  Basis Set: (AUG-CC-PVTZ AUX)
    Blend: AUG-CC-PVTZ-RI
    Molecular point group: c1

    Geometry (in Angstrom), charge = 0, multiplicity = 1:

       Center              X                  Y                   Z               Mass
    ------------   -----------------  -----------------  -----------------  -----------------
         C            0.003312420645    -0.004443070850     0.006949079077    12.000000000000
         C            1.015815920645     1.122829729150     0.216405679077    12.000000000000
         H            1.687304420645     1.226532929150    -0.612752920923     1.007825032230
         H            0.544073420645     2.054079929150     0.460039079077     1.007825032230
         H            1.666395420645     0.850727929150     1.119599079077     1.007825032230
         C           -0.858312579355     0.370514929150    -1.200070920923    12.000000000000
         H           -1.607004579355    -0.403574070850    -1.401159920923     1.007825032230
         H           -1.385698579355     1.314730929150    -1.025390920923     1.007825032230
         H           -0.242408579355     0.487660929150    -2.098482920923     1.007825032230
         C           -0.887452579355    -0.159297070850     1.240828079077    12.000000000000
         H           -1.636898579355    -0.943169070850     1.085700079077     1.007825032230
         H           -1.415136579355     0.775075929150     1.461478079077     1.007825032230
         H           -0.292811579355    -0.428468070850     2.120690079077     1.007825032230
         C            0.723323420645    -1.325102070850    -0.271110920923    12.000000000000
         H            1.348470420645    -1.616031070850     0.580212079077     1.007825032230
         H            0.004252420645    -2.131026070850    -0.454465920923     1.007825032230
         H            1.368914420645    -1.240150070850    -1.152129920923     1.007825032230

  Basis Set: AUG-CC-PVTZ
    Blend: AUG-CC-PVTZ
  Basis Set: (AUG-CC-PVTZ AUX)
    Blend: AUG-CC-PVTZ-JKFIT
	 Reference Energy          =    -196.4010813190402018 [Eh]
	 Singles Energy            =      -0.0000000000000000 [Eh]
	 Same-Spin Energy          =      -0.2116626707119679 [Eh]
	 Opposite-Spin Energy      =      -0.7982536871462429 [Eh]
	 Correlation Energy        =      -1.0099163578582109 [Eh]
	 Total Energy              =    -197.4109976768984041 [Eh]

	 ================> DF-SCS-MP2 Energies <==================
	-----------------------------------------------------------
	 SCS Same-Spin Scale       =       0.3333333333333333 [-]
	 SCS Opposite-Spin Scale   =       1.2000000000000000 [-]
	 SCS Same-Spin Energy      =      -0.0705542235706560 [Eh]
	 SCS Opposite-Spin Energy  =      -0.9579044245754914 [Eh]
	 SCS Correlation Energy    =      -1.0284586481461473 [Eh]
	 SCS Total Energy          =    -197.4295399671863436 [Eh]
	-----------------------------------------------------------

  Dipole Moment: [D]
     X:    -0.0106      Y:     0.0051      Z:    -0.0152     Total:     0.0192

*** Psi4 exiting successfully. Buy a developer a beer!
