                               Psi4 1.3.2 release

  ==> Input File <==

--------------------------------------------------------------------------
#psi4
#
memory 32 gb

molecule  {
0 1
  C        0.0000200     0.0000170     0.0000030
  C        1.0323080     1.1005010     0.2511920
  H        1.5650375     1.2071705    -0.4607099
  H        0.5407810     2.0585400     0.4530930
  H        1.6631030     0.8551880     1.1126530
  C       -0.8616050     0.3749750    -1.2070170
  H       -1.6102970    -0.3991140    -1.4081060
  H       -1.3889910     1.3191910    -1.0323370
  H       -0.2457010     0.4921210    -2.1054290
  C       -0.8907450    -0.1548370     1.2338820
  H       -1.6401910    -0.9387090     1.0787540
  H       -1.4184290     0.7795360     1.4545320
  H       -0.2961040    -0.4240080     2.1137440
  C        0.7200310    -1.3206420    -0.2780570
  H        1.3451780    -1.6115710     0.5732660
  H        0.0009600    -2.1265660    -0.4614120
  H        1.3656220    -1.2356900    -1.1590760
units angstrom
no_reorient  #important for SAPT in psi4, default
symmetry c1  #important for SAPT in psi4, default
}

set PROPERTIES_ORIGIN ["COM"]
properties('MP2/aug-cc-pvtz', properties = ['dipole'])
--------------------------------------------------------------------------

    Molecular point group: c1
  Charge       = 0
  Multiplicity = 1
  Basis Set: AUG-CC-PVTZ
    Blend: AUG-CC-PVTZ
  Basis Set: (AUG-CC-PVTZ AUX)
    Blend: AUG-CC-PVTZ-JKFIT

    Orbital Energies [Eh]
    ---------------------

    Doubly Occupied:

       1A    -11.226967     2A    -11.207729     3A    -11.207710
       4A    -11.205938     5A    -11.182385     6A     -1.106994
       7A     -0.950752     8A     -0.926905     9A     -0.925923
      10A     -0.734256    11A     -0.626877    12A     -0.609414
      13A     -0.608904    14A     -0.562293    15A     -0.550652
      16A     -0.519090    17A     -0.507735    18A     -0.507079
      19A     -0.454025    20A     -0.451375    21A     -0.450367

  @DF-RHF Final Energy:  -196.37041219737682

   => Energetics <=

    Nuclear Repulsion Energy =            199.7889802835284172
    One-Electron Energy =                -659.2720481219039357
    Two-Electron Energy =                 263.1126556409986961
    Total Energy =                       -196.3704121973768224
  Basis Set: (AUG-CC-PVTZ AUX)
    Blend: AUG-CC-PVTZ-RI
    Molecular point group: c1

    Geometry (in Angstrom), charge = 0, multiplicity = 1:

       Center              X                  Y                   Z               Mass
    ------------   -----------------  -----------------  -----------------  -----------------
         C            0.001682483576     0.000348936657    -0.002219824136    12.000000000000
         C            1.033970483576     1.100832936657     0.248969175864    12.000000000000
         H            1.566699983576     1.207502436657    -0.462932724136     1.007825032230
         H            0.542443483576     2.058871936657     0.450870175864     1.007825032230
         H            1.664765483576     0.855519936657     1.110430175864     1.007825032230
         C           -0.859942516424     0.375306936657    -1.209239824136    12.000000000000
         H           -1.608634516424    -0.398782063343    -1.410328824136     1.007825032230
         H           -1.387328516424     1.319522936657    -1.034559824136     1.007825032230
         H           -0.244038516424     0.492452936657    -2.107651824136     1.007825032230
         C           -0.889082516424    -0.154505063343     1.231659175864    12.000000000000
         H           -1.638528516424    -0.938377063343     1.076531175864     1.007825032230
         H           -1.416766516424     0.779867936657     1.452309175864     1.007825032230
         H           -0.294441516424    -0.423676063343     2.111521175864     1.007825032230
         C            0.721693483576    -1.320310063343    -0.280279824136    12.000000000000
         H            1.346840483576    -1.611239063343     0.571043175864     1.007825032230
         H            0.002622483576    -2.126234063343    -0.463634824136     1.007825032230
         H            1.367284483576    -1.235358063343    -1.161298824136     1.007825032230

  Basis Set: AUG-CC-PVTZ
    Blend: AUG-CC-PVTZ
  Basis Set: (AUG-CC-PVTZ AUX)
    Blend: AUG-CC-PVTZ-JKFIT
	 Reference Energy          =    -196.3704121973768224 [Eh]
	 Singles Energy            =      -0.0000000000000000 [Eh]
	 Same-Spin Energy          =      -0.2116692520977873 [Eh]
	 Opposite-Spin Energy      =      -0.7974333981261690 [Eh]
	 Correlation Energy        =      -1.0091026502239564 [Eh]
	 Total Energy              =    -197.3795148476007739 [Eh]

	 ================> DF-SCS-MP2 Energies <==================
	-----------------------------------------------------------
	 SCS Same-Spin Scale       =       0.3333333333333333 [-]
	 SCS Opposite-Spin Scale   =       1.2000000000000000 [-]
	 SCS Same-Spin Energy      =      -0.0705564173659291 [Eh]
	 SCS Opposite-Spin Energy  =      -0.9569200777514028 [Eh]
	 SCS Correlation Energy    =      -1.0274764951173319 [Eh]
	 SCS Total Energy          =    -197.3978886924941492 [Eh]
	-----------------------------------------------------------

  Dipole Moment: [D]
     X:     0.0842      Y:     0.0365      Z:    -0.0768     Total:     0.1196

*** Psi4 exiting successfully. Buy a developer a beer!
