                               Psi4 1.4a3.dev225

  ==> Input File <==

--------------------------------------------------------------------------
#psi4
#
memory 32 gb

molecule  {
0 1
  C        0.0000000     0.0000000     0.0000010
  C        0.3426753     0.0807295     1.4680674
  H        1.0230580     0.9209770     1.6854680
  H       -0.5552030     0.2238040     2.0922020
  H        0.8398860    -0.8366930     1.8248780
  C       -0.6850330     1.2964610    -0.4357480
  H       -0.9443620     1.2629370    -1.4996040
  H       -1.6069860     1.4613930     0.1325540
  H       -0.0287410     2.1586270    -0.2741370
  C       -0.9430840    -1.1803730    -0.2393110
  H       -1.2073380    -1.2607230    -1.2994430
  H       -1.8698920    -1.0622760     0.3327440
  H       -0.4747760    -2.1227260     0.0653640
  C        1.2809020    -0.1978880    -0.8124580
  H        1.7912680    -1.1216440    -0.5185760
  H        1.0587200    -0.2597050    -1.8834300
  H        1.9743670     0.6360310    -0.6580170
units angstrom
no_reorient  #important for SAPT in psi4, default
symmetry c1  #important for SAPT in psi4, default
}

set PROPERTIES_ORIGIN ["COM"]
properties('MP2/aug-cc-pvtz', properties = ['dipole'])
--------------------------------------------------------------------------

    Molecular point group: c1
  Charge       = 0
  Multiplicity = 1
  Basis Set: AUG-CC-PVTZ
    Blend: AUG-CC-PVTZ
  Basis Set: (AUG-CC-PVTZ AUX)
    Blend: AUG-CC-PVTZ-JKFIT

    Orbital Energies [Eh]
    ---------------------

    Doubly Occupied:

       1A    -11.227727     2A    -11.208829     3A    -11.207860
       4A    -11.207860     5A    -11.207831     6A     -1.106985
       7A     -0.927299     8A     -0.927299     9A     -0.926604
      10A     -0.729963    11A     -0.611371    12A     -0.610449
      13A     -0.610449    14A     -0.550797    15A     -0.550796
      16A     -0.508299    17A     -0.506156    18A     -0.506155
      19A     -0.457136    20A     -0.451236    21A     -0.451236

  @DF-RHF Final Energy:  -196.40337717834905

   => Energetics <=

    Nuclear Repulsion Energy =            199.1241327306063909
    One-Electron Energy =                -658.0703447918734810
    Two-Electron Energy =                 262.5428348829180436
    Total Energy =                       -196.4033771783490465
  Basis Set: (AUG-CC-PVTZ AUX)
    Blend: AUG-CC-PVTZ-RI
    Molecular point group: c1

    Geometry (in Angstrom), charge = 0, multiplicity = 1:

       Center              X                  Y                   Z               Mass
    ------------   -----------------  -----------------  -----------------  -----------------
         C            0.000755617214     0.000178156325     0.003238169515    12.000000000000
         C            0.343430917214     0.080907656325     1.471304569515    12.000000000000
         H            1.023813617214     0.921155156325     1.688705169515     1.007825032230
         H           -0.554447382786     0.223982156325     2.095439169515     1.007825032230
         H            0.840641617214    -0.836514843675     1.828115169515     1.007825032230
         C           -0.684277382786     1.296639156325    -0.432510830485    12.000000000000
         H           -0.943606382786     1.263115156325    -1.496366830485     1.007825032230
         H           -1.606230382786     1.461571156325     0.135791169515     1.007825032230
         H           -0.027985382786     2.158805156325    -0.270899830485     1.007825032230
         C           -0.942328382786    -1.180194843675    -0.236073830485    12.000000000000
         H           -1.206582382786    -1.260544843675    -1.296205830485     1.007825032230
         H           -1.869136382786    -1.062097843675     0.335981169515     1.007825032230
         H           -0.474020382786    -2.122547843675     0.068601169515     1.007825032230
         C            1.281657617214    -0.197709843675    -0.809220830485    12.000000000000
         H            1.792023617214    -1.121465843675    -0.515338830485     1.007825032230
         H            1.059475617214    -0.259526843675    -1.880192830485     1.007825032230
         H            1.975122617214     0.636209156325    -0.654779830485     1.007825032230

  Basis Set: AUG-CC-PVTZ
    Blend: AUG-CC-PVTZ
  Basis Set: (AUG-CC-PVTZ AUX)
    Blend: AUG-CC-PVTZ-JKFIT
	 Reference Energy          =    -196.4033771783490465 [Eh]
	 Singles Energy            =      -0.0000000000000000 [Eh]
	 Same-Spin Energy          =      -0.2117809635679127 [Eh]
	 Opposite-Spin Energy      =      -0.7982803652811528 [Eh]
	 Correlation Energy        =      -1.0100613288490654 [Eh]
	 Total Energy              =    -197.4134385071981228 [Eh]

	 ================> DF-SCS-MP2 Energies <==================
	-----------------------------------------------------------
	 SCS Same-Spin Scale       =       0.3333333333333333 [-]
	 SCS Opposite-Spin Scale   =       1.2000000000000000 [-]
	 SCS Same-Spin Energy      =      -0.0705936545226376 [Eh]
	 SCS Opposite-Spin Energy  =      -0.9579364383373833 [Eh]
	 SCS Correlation Energy    =      -1.0285300928600210 [Eh]
	 SCS Total Energy          =    -197.4319072712090701 [Eh]
	-----------------------------------------------------------

  Dipole Moment: [D]
     X:     0.0000      Y:     0.0000      Z:     0.0000     Total:     0.0000

*** Psi4 exiting successfully. Buy a developer a beer!
