                               Psi4 1.3.2 release

  ==> Input File <==

--------------------------------------------------------------------------
#psi4
#
memory 32 gb

molecule  {
0 1
  C        0.0102986    -0.0037429    -0.0243472
  C        1.0323080     1.1005010     0.2511920
  H        1.6840120     1.2309930    -0.6196990
  H        0.5407810     2.0585400     0.4530930
  H        1.6631030     0.8551880     1.1126530
  C       -0.8616050     0.3749750    -1.2070170
  H       -1.6102970    -0.3991140    -1.4081060
  H       -1.3889910     1.3191910    -1.0323370
  H       -0.2457010     0.4921210    -2.1054290
  C       -0.8907450    -0.1548370     1.2338820
  H       -1.6401910    -0.9387090     1.0787540
  H       -1.4184290     0.7795360     1.4545320
  H       -0.2961040    -0.4240080     2.1137440
  C        0.7200310    -1.3206420    -0.2780570
  H        1.3451780    -1.6115710     0.5732660
  H        0.0009600    -2.1265660    -0.4614120
  H        1.3656220    -1.2356900    -1.1590760
units angstrom
no_reorient  #important for SAPT in psi4, default
symmetry c1  #important for SAPT in psi4, default
}

set PROPERTIES_ORIGIN ["COM"]
properties('MP2/aug-cc-pvtz', properties = ['dipole'])
--------------------------------------------------------------------------

    Molecular point group: c1
  Charge       = 0
  Multiplicity = 1
  Basis Set: AUG-CC-PVTZ
    Blend: AUG-CC-PVTZ
  Basis Set: (AUG-CC-PVTZ AUX)
    Blend: AUG-CC-PVTZ-JKFIT

    Orbital Energies [Eh]
    ---------------------

    Doubly Occupied:

       1A    -11.228764     2A    -11.207935     3A    -11.207822
       4A    -11.207703     5A    -11.207681     6A     -1.104732
       7A     -0.929194     8A     -0.927814     9A     -0.924096
      10A     -0.728991    11A     -0.611350    12A     -0.610036
      13A     -0.609493    14A     -0.551513    15A     -0.551492
      16A     -0.508701    17A     -0.508070    18A     -0.507851
      19A     -0.458745    20A     -0.454479    21A     -0.442871

  @DF-RHF Final Energy:  -196.40332037818146

   => Energetics <=

    Nuclear Repulsion Energy =            198.8248636369032170
    One-Electron Energy =                -657.4776991315691248
    Two-Electron Energy =                 262.2495151164844742
    Total Energy =                       -196.4033203781814336
  Basis Set: (AUG-CC-PVTZ AUX)
    Blend: AUG-CC-PVTZ-RI
    Molecular point group: c1

    Geometry (in Angstrom), charge = 0, multiplicity = 1:

       Center              X                  Y                   Z               Mass
    ------------   -----------------  -----------------  -----------------  -----------------
         C            0.008587030043    -0.003118152328    -0.020294380948    12.000000000000
         C            1.030596430043     1.101125747672     0.255244819052    12.000000000000
         H            1.682300430043     1.231617747672    -0.615646180948     1.007825032230
         H            0.539069430043     2.059164747672     0.457145819052     1.007825032230
         H            1.661391430043     0.855812747672     1.116705819052     1.007825032230
         C           -0.863316569957     0.375599747672    -1.202964180948    12.000000000000
         H           -1.612008569957    -0.398489252328    -1.404053180948     1.007825032230
         H           -1.390702569957     1.319815747672    -1.028284180948     1.007825032230
         H           -0.247412569957     0.492745747672    -2.101376180948     1.007825032230
         C           -0.892456569957    -0.154212252328     1.237934819052    12.000000000000
         H           -1.641902569957    -0.938084252328     1.082806819052     1.007825032230
         H           -1.420140569957     0.780160747672     1.458584819052     1.007825032230
         H           -0.297815569957    -0.423383252328     2.117796819052     1.007825032230
         C            0.718319430043    -1.320017252328    -0.274004180948    12.000000000000
         H            1.343466430043    -1.610946252328     0.577318819052     1.007825032230
         H           -0.000751569957    -2.125941252328    -0.457359180948     1.007825032230
         H            1.363910430043    -1.235065252328    -1.155023180948     1.007825032230

  Basis Set: AUG-CC-PVTZ
    Blend: AUG-CC-PVTZ
  Basis Set: (AUG-CC-PVTZ AUX)
    Blend: AUG-CC-PVTZ-JKFIT
	 Reference Energy          =    -196.4033203781814620 [Eh]
	 Singles Energy            =      -0.0000000000000000 [Eh]
	 Same-Spin Energy          =      -0.2116410091003256 [Eh]
	 Opposite-Spin Energy      =      -0.7981569798044825 [Eh]
	 Correlation Energy        =      -1.0097979889048081 [Eh]
	 Total Energy              =    -197.4131183670862697 [Eh]

	 ================> DF-SCS-MP2 Energies <==================
	-----------------------------------------------------------
	 SCS Same-Spin Scale       =       0.3333333333333333 [-]
	 SCS Opposite-Spin Scale   =       1.2000000000000000 [-]
	 SCS Same-Spin Energy      =      -0.0705470030334419 [Eh]
	 SCS Opposite-Spin Energy  =      -0.9577883757653790 [Eh]
	 SCS Correlation Energy    =      -1.0283353787988210 [Eh]
	 SCS Total Energy          =    -197.4316557569802910 [Eh]
	-----------------------------------------------------------

  Dipole Moment: [D]
     X:     0.0050      Y:    -0.0016      Z:    -0.0114     Total:     0.0126

*** Psi4 exiting successfully. Buy a developer a beer!
