                               Psi4 1.3.2 release

  ==> Input File <==

--------------------------------------------------------------------------
#psi4
#
memory 32 gb

molecule  {
0 1
  C        0.0000200     0.0000170     0.0000030
  C        1.1672799     1.2443896     0.2840350
  H        1.6840120     1.2309930    -0.6196990
  H        0.5407810     2.0585400     0.4530930
  H        1.6631030     0.8551880     1.1126530
  C       -0.8616050     0.3749750    -1.2070170
  H       -1.6102970    -0.3991140    -1.4081060
  H       -1.3889910     1.3191910    -1.0323370
  H       -0.2457010     0.4921210    -2.1054290
  C       -0.8907450    -0.1548370     1.2338820
  H       -1.6401910    -0.9387090     1.0787540
  H       -1.4184290     0.7795360     1.4545320
  H       -0.2961040    -0.4240080     2.1137440
  C        0.7200310    -1.3206420    -0.2780570
  H        1.3451780    -1.6115710     0.5732660
  H        0.0009600    -2.1265660    -0.4614120
  H        1.3656220    -1.2356900    -1.1590760
units angstrom
no_reorient  #important for SAPT in psi4, default
symmetry c1  #important for SAPT in psi4, default
}

set PROPERTIES_ORIGIN ["COM"]
properties('MP2/aug-cc-pvtz', properties = ['dipole'])
--------------------------------------------------------------------------

    Molecular point group: c1
  Charge       = 0
  Multiplicity = 1
  Basis Set: AUG-CC-PVTZ
    Blend: AUG-CC-PVTZ
  Basis Set: (AUG-CC-PVTZ AUX)
    Blend: AUG-CC-PVTZ-JKFIT

    Orbital Energies [Eh]
    ---------------------

    Doubly Occupied:

       1A    -11.237404     2A    -11.208294     3A    -11.208294
       4A    -11.208268     5A    -11.203463     6A     -1.088270
       7A     -0.931979     8A     -0.925670     9A     -0.925668
      10A     -0.721934    11A     -0.611671    12A     -0.611670
      13A     -0.602001    14A     -0.562970    15A     -0.562970
      16A     -0.522786    17A     -0.522785    18A     -0.508037
      19A     -0.456501    20A     -0.456497    21A     -0.397774

  @DF-RHF Final Energy:  -196.37811497280029

   => Energetics <=

    Nuclear Repulsion Energy =            195.9715227702374989
    One-Electron Energy =                -651.7494665022509253
    Two-Electron Energy =                 259.3998287592131646
    Total Energy =                       -196.3781149728002902
  Basis Set: (AUG-CC-PVTZ AUX)
    Blend: AUG-CC-PVTZ-RI
    Molecular point group: c1

    Geometry (in Angstrom), charge = 0, multiplicity = 1:

       Center              X                  Y                   Z               Mass
    ------------   -----------------  -----------------  -----------------  -----------------
         C           -0.022446718339    -0.023934284288    -0.005463965511    12.000000000000
         C            1.144813181661     1.220438315712     0.278568034489    12.000000000000
         H            1.661545281661     1.207041715712    -0.625165965511     1.007825032230
         H            0.518314281661     2.034588715712     0.447626034489     1.007825032230
         H            1.640636281661     0.831236715712     1.107186034489     1.007825032230
         C           -0.884071718339     0.351023715712    -1.212483965511    12.000000000000
         H           -1.632763718339    -0.423065284288    -1.413572965511     1.007825032230
         H           -1.411457718339     1.295239715712    -1.037803965511     1.007825032230
         H           -0.268167718339     0.468169715712    -2.110895965511     1.007825032230
         C           -0.913211718339    -0.178788284288     1.228415034489    12.000000000000
         H           -1.662657718339    -0.962660284288     1.073287034489     1.007825032230
         H           -1.440895718339     0.755584715712     1.449065034489     1.007825032230
         H           -0.318570718339    -0.447959284288     2.108277034489     1.007825032230
         C            0.697564281661    -1.344593284288    -0.283523965511    12.000000000000
         H            1.322711281661    -1.635522284288     0.567799034489     1.007825032230
         H           -0.021506718339    -2.150517284288    -0.466878965511     1.007825032230
         H            1.343155281661    -1.259641284288    -1.164542965511     1.007825032230

  Basis Set: AUG-CC-PVTZ
    Blend: AUG-CC-PVTZ
  Basis Set: (AUG-CC-PVTZ AUX)
    Blend: AUG-CC-PVTZ-JKFIT
	 Reference Energy          =    -196.3781149728002902 [Eh]
	 Singles Energy            =      -0.0000000000000000 [Eh]
	 Same-Spin Energy          =      -0.2115018987654829 [Eh]
	 Opposite-Spin Energy      =      -0.7991819074867172 [Eh]
	 Correlation Energy        =      -1.0106838062522001 [Eh]
	 Total Energy              =    -197.3887987790524789 [Eh]

	 ================> DF-SCS-MP2 Energies <==================
	-----------------------------------------------------------
	 SCS Same-Spin Scale       =       0.3333333333333333 [-]
	 SCS Opposite-Spin Scale   =       1.2000000000000000 [-]
	 SCS Same-Spin Energy      =      -0.0705006329218276 [Eh]
	 SCS Opposite-Spin Energy  =      -0.9590182889840606 [Eh]
	 SCS Correlation Energy    =      -1.0295189219058882 [Eh]
	 SCS Total Energy          =    -197.4076338947061799 [Eh]
	-----------------------------------------------------------

  Dipole Moment: [D]
     X:    -0.0825      Y:    -0.0880      Z:    -0.0201     Total:     0.1223

*** Psi4 exiting successfully. Buy a developer a beer!
