                               Psi4 1.3.2 release

  ==> Input File <==

--------------------------------------------------------------------------
#psi4
#
memory 32 gb

molecule  {
0 1
  C        0.0000200     0.0000170     0.0000030
  C        0.9648220     1.0285567     0.2347705
  H        1.6840120     1.2309930    -0.6196990
  H        0.5407810     2.0585400     0.4530930
  H        1.6631030     0.8551880     1.1126530
  C       -0.8616050     0.3749750    -1.2070170
  H       -1.6102970    -0.3991140    -1.4081060
  H       -1.3889910     1.3191910    -1.0323370
  H       -0.2457010     0.4921210    -2.1054290
  C       -0.8907450    -0.1548370     1.2338820
  H       -1.6401910    -0.9387090     1.0787540
  H       -1.4184290     0.7795360     1.4545320
  H       -0.2961040    -0.4240080     2.1137440
  C        0.7200310    -1.3206420    -0.2780570
  H        1.3451780    -1.6115710     0.5732660
  H        0.0009600    -2.1265660    -0.4614120
  H        1.3656220    -1.2356900    -1.1590760
units angstrom
no_reorient  #important for SAPT in psi4, default
symmetry c1  #important for SAPT in psi4, default
}

set PROPERTIES_ORIGIN ["COM"]
properties('MP2/aug-cc-pvtz', properties = ['dipole'])
--------------------------------------------------------------------------

    Molecular point group: c1
  Charge       = 0
  Multiplicity = 1
  Basis Set: AUG-CC-PVTZ
    Blend: AUG-CC-PVTZ
  Basis Set: (AUG-CC-PVTZ AUX)
    Blend: AUG-CC-PVTZ-JKFIT

    Orbital Energies [Eh]
    ---------------------

    Doubly Occupied:

       1A    -11.223523     2A    -11.214030     3A    -11.208484
       4A    -11.208484     5A    -11.208451     6A     -1.118652
       7A     -0.928770     8A     -0.928767     9A     -0.925589
      10A     -0.733894    11A     -0.616326    12A     -0.612154
      13A     -0.612153    14A     -0.549153    15A     -0.549151
      16A     -0.508954    17A     -0.498416    18A     -0.498416
      19A     -0.475505    20A     -0.445492    21A     -0.445490

  @DF-RHF Final Energy:  -196.39210056766910

   => Energetics <=

    Nuclear Repulsion Energy =            200.3886938168547545
    One-Electron Energy =                -660.5418799140313695
    Two-Electron Energy =                 263.7610855295075112
    Total Energy =                       -196.3921005676691038
  Basis Set: (AUG-CC-PVTZ AUX)
    Blend: AUG-CC-PVTZ-RI
    Molecular point group: c1

    Geometry (in Angstrom), charge = 0, multiplicity = 1:

       Center              X                  Y                   Z               Mass
    ------------   -----------------  -----------------  -----------------  -----------------
         C            0.011252315656     0.011991012944     0.002736090206    12.000000000000
         C            0.976054315656     1.040530712944     0.237503590206    12.000000000000
         H            1.695244315656     1.242967012944    -0.616965909794     1.007825032230
         H            0.552013315656     2.070514012944     0.455826090206     1.007825032230
         H            1.674335315656     0.867162012944     1.115386090206     1.007825032230
         C           -0.850372684344     0.386949012944    -1.204283909794    12.000000000000
         H           -1.599064684344    -0.387139987056    -1.405372909794     1.007825032230
         H           -1.377758684344     1.331165012944    -1.029603909794     1.007825032230
         H           -0.234468684344     0.504095012944    -2.102695909794     1.007825032230
         C           -0.879512684344    -0.142862987056     1.236615090206    12.000000000000
         H           -1.628958684344    -0.926734987056     1.081487090206     1.007825032230
         H           -1.407196684344     0.791510012944     1.457265090206     1.007825032230
         H           -0.284871684344    -0.412033987056     2.116477090206     1.007825032230
         C            0.731263315656    -1.308667987056    -0.275323909794    12.000000000000
         H            1.356410315656    -1.599596987056     0.575999090206     1.007825032230
         H            0.012192315656    -2.114591987056    -0.458678909794     1.007825032230
         H            1.376854315656    -1.223715987056    -1.156342909794     1.007825032230

  Basis Set: AUG-CC-PVTZ
    Blend: AUG-CC-PVTZ
  Basis Set: (AUG-CC-PVTZ AUX)
    Blend: AUG-CC-PVTZ-JKFIT
	 Reference Energy          =    -196.3921005676691038 [Eh]
	 Singles Energy            =      -0.0000000000000000 [Eh]
	 Same-Spin Energy          =      -0.2128197517097881 [Eh]
	 Opposite-Spin Energy      =      -0.7996120397820723 [Eh]
	 Correlation Energy        =      -1.0124317914918604 [Eh]
	 Total Energy              =    -197.4045323591609531 [Eh]

	 ================> DF-SCS-MP2 Energies <==================
	-----------------------------------------------------------
	 SCS Same-Spin Scale       =       0.3333333333333333 [-]
	 SCS Opposite-Spin Scale   =       1.2000000000000000 [-]
	 SCS Same-Spin Energy      =      -0.0709399172365960 [Eh]
	 SCS Opposite-Spin Energy  =      -0.9595344477384867 [Eh]
	 SCS Correlation Energy    =      -1.0304743649750827 [Eh]
	 SCS Total Energy          =    -197.4225749326441814 [Eh]
	-----------------------------------------------------------

  Dipole Moment: [D]
     X:    -0.0148      Y:    -0.0158      Z:    -0.0036     Total:     0.0219

*** Psi4 exiting successfully. Buy a developer a beer!
