                               Psi4 1.3.2 release

  ==> Input File <==

--------------------------------------------------------------------------
#psi4
#
memory 32 gb

molecule  {
0 1
  C        0.0000200     0.0000170     0.0000030
  C        1.0997940     1.1724453     0.2676135
  H        1.6840120     1.2309930    -0.6196990
  H        0.5407810     2.0585400     0.4530930
  H        1.6631030     0.8551880     1.1126530
  C       -0.8616050     0.3749750    -1.2070170
  H       -1.6102970    -0.3991140    -1.4081060
  H       -1.3889910     1.3191910    -1.0323370
  H       -0.2457010     0.4921210    -2.1054290
  C       -0.8907450    -0.1548370     1.2338820
  H       -1.6401910    -0.9387090     1.0787540
  H       -1.4184290     0.7795360     1.4545320
  H       -0.2961040    -0.4240080     2.1137440
  C        0.7200310    -1.3206420    -0.2780570
  H        1.3451780    -1.6115710     0.5732660
  H        0.0009600    -2.1265660    -0.4614120
  H        1.3656220    -1.2356900    -1.1590760
units angstrom
no_reorient  #important for SAPT in psi4, default
symmetry c1  #important for SAPT in psi4, default
}

set PROPERTIES_ORIGIN ["COM"]
properties('MP2/aug-cc-pvtz', properties = ['dipole'])
--------------------------------------------------------------------------

    Molecular point group: c1
  Charge       = 0
  Multiplicity = 1
  Basis Set: AUG-CC-PVTZ
    Blend: AUG-CC-PVTZ
  Basis Set: (AUG-CC-PVTZ AUX)
    Blend: AUG-CC-PVTZ-JKFIT

    Orbital Energies [Eh]
    ---------------------

    Doubly Occupied:

       1A    -11.233185     2A    -11.207740     3A    -11.207740
       4A    -11.207714     5A    -11.204151     6A     -1.094805
       7A     -0.929486     8A     -0.925994     9A     -0.925991
      10A     -0.724755    11A     -0.610245    12A     -0.610244
      13A     -0.605344    14A     -0.556515    15A     -0.556514
      16A     -0.517058    17A     -0.517057    18A     -0.507883
      19A     -0.454945    20A     -0.454941    21A     -0.425518

  @DF-RHF Final Energy:  -196.39719418310563

   => Energetics <=

    Nuclear Repulsion Energy =            197.3645078167341183
    One-Electron Energy =                -654.5677538883132911
    Two-Electron Energy =                 260.8060518884735757
    Total Energy =                       -196.3971941831056256
  Basis Set: (AUG-CC-PVTZ AUX)
    Blend: AUG-CC-PVTZ-RI
    Molecular point group: c1

    Geometry (in Angstrom), charge = 0, multiplicity = 1:

       Center              X                  Y                   Z               Mass
    ------------   -----------------  -----------------  -----------------  -----------------
         C           -0.011213718104    -0.011959185210    -0.002730613606    12.000000000000
         C            1.088560281896     1.160469114790     0.264879886394    12.000000000000
         H            1.672778281896     1.219016814790    -0.622432613606     1.007825032230
         H            0.529547281896     2.046563814790     0.450359386394     1.007825032230
         H            1.651869281896     0.843211814790     1.109919386394     1.007825032230
         C           -0.872838718104     0.362998814790    -1.209750613606    12.000000000000
         H           -1.621530718104    -0.411090185210    -1.410839613606     1.007825032230
         H           -1.400224718104     1.307214814790    -1.035070613606     1.007825032230
         H           -0.256934718104     0.480144814790    -2.108162613606     1.007825032230
         C           -0.901978718104    -0.166813185210     1.231148386394    12.000000000000
         H           -1.651424718104    -0.950685185210     1.076020386394     1.007825032230
         H           -1.429662718104     0.767559814790     1.451798386394     1.007825032230
         H           -0.307337718104    -0.435984185210     2.111010386394     1.007825032230
         C            0.708797281896    -1.332618185210    -0.280790613606    12.000000000000
         H            1.333944281896    -1.623547185210     0.570532386394     1.007825032230
         H           -0.010273718104    -2.138542185210    -0.464145613606     1.007825032230
         H            1.354388281896    -1.247666185210    -1.161809613606     1.007825032230

  Basis Set: AUG-CC-PVTZ
    Blend: AUG-CC-PVTZ
  Basis Set: (AUG-CC-PVTZ AUX)
    Blend: AUG-CC-PVTZ-JKFIT
	 Reference Energy          =    -196.3971941831056256 [Eh]
	 Singles Energy            =      -0.0000000000000000 [Eh]
	 Same-Spin Energy          =      -0.2112124213016833 [Eh]
	 Opposite-Spin Energy      =      -0.7980059199374063 [Eh]
	 Correlation Energy        =      -1.0092183412390896 [Eh]
	 Total Energy              =    -197.4064125243447165 [Eh]

	 ================> DF-SCS-MP2 Energies <==================
	-----------------------------------------------------------
	 SCS Same-Spin Scale       =       0.3333333333333333 [-]
	 SCS Opposite-Spin Scale   =       1.2000000000000000 [-]
	 SCS Same-Spin Energy      =      -0.0704041404338944 [Eh]
	 SCS Opposite-Spin Energy  =      -0.9576071039248876 [Eh]
	 SCS Correlation Energy    =      -1.0280112443587819 [Eh]
	 SCS Total Energy          =    -197.4252054274644195 [Eh]
	-----------------------------------------------------------

  Dipole Moment: [D]
     X:    -0.0214      Y:    -0.0228      Z:    -0.0052     Total:     0.0317

*** Psi4 exiting successfully. Buy a developer a beer!
