                               Psi4 1.3.2 release

  ==> Input File <==

--------------------------------------------------------------------------
#psi4
#
memory 32 gb

molecule  {
0 1
  C        0.0000200     0.0000170     0.0000030
  C        1.0680813     1.0429353     0.3336882
  H        1.6840120     1.2309930    -0.6196990
  H        0.5407810     2.0585400     0.4530930
  H        1.6631030     0.8551880     1.1126530
  C       -0.8616050     0.3749750    -1.2070170
  H       -1.6102970    -0.3991140    -1.4081060
  H       -1.3889910     1.3191910    -1.0323370
  H       -0.2457010     0.4921210    -2.1054290
  C       -0.8907450    -0.1548370     1.2338820
  H       -1.6401910    -0.9387090     1.0787540
  H       -1.4184290     0.7795360     1.4545320
  H       -0.2961040    -0.4240080     2.1137440
  C        0.7200310    -1.3206420    -0.2780570
  H        1.3451780    -1.6115710     0.5732660
  H        0.0009600    -2.1265660    -0.4614120
  H        1.3656220    -1.2356900    -1.1590760
units angstrom
no_reorient  #important for SAPT in psi4, default
symmetry c1  #important for SAPT in psi4, default
}

set PROPERTIES_ORIGIN ["COM"]
properties('MP2/aug-cc-pvtz', properties = ['dipole'])
--------------------------------------------------------------------------

    Molecular point group: c1
  Charge       = 0
  Multiplicity = 1
  Basis Set: AUG-CC-PVTZ
    Blend: AUG-CC-PVTZ
  Basis Set: (AUG-CC-PVTZ AUX)
    Blend: AUG-CC-PVTZ-JKFIT

    Orbital Energies [Eh]
    ---------------------

    Doubly Occupied:

       1A    -11.229632     2A    -11.210083     3A    -11.209711
       4A    -11.207131     5A    -11.207113     6A     -1.105280
       7A     -0.932522     8A     -0.926940     9A     -0.924096
      10A     -0.731400    11A     -0.621932    12A     -0.609025
      13A     -0.604667    14A     -0.557222    15A     -0.547094
      16A     -0.520248    17A     -0.508494    18A     -0.493338
      19A     -0.462720    20A     -0.445771    21A     -0.443340

  @DF-RHF Final Energy:  -196.39032795439712

   => Energetics <=

    Nuclear Repulsion Energy =            198.8553632706598648
    One-Electron Energy =                -657.4958631070034016
    Two-Electron Energy =                 262.2501718819464713
    Total Energy =                       -196.3903279543970939
  Basis Set: (AUG-CC-PVTZ AUX)
    Blend: AUG-CC-PVTZ-RI
    Molecular point group: c1

    Geometry (in Angstrom), charge = 0, multiplicity = 1:

       Center              X                  Y                   Z               Mass
    ------------   -----------------  -----------------  -----------------  -----------------
         C           -0.005935152262     0.009597700901    -0.013728720182    12.000000000000
         C            1.062126147738     1.052516000901     0.319956479818    12.000000000000
         H            1.678056847738     1.240573700901    -0.633430720182     1.007825032230
         H            0.534825847738     2.068120700901     0.439361279818     1.007825032230
         H            1.657147847738     0.864768700901     1.098921279818     1.007825032230
         C           -0.867560152262     0.384555700901    -1.220748720182    12.000000000000
         H           -1.616252152262    -0.389533299099    -1.421837720182     1.007825032230
         H           -1.394946152262     1.328771700901    -1.046068720182     1.007825032230
         H           -0.251656152262     0.501701700901    -2.119160720182     1.007825032230
         C           -0.896700152262    -0.145256299099     1.220150279818    12.000000000000
         H           -1.646146152262    -0.929128299099     1.065022279818     1.007825032230
         H           -1.424384152262     0.789116700901     1.440800279818     1.007825032230
         H           -0.302059152262    -0.414427299099     2.100012279818     1.007825032230
         C            0.714075847738    -1.311061299099    -0.291788720182    12.000000000000
         H            1.339222847738    -1.601990299099     0.559534279818     1.007825032230
         H           -0.004995152262    -2.116985299099    -0.475143720182     1.007825032230
         H            1.359666847738    -1.226109299099    -1.172807720182     1.007825032230

  Basis Set: AUG-CC-PVTZ
    Blend: AUG-CC-PVTZ
  Basis Set: (AUG-CC-PVTZ AUX)
    Blend: AUG-CC-PVTZ-JKFIT
	 Reference Energy          =    -196.3903279543971223 [Eh]
	 Singles Energy            =      -0.0000000000000000 [Eh]
	 Same-Spin Energy          =      -0.2118259496328063 [Eh]
	 Opposite-Spin Energy      =      -0.7987468006292467 [Eh]
	 Correlation Energy        =      -1.0105727502620532 [Eh]
	 Total Energy              =    -197.4009007046591648 [Eh]

	 ================> DF-SCS-MP2 Energies <==================
	-----------------------------------------------------------
	 SCS Same-Spin Scale       =       0.3333333333333333 [-]
	 SCS Opposite-Spin Scale   =       1.2000000000000000 [-]
	 SCS Same-Spin Energy      =      -0.0706086498776021 [Eh]
	 SCS Opposite-Spin Energy  =      -0.9584961607550960 [Eh]
	 SCS Correlation Energy    =      -1.0291048106326981 [Eh]
	 SCS Total Energy          =    -197.4194327650298248 [Eh]
	-----------------------------------------------------------

  Dipole Moment: [D]
     X:    -0.0109      Y:    -0.0269      Z:     0.0091     Total:     0.0305

*** Psi4 exiting successfully. Buy a developer a beer!
