                               Psi4 1.3.2 release

  ==> Input File <==

--------------------------------------------------------------------------
#psi4
#
memory 32 gb

molecule  {
0 1
  C        0.0000200     0.0000170     0.0000030
  C        1.0323080     1.1005010     0.2511920
  H        1.6785908     1.2492955    -0.6208035
  H        0.5407810     2.0585400     0.4530930
  H        1.6631030     0.8551880     1.1126530
  C       -0.8616050     0.3749750    -1.2070170
  H       -1.6102970    -0.3991140    -1.4081060
  H       -1.3889910     1.3191910    -1.0323370
  H       -0.2457010     0.4921210    -2.1054290
  C       -0.8907450    -0.1548370     1.2338820
  H       -1.6401910    -0.9387090     1.0787540
  H       -1.4184290     0.7795360     1.4545320
  H       -0.2961040    -0.4240080     2.1137440
  C        0.7200310    -1.3206420    -0.2780570
  H        1.3451780    -1.6115710     0.5732660
  H        0.0009600    -2.1265660    -0.4614120
  H        1.3656220    -1.2356900    -1.1590760
units angstrom
no_reorient  #important for SAPT in psi4, default
symmetry c1  #important for SAPT in psi4, default
}

set PROPERTIES_ORIGIN ["COM"]
properties('MP2/aug-cc-pvtz', properties = ['dipole'])
--------------------------------------------------------------------------

    Molecular point group: c1
  Charge       = 0
  Multiplicity = 1
  Basis Set: AUG-CC-PVTZ
    Blend: AUG-CC-PVTZ
  Basis Set: (AUG-CC-PVTZ AUX)
    Blend: AUG-CC-PVTZ-JKFIT

    Orbital Energies [Eh]
    ---------------------

    Doubly Occupied:

       1A    -11.228792     2A    -11.207840     3A    -11.207784
       4A    -11.207747     5A    -11.207723     6A     -1.104536
       7A     -0.927097     8A     -0.927033     9A     -0.926928
      10A     -0.729166    11A     -0.610689    12A     -0.610225
      13A     -0.609684    14A     -0.551871    15A     -0.550939
      16A     -0.508706    17A     -0.508182    18A     -0.507434
      19A     -0.452618    20A     -0.452152    21A     -0.451906

  @DF-RHF Final Energy:  -196.40401516214618

   => Energetics <=

    Nuclear Repulsion Energy =            198.8110926532100393
    One-Electron Energy =                -657.4521114603243177
    Two-Electron Energy =                 262.2370036449680697
    Total Energy =                       -196.4040151621462087
  Basis Set: (AUG-CC-PVTZ AUX)
    Blend: AUG-CC-PVTZ-RI
    Molecular point group: c1

    Geometry (in Angstrom), charge = 0, multiplicity = 1:

       Center              X                  Y                   Z               Mass
    ------------   -----------------  -----------------  -----------------  -----------------
         C            0.000095083565    -0.000239942975     0.000018178479    12.000000000000
         C            1.032383083565     1.100244057025     0.251207178479    12.000000000000
         H            1.678665883565     1.249038557025    -0.620788321521     1.007825032230
         H            0.540856083565     2.058283057025     0.453108178479     1.007825032230
         H            1.663178083565     0.854931057025     1.112668178479     1.007825032230
         C           -0.861529916435     0.374718057025    -1.207001821521    12.000000000000
         H           -1.610221916435    -0.399370942975    -1.408090821521     1.007825032230
         H           -1.388915916435     1.318934057025    -1.032321821521     1.007825032230
         H           -0.245625916435     0.491864057025    -2.105413821521     1.007825032230
         C           -0.890669916435    -0.155093942975     1.233897178479    12.000000000000
         H           -1.640115916435    -0.938965942975     1.078769178479     1.007825032230
         H           -1.418353916435     0.779279057025     1.454547178479     1.007825032230
         H           -0.296028916435    -0.424264942975     2.113759178479     1.007825032230
         C            0.720106083565    -1.320898942975    -0.278041821521    12.000000000000
         H            1.345253083565    -1.611827942975     0.573281178479     1.007825032230
         H            0.001035083565    -2.126822942975    -0.461396821521     1.007825032230
         H            1.365697083565    -1.235946942975    -1.159060821521     1.007825032230

  Basis Set: AUG-CC-PVTZ
    Blend: AUG-CC-PVTZ
  Basis Set: (AUG-CC-PVTZ AUX)
    Blend: AUG-CC-PVTZ-JKFIT
	 Reference Energy          =    -196.4040151621461803 [Eh]
	 Singles Energy            =      -0.0000000000000000 [Eh]
	 Same-Spin Energy          =      -0.2116028749469600 [Eh]
	 Opposite-Spin Energy      =      -0.7980863424252715 [Eh]
	 Correlation Energy        =      -1.0096892173722316 [Eh]
	 Total Energy              =    -197.4137043795184070 [Eh]

	 ================> DF-SCS-MP2 Energies <==================
	-----------------------------------------------------------
	 SCS Same-Spin Scale       =       0.3333333333333333 [-]
	 SCS Opposite-Spin Scale   =       1.2000000000000000 [-]
	 SCS Same-Spin Energy      =      -0.0705342916489867 [Eh]
	 SCS Opposite-Spin Energy  =      -0.9577036109103259 [Eh]
	 SCS Correlation Energy    =      -1.0282379025593125 [Eh]
	 SCS Total Energy          =    -197.4322530647054919 [Eh]
	-----------------------------------------------------------

  Dipole Moment: [D]
     X:    -0.0015      Y:     0.0047      Z:    -0.0020     Total:     0.0053

*** Psi4 exiting successfully. Buy a developer a beer!
