                               Psi4 1.3.2 release

  ==> Input File <==

--------------------------------------------------------------------------
#psi4
#
memory 32 gb

molecule  {
0 1
  C        0.0000200     0.0000170     0.0000030
  C        1.0323080     1.1005010     0.2511920
  H        1.6611529     1.3039089    -0.6225224
  H        0.5407810     2.0585400     0.4530930
  H        1.6631030     0.8551880     1.1126530
  C       -0.8616050     0.3749750    -1.2070170
  H       -1.6102970    -0.3991140    -1.4081060
  H       -1.3889910     1.3191910    -1.0323370
  H       -0.2457010     0.4921210    -2.1054290
  C       -0.8907450    -0.1548370     1.2338820
  H       -1.6401910    -0.9387090     1.0787540
  H       -1.4184290     0.7795360     1.4545320
  H       -0.2961040    -0.4240080     2.1137440
  C        0.7200310    -1.3206420    -0.2780570
  H        1.3451780    -1.6115710     0.5732660
  H        0.0009600    -2.1265660    -0.4614120
  H        1.3656220    -1.2356900    -1.1590760
units angstrom
no_reorient  #important for SAPT in psi4, default
symmetry c1  #important for SAPT in psi4, default
}

set PROPERTIES_ORIGIN ["COM"]
properties('MP2/aug-cc-pvtz', properties = ['dipole'])
--------------------------------------------------------------------------

    Molecular point group: c1
  Charge       = 0
  Multiplicity = 1
  Basis Set: AUG-CC-PVTZ
    Blend: AUG-CC-PVTZ
  Basis Set: (AUG-CC-PVTZ AUX)
    Blend: AUG-CC-PVTZ-JKFIT

    Orbital Energies [Eh]
    ---------------------

    Doubly Occupied:

       1A    -11.229151     2A    -11.208027     3A    -11.207821
       4A    -11.207659     5A    -11.207631     6A     -1.104435
       7A     -0.927404     8A     -0.927110     9A     -0.926710
      10A     -0.729774    11A     -0.612092    12A     -0.610186
      13A     -0.608123    14A     -0.553022    15A     -0.549349
      16A     -0.510201    17A     -0.508170    18A     -0.504965
      19A     -0.453957    20A     -0.452205    21A     -0.451125

  @DF-RHF Final Energy:  -196.40353522030628

   => Energetics <=

    Nuclear Repulsion Energy =            198.7717771613048399
    One-Electron Energy =                -657.3723869703530909
    Two-Electron Energy =                 262.1970745887419980
    Total Energy =                       -196.4035352203062530
  Basis Set: (AUG-CC-PVTZ AUX)
    Blend: AUG-CC-PVTZ-RI
    Molecular point group: c1

    Geometry (in Angstrom), charge = 0, multiplicity = 1:

       Center              X                  Y                   Z               Mass
    ------------   -----------------  -----------------  -----------------  -----------------
         C            0.000338853871    -0.001003402176     0.000042207564    12.000000000000
         C            1.032626853871     1.099480597824     0.251231207564    12.000000000000
         H            1.661471753871     1.302888497824    -0.622483192436     1.007825032230
         H            0.541099853871     2.057519597824     0.453132207564     1.007825032230
         H            1.663421853871     0.854167597824     1.112692207564     1.007825032230
         C           -0.861286146129     0.373954597824    -1.206977792436    12.000000000000
         H           -1.609978146129    -0.400134402176    -1.408066792436     1.007825032230
         H           -1.388672146129     1.318170597824    -1.032297792436     1.007825032230
         H           -0.245382146129     0.491100597824    -2.105389792436     1.007825032230
         C           -0.890426146129    -0.155857402176     1.233921207564    12.000000000000
         H           -1.639872146129    -0.939729402176     1.078793207564     1.007825032230
         H           -1.418110146129     0.778515597824     1.454571207564     1.007825032230
         H           -0.295785146129    -0.425028402176     2.113783207564     1.007825032230
         C            0.720349853871    -1.321662402176    -0.278017792436    12.000000000000
         H            1.345496853871    -1.612591402176     0.573305207564     1.007825032230
         H            0.001278853871    -2.127586402176    -0.461372792436     1.007825032230
         H            1.365940853871    -1.236710402176    -1.159036792436     1.007825032230

  Basis Set: AUG-CC-PVTZ
    Blend: AUG-CC-PVTZ
  Basis Set: (AUG-CC-PVTZ AUX)
    Blend: AUG-CC-PVTZ-JKFIT
	 Reference Energy          =    -196.4035352203062814 [Eh]
	 Singles Energy            =      -0.0000000000000000 [Eh]
	 Same-Spin Energy          =      -0.2116010762127194 [Eh]
	 Opposite-Spin Energy      =      -0.7980764066016646 [Eh]
	 Correlation Energy        =      -1.0096774828143840 [Eh]
	 Total Energy              =    -197.4132127031206778 [Eh]

	 ================> DF-SCS-MP2 Energies <==================
	-----------------------------------------------------------
	 SCS Same-Spin Scale       =       0.3333333333333333 [-]
	 SCS Opposite-Spin Scale   =       1.2000000000000000 [-]
	 SCS Same-Spin Energy      =      -0.0705336920709065 [Eh]
	 SCS Opposite-Spin Energy  =      -0.9576916879219974 [Eh]
	 SCS Correlation Energy    =      -1.0282253799929040 [Eh]
	 SCS Total Energy          =    -197.4317606002991852 [Eh]
	-----------------------------------------------------------

  Dipole Moment: [D]
     X:    -0.0068      Y:     0.0194      Z:    -0.0076     Total:     0.0219

*** Psi4 exiting successfully. Buy a developer a beer!
