                               Psi4 1.4a3.dev225

  ==> Input File <==

--------------------------------------------------------------------------
#psi4
#
memory 32 gb

molecule  {
0 1
  C        0.0000000     0.0000000     0.0000010
  C        0.3517547     0.0828685     1.5069646
  H        1.0230580     0.9209770     1.6854680
  H       -0.5552030     0.2238040     2.0922020
  H        0.8398860    -0.8366930     1.8248780
  C       -0.6850330     1.2964610    -0.4357480
  H       -0.9443620     1.2629370    -1.4996040
  H       -1.6069860     1.4613930     0.1325540
  H       -0.0287410     2.1586270    -0.2741370
  C       -0.9430840    -1.1803730    -0.2393110
  H       -1.2073380    -1.2607230    -1.2994430
  H       -1.8698920    -1.0622760     0.3327440
  H       -0.4747760    -2.1227260     0.0653640
  C        1.2809020    -0.1978880    -0.8124580
  H        1.7912680    -1.1216440    -0.5185760
  H        1.0587200    -0.2597050    -1.8834300
  H        1.9743670     0.6360310    -0.6580170
units angstrom
no_reorient  #important for SAPT in psi4, default
symmetry c1  #important for SAPT in psi4, default
}

set PROPERTIES_ORIGIN ["COM"]
properties('MP2/aug-cc-pvtz', properties = ['dipole'])
--------------------------------------------------------------------------

    Molecular point group: c1
  Charge       = 0
  Multiplicity = 1
  Basis Set: AUG-CC-PVTZ
    Blend: AUG-CC-PVTZ
  Basis Set: (AUG-CC-PVTZ AUX)
    Blend: AUG-CC-PVTZ-JKFIT

    Orbital Energies [Eh]
    ---------------------

    Doubly Occupied:

       1A    -11.229649     2A    -11.207721     3A    -11.207721
       4A    -11.207693     5A    -11.206814     6A     -1.102297
       7A     -0.927459     8A     -0.926753     9A     -0.926752
      10A     -0.728065    11A     -0.610087    12A     -0.610087
      13A     -0.609137    14A     -0.552283    15A     -0.552283
      16A     -0.510167    17A     -0.510166    18A     -0.508089
      19A     -0.452906    20A     -0.452906    21A     -0.447022

  @DF-RHF Final Energy:  -196.40395217543616

   => Energetics <=

    Nuclear Repulsion Energy =            198.5218188123975835
    One-Electron Energy =                -656.8794258545897264
    Two-Electron Energy =                 261.9536548667560396
    Total Energy =                       -196.4039521754361317
  Basis Set: (AUG-CC-PVTZ AUX)
    Blend: AUG-CC-PVTZ-RI
    Molecular point group: c1

    Geometry (in Angstrom), charge = 0, multiplicity = 1:

       Center              X                  Y                   Z               Mass
    ------------   -----------------  -----------------  -----------------  -----------------
         C           -0.000755645173    -0.000177879343    -0.003236253391    12.000000000000
         C            0.350999054827     0.082690620657     1.503727346609    12.000000000000
         H            1.022302354827     0.920799120657     1.682230746609     1.007825032230
         H           -0.555958645173     0.223626120657     2.088964746609     1.007825032230
         H            0.839130354827    -0.836870879343     1.821640746609     1.007825032230
         C           -0.685788645173     1.296283120657    -0.438985253391    12.000000000000
         H           -0.945117645173     1.262759120657    -1.502841253391     1.007825032230
         H           -1.607741645173     1.461215120657     0.129316746609     1.007825032230
         H           -0.029496645173     2.158449120657    -0.277374253391     1.007825032230
         C           -0.943839645173    -1.180550879343    -0.242548253391    12.000000000000
         H           -1.208093645173    -1.260900879343    -1.302680253391     1.007825032230
         H           -1.870647645173    -1.062453879343     0.329506746609     1.007825032230
         H           -0.475531645173    -2.122903879343     0.062126746609     1.007825032230
         C            1.280146354827    -0.198065879343    -0.815695253391    12.000000000000
         H            1.790512354827    -1.121821879343    -0.521813253391     1.007825032230
         H            1.057964354827    -0.259882879343    -1.886667253391     1.007825032230
         H            1.973611354827     0.635853120657    -0.661254253391     1.007825032230

  Basis Set: AUG-CC-PVTZ
    Blend: AUG-CC-PVTZ
  Basis Set: (AUG-CC-PVTZ AUX)
    Blend: AUG-CC-PVTZ-JKFIT
	 Reference Energy          =    -196.4039521754361601 [Eh]
	 Singles Energy            =      -0.0000000000000000 [Eh]
	 Same-Spin Energy          =      -0.2114677496140598 [Eh]
	 Opposite-Spin Energy      =      -0.7979700882667059 [Eh]
	 Correlation Energy        =      -1.0094378378807658 [Eh]
	 Total Energy              =    -197.4133900133169277 [Eh]

	 ================> DF-SCS-MP2 Energies <==================
	-----------------------------------------------------------
	 SCS Same-Spin Scale       =       0.3333333333333333 [-]
	 SCS Opposite-Spin Scale   =       1.2000000000000000 [-]
	 SCS Same-Spin Energy      =      -0.0704892498713533 [Eh]
	 SCS Opposite-Spin Energy  =      -0.9575641059200470 [Eh]
	 SCS Correlation Energy    =      -1.0280533557914002 [Eh]
	 SCS Total Energy          =    -197.4320055312275599 [Eh]
	-----------------------------------------------------------

  Dipole Moment: [D]
     X:    -0.0005      Y:    -0.0001      Z:    -0.0020     Total:     0.0021

*** Psi4 exiting successfully. Buy a developer a beer!
