                               Psi4 1.3.2 release

  ==> Input File <==

--------------------------------------------------------------------------
#psi4
#
memory 32 gb

molecule  {
0 1
  C        0.0208886    -0.0071663    -0.0486135
  C        1.0323080     1.1005010     0.2511920
  H        1.6840120     1.2309930    -0.6196990
  H        0.5407810     2.0585400     0.4530930
  H        1.6631030     0.8551880     1.1126530
  C       -0.8616050     0.3749750    -1.2070170
  H       -1.6102970    -0.3991140    -1.4081060
  H       -1.3889910     1.3191910    -1.0323370
  H       -0.2457010     0.4921210    -2.1054290
  C       -0.8907450    -0.1548370     1.2338820
  H       -1.6401910    -0.9387090     1.0787540
  H       -1.4184290     0.7795360     1.4545320
  H       -0.2961040    -0.4240080     2.1137440
  C        0.7200310    -1.3206420    -0.2780570
  H        1.3451780    -1.6115710     0.5732660
  H        0.0009600    -2.1265660    -0.4614120
  H        1.3656220    -1.2356900    -1.1590760
units angstrom
no_reorient  #important for SAPT in psi4, default
symmetry c1  #important for SAPT in psi4, default
}

set PROPERTIES_ORIGIN ["COM"]
properties('MP2/aug-cc-pvtz', properties = ['dipole'])
--------------------------------------------------------------------------

    Molecular point group: c1
  Charge       = 0
  Multiplicity = 1
  Basis Set: AUG-CC-PVTZ
    Blend: AUG-CC-PVTZ
  Basis Set: (AUG-CC-PVTZ AUX)
    Blend: AUG-CC-PVTZ-JKFIT

    Orbital Energies [Eh]
    ---------------------

    Doubly Occupied:

       1A    -11.229030     2A    -11.207990     3A    -11.207974
       4A    -11.207692     5A    -11.207669     6A     -1.105176
       7A     -0.931432     8A     -0.928645     9A     -0.921260
      10A     -0.729048    11A     -0.612456    12A     -0.610012
      13A     -0.608888    14A     -0.551579    15A     -0.551497
      16A     -0.509252    17A     -0.507998    18A     -0.507565
      19A     -0.465085    20A     -0.456562    21A     -0.433483

  @DF-RHF Final Energy:  -196.40122884544030

   => Energetics <=

    Nuclear Repulsion Energy =            198.8240847918271186
    One-Electron Energy =                -657.4700415073883732
    Two-Electron Energy =                 262.2447278701209825
    Total Energy =                       -196.4012288454403006
  Basis Set: (AUG-CC-PVTZ AUX)
    Blend: AUG-CC-PVTZ-RI
    Molecular point group: c1

    Geometry (in Angstrom), charge = 0, multiplicity = 1:

       Center              X                  Y                   Z               Mass
    ------------   -----------------  -----------------  -----------------  -----------------
         C            0.017414328909    -0.005971728809    -0.040521565316    12.000000000000
         C            1.028833728909     1.101695571191     0.259283934684    12.000000000000
         H            1.680537728909     1.232187571191    -0.611607065316     1.007825032230
         H            0.537306728909     2.059734571191     0.461184934684     1.007825032230
         H            1.659628728909     0.856382571191     1.120744934684     1.007825032230
         C           -0.865079271091     0.376169571191    -1.198925065316    12.000000000000
         H           -1.613771271091    -0.397919428809    -1.400014065316     1.007825032230
         H           -1.392465271091     1.320385571191    -1.024245065316     1.007825032230
         H           -0.249175271091     0.493315571191    -2.097337065316     1.007825032230
         C           -0.894219271091    -0.153642428809     1.241973934684    12.000000000000
         H           -1.643665271091    -0.937514428809     1.086845934684     1.007825032230
         H           -1.421903271091     0.780730571191     1.462623934684     1.007825032230
         H           -0.299578271091    -0.422813428809     2.121835934684     1.007825032230
         C            0.716556728909    -1.319447428809    -0.269965065316    12.000000000000
         H            1.341703728909    -1.610376428809     0.581357934684     1.007825032230
         H           -0.002514271091    -2.125371428809    -0.453320065316     1.007825032230
         H            1.362147728909    -1.234495428809    -1.150984065316     1.007825032230

  Basis Set: AUG-CC-PVTZ
    Blend: AUG-CC-PVTZ
  Basis Set: (AUG-CC-PVTZ AUX)
    Blend: AUG-CC-PVTZ-JKFIT
	 Reference Energy          =    -196.4012288454403006 [Eh]
	 Singles Energy            =      -0.0000000000000000 [Eh]
	 Same-Spin Energy          =      -0.2117305547639348 [Eh]
	 Opposite-Spin Energy      =      -0.7983230317829038 [Eh]
	 Correlation Energy        =      -1.0100535865468385 [Eh]
	 Total Energy              =    -197.4112824319871322 [Eh]

	 ================> DF-SCS-MP2 Energies <==================
	-----------------------------------------------------------
	 SCS Same-Spin Scale       =       0.3333333333333333 [-]
	 SCS Opposite-Spin Scale   =       1.2000000000000000 [-]
	 SCS Same-Spin Energy      =      -0.0705768515879782 [Eh]
	 SCS Opposite-Spin Energy  =      -0.9579876381394845 [Eh]
	 SCS Correlation Energy    =      -1.0285644897274628 [Eh]
	 SCS Total Energy          =    -197.4297933351677727 [Eh]
	-----------------------------------------------------------

  Dipole Moment: [D]
     X:     0.0106      Y:    -0.0030      Z:    -0.0234     Total:     0.0259

*** Psi4 exiting successfully. Buy a developer a beer!
