                               Psi4 1.3.2 release

  ==> Input File <==

--------------------------------------------------------------------------
#psi4
#
memory 32 gb

molecule  {
0 1
  C        0.0662956    -0.0174773    -0.1446919
  C        1.0323080     1.1005010     0.2511920
  H        1.6840120     1.2309930    -0.6196990
  H        0.5407810     2.0585400     0.4530930
  H        1.6631030     0.8551880     1.1126530
  C       -0.8616050     0.3749750    -1.2070170
  H       -1.6102970    -0.3991140    -1.4081060
  H       -1.3889910     1.3191910    -1.0323370
  H       -0.2457010     0.4921210    -2.1054290
  C       -0.8907450    -0.1548370     1.2338820
  H       -1.6401910    -0.9387090     1.0787540
  H       -1.4184290     0.7795360     1.4545320
  H       -0.2961040    -0.4240080     2.1137440
  C        0.7200310    -1.3206420    -0.2780570
  H        1.3451780    -1.6115710     0.5732660
  H        0.0009600    -2.1265660    -0.4614120
  H        1.3656220    -1.2356900    -1.1590760
units angstrom
no_reorient  #important for SAPT in psi4, default
symmetry c1  #important for SAPT in psi4, default
}

set PROPERTIES_ORIGIN ["COM"]
properties('MP2/aug-cc-pvtz', properties = ['dipole'])
--------------------------------------------------------------------------

    Molecular point group: c1
  Charge       = 0
  Multiplicity = 1
  Basis Set: AUG-CC-PVTZ
    Blend: AUG-CC-PVTZ
  Basis Set: (AUG-CC-PVTZ AUX)
    Blend: AUG-CC-PVTZ-JKFIT

    Orbital Energies [Eh]
    ---------------------

    Doubly Occupied:

       1A    -11.232111     2A    -11.209678     3A    -11.208473
       4A    -11.208447     5A    -11.206836     6A     -1.109295
       7A     -0.940854     8A     -0.932330     9A     -0.910731
      10A     -0.729810    11A     -0.616774    12A     -0.611569
      13A     -0.607919    14A     -0.552497    15A     -0.551746
      16A     -0.512086    17A     -0.508941    18A     -0.506951
      19A     -0.486004    20A     -0.462371    21A     -0.395320

  @DF-RHF Final Energy:  -196.38056704471086

   => Energetics <=

    Nuclear Repulsion Energy =            198.8000541809324773
    One-Electron Energy =                -657.3597590600812737
    Two-Electron Energy =                 262.1791378344379382
    Total Energy =                       -196.3805670447108582
  Basis Set: (AUG-CC-PVTZ AUX)
    Blend: AUG-CC-PVTZ-RI
    Molecular point group: c1

    Geometry (in Angstrom), charge = 0, multiplicity = 1:

       Center              X                  Y                   Z               Mass
    ------------   -----------------  -----------------  -----------------  -----------------
         C            0.055263352477    -0.014566467110    -0.120607755243    12.000000000000
         C            1.021275752477     1.103411832890     0.275276144757    12.000000000000
         H            1.672979752477     1.233903832890    -0.595614855243     1.007825032230
         H            0.529748752477     2.061450832890     0.477177144757     1.007825032230
         H            1.652070752477     0.858098832890     1.136737144757     1.007825032230
         C           -0.872637247523     0.377885832890    -1.182932855243    12.000000000000
         H           -1.621329247523    -0.396203167110    -1.384021855243     1.007825032230
         H           -1.400023247523     1.322101832890    -1.008252855243     1.007825032230
         H           -0.256733247523     0.495031832890    -2.081344855243     1.007825032230
         C           -0.901777247523    -0.151926167110     1.257966144757    12.000000000000
         H           -1.651223247523    -0.935798167110     1.102838144757     1.007825032230
         H           -1.429461247523     0.782446832890     1.478616144757     1.007825032230
         H           -0.307136247523    -0.421097167110     2.137828144757     1.007825032230
         C            0.708998752477    -1.317731167110    -0.253972855243    12.000000000000
         H            1.334145752477    -1.608660167110     0.597350144757     1.007825032230
         H           -0.010072247523    -2.123655167110    -0.437327855243     1.007825032230
         H            1.354589752477    -1.232779167110    -1.134991855243     1.007825032230

  Basis Set: AUG-CC-PVTZ
    Blend: AUG-CC-PVTZ
  Basis Set: (AUG-CC-PVTZ AUX)
    Blend: AUG-CC-PVTZ-JKFIT
	 Reference Energy          =    -196.3805670447108582 [Eh]
	 Singles Energy            =      -0.0000000000000000 [Eh]
	 Same-Spin Energy          =      -0.2126399239961155 [Eh]
	 Opposite-Spin Energy      =      -0.8000151442665091 [Eh]
	 Correlation Energy        =      -1.0126550682626245 [Eh]
	 Total Energy              =    -197.3932221129734899 [Eh]

	 ================> DF-SCS-MP2 Energies <==================
	-----------------------------------------------------------
	 SCS Same-Spin Scale       =       0.3333333333333333 [-]
	 SCS Opposite-Spin Scale   =       1.2000000000000000 [-]
	 SCS Same-Spin Energy      =      -0.0708799746653718 [Eh]
	 SCS Opposite-Spin Energy  =      -0.9600181731198109 [Eh]
	 SCS Correlation Energy    =      -1.0308981477851826 [Eh]
	 SCS Total Energy          =    -197.4114651924960526 [Eh]
	-----------------------------------------------------------

  Dipole Moment: [D]
     X:     0.0423      Y:    -0.0055      Z:    -0.0820     Total:     0.0924

*** Psi4 exiting successfully. Buy a developer a beer!
