                               Psi4 1.3.2 release

  ==> Input File <==

--------------------------------------------------------------------------
#psi4
#
memory 32 gb

molecule  {
0 1
  O        1.5429421    -0.7499940     0.0001472
  O        0.6145710     1.3078690     0.0000680
  C       -0.8109530    -0.6383160    -0.0001140
  C        0.4754770     0.0955910    -0.0004470
  C       -1.9669030     0.0367350     0.0001300
  H       -0.7664070    -1.7224440    -0.0001000
  H       -2.9239270    -0.4730490     0.0003210
  H       -1.9656330     1.1220070     0.0001100
  H        2.3294960    -0.2055650     0.0004620
units angstrom
no_reorient  #important for SAPT in psi4, default
symmetry c1  #important for SAPT in psi4, default
}

set PROPERTIES_ORIGIN ["COM"]
properties('MP2/aug-cc-pvtz', properties = ['dipole'])
--------------------------------------------------------------------------

    Molecular point group: c1
  Charge       = 0
  Multiplicity = 1
  Basis Set: AUG-CC-PVTZ
    Blend: AUG-CC-PVTZ
  Basis Set: (AUG-CC-PVTZ AUX)
    Blend: AUG-CC-PVTZ-JKFIT

    Orbital Energies [Eh]
    ---------------------

    Doubly Occupied:

       1A    -20.615116     2A    -20.548962     3A    -11.394835
       4A    -11.269441     5A    -11.259171     6A     -1.462903
       7A     -1.356990     8A     -1.083663     9A     -0.909508
      10A     -0.776071    11A     -0.716716    12A     -0.699080
      13A     -0.630574    14A     -0.623426    15A     -0.601349
      16A     -0.551522    17A     -0.490236    18A     -0.459129
      19A     -0.401010

  @DF-RHF Final Energy:  -265.75927166526526

   => Energetics <=

    Nuclear Repulsion Energy =            161.8201387927043129
    One-Electron Energy =                -683.4594155321992730
    Two-Electron Energy =                 255.8800050742297287
    Total Energy =                       -265.7592716652652598
  Basis Set: (AUG-CC-PVTZ AUX)
    Blend: AUG-CC-PVTZ-RI
    Molecular point group: c1

    Geometry (in Angstrom), charge = 0, multiplicity = 1:

       Center              X                  Y                   Z               Mass
    ------------   -----------------  -----------------  -----------------  -----------------
         O            1.493953850117    -0.771685181349     0.000160122446    15.994914619570
         O            0.565582750117     1.286177818651     0.000080922446    15.994914619570
         C           -0.859941249883    -0.660007181349    -0.000101077554    12.000000000000
         C            0.426488750117     0.073899818651    -0.000434077554    12.000000000000
         C           -2.015891249883     0.015043818651     0.000142922446    12.000000000000
         H           -0.815395249883    -1.744135181349    -0.000087077554     1.007825032230
         H           -2.972915249883    -0.494740181349     0.000333922446     1.007825032230
         H           -2.014621249883     1.100315818651     0.000122922446     1.007825032230
         H            2.280507750117    -0.227256181349     0.000474922446     1.007825032230

  Basis Set: AUG-CC-PVTZ
    Blend: AUG-CC-PVTZ
  Basis Set: (AUG-CC-PVTZ AUX)
    Blend: AUG-CC-PVTZ-JKFIT
	 Reference Energy          =    -265.7592716652652598 [Eh]
	 Singles Energy            =      -0.0000000000000000 [Eh]
	 Same-Spin Energy          =      -0.2541269485323177 [Eh]
	 Opposite-Spin Energy      =      -0.7905685338421220 [Eh]
	 Correlation Energy        =      -1.0446954823744397 [Eh]
	 Total Energy              =    -266.8039671476396961 [Eh]

	 ================> DF-SCS-MP2 Energies <==================
	-----------------------------------------------------------
	 SCS Same-Spin Scale       =       0.3333333333333333 [-]
	 SCS Opposite-Spin Scale   =       1.2000000000000000 [-]
	 SCS Same-Spin Energy      =      -0.0847089828441059 [Eh]
	 SCS Opposite-Spin Energy  =      -0.9486822406105464 [Eh]
	 SCS Correlation Energy    =      -1.0333912234546523 [Eh]
	 SCS Total Energy          =    -266.7926628887199172 [Eh]
	-----------------------------------------------------------

  Dipole Moment: [D]
     X:    -0.6398      Y:    -1.3946      Z:    -0.0001     Total:     1.5344

*** Psi4 exiting successfully. Buy a developer a beer!
