                               Psi4 1.3.2 release

  ==> Input File <==

--------------------------------------------------------------------------
#psi4
#
memory 32 gb

molecule  {
0 1
  O        1.5280220    -0.7684950     0.0001570
  O        0.6145710     1.3078690     0.0000680
  C       -0.8109530    -0.6383160    -0.0001140
  C        0.4880895     0.0730279    -0.0004490
  C       -1.9669030     0.0367350     0.0001300
  H       -0.7664070    -1.7224440    -0.0001000
  H       -2.9239270    -0.4730490     0.0003210
  H       -1.9656330     1.1220070     0.0001100
  H        2.3294960    -0.2055650     0.0004620
units angstrom
no_reorient  #important for SAPT in psi4, default
symmetry c1  #important for SAPT in psi4, default
}

set PROPERTIES_ORIGIN ["COM"]
properties('MP2/aug-cc-pvtz', properties = ['dipole'])
--------------------------------------------------------------------------

    Molecular point group: c1
  Charge       = 0
  Multiplicity = 1
  Basis Set: AUG-CC-PVTZ
    Blend: AUG-CC-PVTZ
  Basis Set: (AUG-CC-PVTZ AUX)
    Blend: AUG-CC-PVTZ-JKFIT

    Orbital Energies [Eh]
    ---------------------

    Doubly Occupied:

       1A    -20.625265     2A    -20.545054     3A    -11.395858
       4A    -11.268586     5A    -11.257780     6A     -1.468109
       7A     -1.347331     8A     -1.081734     9A     -0.910979
      10A     -0.777936    11A     -0.714192    12A     -0.701273
      13A     -0.635377    14A     -0.622555    15A     -0.599012
      16A     -0.547496    17A     -0.485671    18A     -0.456592
      19A     -0.398990

  @DF-RHF Final Energy:  -265.75615032115985

   => Energetics <=

    Nuclear Repulsion Energy =            161.7019991746160485
    One-Electron Energy =                -683.2367154142691561
    Two-Electron Energy =                 255.7785659184932570
    Total Energy =                       -265.7561503211598506
  Basis Set: (AUG-CC-PVTZ AUX)
    Blend: AUG-CC-PVTZ-RI
    Molecular point group: c1

    Geometry (in Angstrom), charge = 0, multiplicity = 1:

       Center              X                  Y                   Z               Mass
    ------------   -----------------  -----------------  -----------------  -----------------
         O            1.480245835048    -0.782317947119     0.000168079234    15.994914619570
         O            0.566794835048     1.294046052881     0.000079079234    15.994914619570
         C           -0.858729164952    -0.652138947119    -0.000102920766    12.000000000000
         C            0.440313335048     0.059204952881    -0.000437920766    12.000000000000
         C           -2.014679164952     0.022912052881     0.000141079234    12.000000000000
         H           -0.814183164952    -1.736266947119    -0.000088920766     1.007825032230
         H           -2.971703164952    -0.486871947119     0.000332079234     1.007825032230
         H           -2.013409164952     1.108184052881     0.000121079234     1.007825032230
         H            2.281719835048    -0.219387947119     0.000473079234     1.007825032230

  Basis Set: AUG-CC-PVTZ
    Blend: AUG-CC-PVTZ
  Basis Set: (AUG-CC-PVTZ AUX)
    Blend: AUG-CC-PVTZ-JKFIT
	 Reference Energy          =    -265.7561503211598506 [Eh]
	 Singles Energy            =      -0.0000000000000000 [Eh]
	 Same-Spin Energy          =      -0.2548056469023817 [Eh]
	 Opposite-Spin Energy      =      -0.7918700562116615 [Eh]
	 Correlation Energy        =      -1.0466757031140432 [Eh]
	 Total Energy              =    -266.8028260242738838 [Eh]

	 ================> DF-SCS-MP2 Energies <==================
	-----------------------------------------------------------
	 SCS Same-Spin Scale       =       0.3333333333333333 [-]
	 SCS Opposite-Spin Scale   =       1.2000000000000000 [-]
	 SCS Same-Spin Energy      =      -0.0849352156341272 [Eh]
	 SCS Opposite-Spin Energy  =      -0.9502440674539938 [Eh]
	 SCS Correlation Energy    =      -1.0351792830881210 [Eh]
	 SCS Total Energy          =    -266.7913296042479487 [Eh]
	-----------------------------------------------------------

  Dipole Moment: [D]
     X:    -0.4642      Y:    -1.5496      Z:    -0.0001     Total:     1.6176

*** Psi4 exiting successfully. Buy a developer a beer!
