                               Psi4 1.3.2 release

  ==> Input File <==

--------------------------------------------------------------------------
#psi4
#
memory 32 gb

molecule  {
0 1
  O        1.5127813    -0.7867328     0.0001382
  O        0.6145710     1.3078690     0.0000680
  C       -0.8109530    -0.6383160    -0.0001140
  C        0.4754770     0.0955910    -0.0004470
  C       -1.9669030     0.0367350     0.0001300
  H       -0.7664070    -1.7224440    -0.0001000
  H       -2.9239270    -0.4730490     0.0003210
  H       -1.9656330     1.1220070     0.0001100
  H        2.3294960    -0.2055650     0.0004620
units angstrom
no_reorient  #important for SAPT in psi4, default
symmetry c1  #important for SAPT in psi4, default
}

set PROPERTIES_ORIGIN ["COM"]
properties('MP2/aug-cc-pvtz', properties = ['dipole'])
--------------------------------------------------------------------------

    Molecular point group: c1
  Charge       = 0
  Multiplicity = 1
  Basis Set: AUG-CC-PVTZ
    Blend: AUG-CC-PVTZ
  Basis Set: (AUG-CC-PVTZ AUX)
    Blend: AUG-CC-PVTZ-JKFIT

    Orbital Energies [Eh]
    ---------------------

    Doubly Occupied:

       1A    -20.621384     2A    -20.551071     3A    -11.394751
       4A    -11.267707     5A    -11.256915     6A     -1.458511
       7A     -1.356853     8A     -1.081762     9A     -0.903851
      10A     -0.767962    11A     -0.713714    12A     -0.699685
      13A     -0.630917    14A     -0.623720    15A     -0.597655
      16A     -0.551256    17A     -0.491281    18A     -0.459761
      19A     -0.399939

  @DF-RHF Final Energy:  -265.75560976284083

   => Energetics <=

    Nuclear Repulsion Energy =            161.6853355749108516
    One-Electron Energy =                -683.2244996917493154
    Two-Electron Energy =                 255.7835543539976300
    Total Energy =                       -265.7556097628408907
  Basis Set: (AUG-CC-PVTZ AUX)
    Blend: AUG-CC-PVTZ-RI
    Molecular point group: c1

    Geometry (in Angstrom), charge = 0, multiplicity = 1:

       Center              X                  Y                   Z               Mass
    ------------   -----------------  -----------------  -----------------  -----------------
         O            1.470491354144    -0.800264792867     0.000153121223    15.994914619570
         O            0.572281054144     1.294337007133     0.000082921223    15.994914619570
         C           -0.853242945856    -0.651847992867    -0.000099078777    12.000000000000
         C            0.433187054144     0.082059007133    -0.000432078777    12.000000000000
         C           -2.009192945856     0.023203007133     0.000144921223    12.000000000000
         H           -0.808696945856    -1.735975992867    -0.000085078777     1.007825032230
         H           -2.966216945856    -0.486580992867     0.000335921223     1.007825032230
         H           -2.007922945856     1.108475007133     0.000124921223     1.007825032230
         H            2.287206054144    -0.219096992867     0.000476921223     1.007825032230

  Basis Set: AUG-CC-PVTZ
    Blend: AUG-CC-PVTZ
  Basis Set: (AUG-CC-PVTZ AUX)
    Blend: AUG-CC-PVTZ-JKFIT
	 Reference Energy          =    -265.7556097628408338 [Eh]
	 Singles Energy            =      -0.0000000000000000 [Eh]
	 Same-Spin Energy          =      -0.2550170351844156 [Eh]
	 Opposite-Spin Energy      =      -0.7924739515430801 [Eh]
	 Correlation Energy        =      -1.0474909867274957 [Eh]
	 Total Energy              =    -266.8031007495683298 [Eh]

	 ================> DF-SCS-MP2 Energies <==================
	-----------------------------------------------------------
	 SCS Same-Spin Scale       =       0.3333333333333333 [-]
	 SCS Opposite-Spin Scale   =       1.2000000000000000 [-]
	 SCS Same-Spin Energy      =      -0.0850056783948052 [Eh]
	 SCS Opposite-Spin Energy  =      -0.9509687418516961 [Eh]
	 SCS Correlation Energy    =      -1.0359744202465013 [Eh]
	 SCS Total Energy          =    -266.7915841830873092 [Eh]
	-----------------------------------------------------------

  Dipole Moment: [D]
     X:    -0.5423      Y:    -1.3606      Z:    -0.0001     Total:     1.4646

*** Psi4 exiting successfully. Buy a developer a beer!
