                               Psi4 1.4a3.dev225

  ==> Input File <==

--------------------------------------------------------------------------
#psi4
#
memory 32 gb

molecule  {
0 1
  O        1.5281450    -0.7681140     0.0000130
  O        0.6140580     1.3077470    -0.0000100
  C       -0.8107600    -0.6385920    -0.0000170
  C        0.4755680     0.0951910    -0.0000050
  C       -1.9665160     0.0368920     0.0000130
  H       -0.7670810    -1.7227100    -0.0000460
  H       -2.9234270    -0.4732330     0.0000090
  H       -1.9658970     1.1221510     0.0000420
  H        2.3126739    -0.2157331     0.0000208
units angstrom
no_reorient  #important for SAPT in psi4, default
symmetry c1  #important for SAPT in psi4, default
}

set PROPERTIES_ORIGIN ["COM"]
properties('MP2/aug-cc-pvtz', properties = ['dipole'])
--------------------------------------------------------------------------

    Molecular point group: c1
  Charge       = 0
  Multiplicity = 1
  Basis Set: AUG-CC-PVTZ
    Blend: AUG-CC-PVTZ
  Basis Set: (AUG-CC-PVTZ AUX)
    Blend: AUG-CC-PVTZ-JKFIT

    Orbital Energies [Eh]
    ---------------------

    Doubly Occupied:

       1A    -20.617119     2A    -20.550302     3A    -11.395109
       4A    -11.268726     5A    -11.258095     6A     -1.463862
       7A     -1.358694     8A     -1.083082     9A     -0.908950
      10A     -0.773962    11A     -0.716726    12A     -0.700578
      13A     -0.631578    14A     -0.623714    15A     -0.601195
      16A     -0.551781    17A     -0.491364    18A     -0.459830
      19A     -0.400583

  @DF-RHF Final Energy:  -265.75893011178596

   => Energetics <=

    Nuclear Repulsion Energy =            161.8771780617510387
    One-Electron Energy =                -683.5617159618378764
    Two-Electron Energy =                 255.9256077883009084
    Total Energy =                       -265.7589301117859577
  Basis Set: (AUG-CC-PVTZ AUX)
    Blend: AUG-CC-PVTZ-RI
    Molecular point group: c1

    Geometry (in Angstrom), charge = 0, multiplicity = 1:

       Center              X                  Y                   Z               Mass
    ------------   -----------------  -----------------  -----------------  -----------------
         O            1.482686643433    -0.785520837361     0.000013472269    15.994914619570
         O            0.568599643433     1.290340162639    -0.000009527731    15.994914619570
         C           -0.856218356567    -0.655998837361    -0.000016527731    12.000000000000
         C            0.430109643433     0.077784162639    -0.000004527731    12.000000000000
         C           -2.011974356567     0.019485162639     0.000013472269    12.000000000000
         H           -0.812539356567    -1.740116837361    -0.000045527731     1.007825032230
         H           -2.968885356567    -0.490639837361     0.000009472269     1.007825032230
         H           -2.011355356567     1.104744162639     0.000042472269     1.007825032230
         H            2.267215543433    -0.233139937361     0.000021272269     1.007825032230

  Basis Set: AUG-CC-PVTZ
    Blend: AUG-CC-PVTZ
  Basis Set: (AUG-CC-PVTZ AUX)
    Blend: AUG-CC-PVTZ-JKFIT
	 Reference Energy          =    -265.7589301117859577 [Eh]
	 Singles Energy            =      -0.0000000000000000 [Eh]
	 Same-Spin Energy          =      -0.2543115333340129 [Eh]
	 Opposite-Spin Energy      =      -0.7909028776139222 [Eh]
	 Correlation Energy        =      -1.0452144109479351 [Eh]
	 Total Energy              =    -266.8041445227339068 [Eh]

	 ================> DF-SCS-MP2 Energies <==================
	-----------------------------------------------------------
	 SCS Same-Spin Scale       =       0.3333333333333333 [-]
	 SCS Opposite-Spin Scale   =       1.2000000000000000 [-]
	 SCS Same-Spin Energy      =      -0.0847705111113376 [Eh]
	 SCS Opposite-Spin Energy  =      -0.9490834531367066 [Eh]
	 SCS Correlation Energy    =      -1.0338539642480442 [Eh]
	 SCS Total Energy          =    -266.7927840760340246 [Eh]
	-----------------------------------------------------------

  Dipole Moment: [D]
     X:    -0.6146      Y:    -1.3863      Z:     0.0000     Total:     1.5165

*** Psi4 exiting successfully. Buy a developer a beer!
