                               Psi4 1.3.2 release

  ==> Input File <==

--------------------------------------------------------------------------
#psi4
#
memory 32 gb

molecule  {
0 1
  O        1.5280220    -0.7684950     0.0001570
  O        0.6987964     1.2952133     0.0000167
  C       -0.8109530    -0.6383160    -0.0001140
  C        0.4754770     0.0955910    -0.0004470
  C       -1.9669030     0.0367350     0.0001300
  H       -0.7664070    -1.7224440    -0.0001000
  H       -2.9239270    -0.4730490     0.0003210
  H       -1.9656330     1.1220070     0.0001100
  H        2.3294960    -0.2055650     0.0004620
units angstrom
no_reorient  #important for SAPT in psi4, default
symmetry c1  #important for SAPT in psi4, default
}

set PROPERTIES_ORIGIN ["COM"]
properties('MP2/aug-cc-pvtz', properties = ['dipole'])
--------------------------------------------------------------------------

    Molecular point group: c1
  Charge       = 0
  Multiplicity = 1
  Basis Set: AUG-CC-PVTZ
    Blend: AUG-CC-PVTZ
  Basis Set: (AUG-CC-PVTZ AUX)
    Blend: AUG-CC-PVTZ-JKFIT

    Orbital Energies [Eh]
    ---------------------

    Doubly Occupied:

       1A    -20.611167     2A    -20.548620     3A    -11.394239
       4A    -11.272430     5A    -11.262492     6A     -1.460403
       7A     -1.350145     8A     -1.086883     9A     -0.907499
      10A     -0.771764    11A     -0.715044    12A     -0.697722
      13A     -0.628490    14A     -0.624079    15A     -0.600399
      16A     -0.554584    17A     -0.486379    18A     -0.458555
      19A     -0.404318

  @DF-RHF Final Energy:  -265.75714992881757

   => Energetics <=

    Nuclear Repulsion Energy =            161.6411689663427751
    One-Electron Energy =                -683.1262150248829812
    Two-Electron Energy =                 255.7278961297226374
    Total Energy =                       -265.7571499288175687
  Basis Set: (AUG-CC-PVTZ AUX)
    Blend: AUG-CC-PVTZ-RI
    Molecular point group: c1

    Geometry (in Angstrom), charge = 0, multiplicity = 1:

       Center              X                  Y                   Z               Mass
    ------------   -----------------  -----------------  -----------------  -----------------
         O            1.463641984313    -0.783266701459     0.000179139032    15.994914619570
         O            0.634416384313     1.280441598541     0.000038839032    15.994914619570
         C           -0.875333015687    -0.653087701459    -0.000091860968    12.000000000000
         C            0.411096984313     0.080819298541    -0.000424860968    12.000000000000
         C           -2.031283015687     0.021963298541     0.000152139032    12.000000000000
         H           -0.830787015687    -1.737215701459    -0.000077860968     1.007825032230
         H           -2.988307015687    -0.487820701459     0.000343139032     1.007825032230
         H           -2.030013015687     1.107235298541     0.000132139032     1.007825032230
         H            2.265115984313    -0.220336701459     0.000484139032     1.007825032230

  Basis Set: AUG-CC-PVTZ
    Blend: AUG-CC-PVTZ
  Basis Set: (AUG-CC-PVTZ AUX)
    Blend: AUG-CC-PVTZ-JKFIT
	 Reference Energy          =    -265.7571499288175687 [Eh]
	 Singles Energy            =      -0.0000000000000000 [Eh]
	 Same-Spin Energy          =      -0.2544166177921595 [Eh]
	 Opposite-Spin Energy      =      -0.7911439697254774 [Eh]
	 Correlation Energy        =      -1.0455605875176368 [Eh]
	 Total Energy              =    -266.8027105163351962 [Eh]

	 ================> DF-SCS-MP2 Energies <==================
	-----------------------------------------------------------
	 SCS Same-Spin Scale       =       0.3333333333333333 [-]
	 SCS Opposite-Spin Scale   =       1.2000000000000000 [-]
	 SCS Same-Spin Energy      =      -0.0848055392640532 [Eh]
	 SCS Opposite-Spin Energy  =      -0.9493727636705729 [Eh]
	 SCS Correlation Energy    =      -1.0341783029346261 [Eh]
	 SCS Total Energy          =    -266.7913282317521748 [Eh]
	-----------------------------------------------------------

  Dipole Moment: [D]
     X:    -0.8749      Y:    -1.3805      Z:    -0.0000     Total:     1.6344

*** Psi4 exiting successfully. Buy a developer a beer!
