                               Psi4 1.3.2 release

  ==> Input File <==

--------------------------------------------------------------------------
#psi4
#
memory 32 gb

molecule  {
0 1
  O        1.4319345    -0.8737824     0.0000414
  O        0.6145710     1.3078690     0.0000680
  C       -0.8109530    -0.6383160    -0.0001140
  C        0.4754770     0.0955910    -0.0004470
  C       -1.9669030     0.0367350     0.0001300
  H       -0.7664070    -1.7224440    -0.0001000
  H       -2.9239270    -0.4730490     0.0003210
  H       -1.9656330     1.1220070     0.0001100
  H        2.3294960    -0.2055650     0.0004620
units angstrom
no_reorient  #important for SAPT in psi4, default
symmetry c1  #important for SAPT in psi4, default
}

set PROPERTIES_ORIGIN ["COM"]
properties('MP2/aug-cc-pvtz', properties = ['dipole'])
--------------------------------------------------------------------------

    Molecular point group: c1
  Charge       = 0
  Multiplicity = 1
  Basis Set: AUG-CC-PVTZ
    Blend: AUG-CC-PVTZ
  Basis Set: (AUG-CC-PVTZ AUX)
    Blend: AUG-CC-PVTZ-JKFIT

    Orbital Energies [Eh]
    ---------------------

    Doubly Occupied:

       1A    -20.634618     2A    -20.556589     3A    -11.395576
       4A    -11.263402     5A    -11.251554     6A     -1.450698
       7A     -1.358038     8A     -1.077072     9A     -0.892727
      10A     -0.756211    11A     -0.703999    12A     -0.698666
      13A     -0.632178    14A     -0.626506    15A     -0.582398
      16A     -0.550155    17A     -0.494161    18A     -0.460356
      19A     -0.397164

  @DF-RHF Final Energy:  -265.72986863528394

   => Energetics <=

    Nuclear Repulsion Energy =            161.4933196876320949
    One-Electron Energy =                -682.8822429352334211
    Two-Electron Energy =                 255.6590546123173340
    Total Energy =                       -265.7298686352839354
  Basis Set: (AUG-CC-PVTZ AUX)
    Blend: AUG-CC-PVTZ-RI
    Molecular point group: c1

    Geometry (in Angstrom), charge = 0, multiplicity = 1:

       Center              X                  Y                   Z               Mass
    ------------   -----------------  -----------------  -----------------  -----------------
         O            1.407599530338    -0.867981859041     0.000077819189    15.994914619570
         O            0.590236030338     1.313669540959     0.000104419189    15.994914619570
         C           -0.835287969662    -0.632515459041    -0.000077580811    12.000000000000
         C            0.451142030338     0.101391540959    -0.000410580811    12.000000000000
         C           -1.991237969662     0.042535540959     0.000166419189    12.000000000000
         H           -0.790741969662    -1.716643459041    -0.000063580811     1.007825032230
         H           -2.948261969662    -0.467248459041     0.000357419189     1.007825032230
         H           -1.989967969662     1.127807540959     0.000146419189     1.007825032230
         H            2.305161030338    -0.199764459041     0.000498419189     1.007825032230

  Basis Set: AUG-CC-PVTZ
    Blend: AUG-CC-PVTZ
  Basis Set: (AUG-CC-PVTZ AUX)
    Blend: AUG-CC-PVTZ-JKFIT
	 Reference Energy          =    -265.7298686352839354 [Eh]
	 Singles Energy            =      -0.0000000000000000 [Eh]
	 Same-Spin Energy          =      -0.2575494862477384 [Eh]
	 Opposite-Spin Energy      =      -0.7981141552914723 [Eh]
	 Correlation Energy        =      -1.0556636415392107 [Eh]
	 Total Energy              =    -266.7855322768231190 [Eh]

	 ================> DF-SCS-MP2 Energies <==================
	-----------------------------------------------------------
	 SCS Same-Spin Scale       =       0.3333333333333333 [-]
	 SCS Opposite-Spin Scale   =       1.2000000000000000 [-]
	 SCS Same-Spin Energy      =      -0.0858498287492461 [Eh]
	 SCS Opposite-Spin Energy  =      -0.9577369863497668 [Eh]
	 SCS Correlation Energy    =      -1.0435868150990129 [Eh]
	 SCS Total Energy          =    -266.7734554503829258 [Eh]
	-----------------------------------------------------------

  Dipole Moment: [D]
     X:    -0.3242      Y:    -1.2809      Z:     0.0001     Total:     1.3213

*** Psi4 exiting successfully. Buy a developer a beer!
