                               Psi4 1.3.2 release

  ==> Input File <==

--------------------------------------------------------------------------
#psi4
#
memory 32 gb

molecule  {
0 1
  O        1.5280220    -0.7684950     0.0001570
  O        0.6145710     1.3078690     0.0000680
  C       -0.8109530    -0.6383160    -0.0001140
  C        0.4459620     0.0583313    -0.0004561
  C       -1.9669030     0.0367350     0.0001300
  H       -0.7664070    -1.7224440    -0.0001000
  H       -2.9239270    -0.4730490     0.0003210
  H       -1.9656330     1.1220070     0.0001100
  H        2.3294960    -0.2055650     0.0004620
units angstrom
no_reorient  #important for SAPT in psi4, default
symmetry c1  #important for SAPT in psi4, default
}

set PROPERTIES_ORIGIN ["COM"]
properties('MP2/aug-cc-pvtz', properties = ['dipole'])
--------------------------------------------------------------------------

    Molecular point group: c1
  Charge       = 0
  Multiplicity = 1
  Basis Set: AUG-CC-PVTZ
    Blend: AUG-CC-PVTZ
  Basis Set: (AUG-CC-PVTZ AUX)
    Blend: AUG-CC-PVTZ-JKFIT

    Orbital Energies [Eh]
    ---------------------

    Doubly Occupied:

       1A    -20.617840     2A    -20.542575     3A    -11.396472
       4A    -11.276232     5A    -11.258717     6A     -1.452375
       7A     -1.332227     8A     -1.093236     9A     -0.917840
      10A     -0.775612    11A     -0.718261    12A     -0.693135
      13A     -0.624987    14A     -0.621448    15A     -0.599203
      16A     -0.551067    17A     -0.480724    18A     -0.454903
      19A     -0.402009

  @DF-RHF Final Energy:  -265.75062431308191

   => Energetics <=

    Nuclear Repulsion Energy =            161.5946332392676368
    One-Electron Energy =                -683.0727880059107520
    Two-Electron Energy =                 255.7275304535612008
    Total Energy =                       -265.7506243130819144
  Basis Set: (AUG-CC-PVTZ AUX)
    Blend: AUG-CC-PVTZ-RI
    Molecular point group: c1

    Geometry (in Angstrom), charge = 0, multiplicity = 1:

       Center              X                  Y                   Z               Mass
    ------------   -----------------  -----------------  -----------------  -----------------
         O            1.487265025173    -0.779869232394     0.000169262220    15.994914619570
         O            0.573814025173     1.296494767606     0.000080262220    15.994914619570
         C           -0.851709974827    -0.649690232394    -0.000101737780    12.000000000000
         C            0.405205025173     0.046957067606    -0.000443837780    12.000000000000
         C           -2.007659974827     0.025360767606     0.000142262220    12.000000000000
         H           -0.807163974827    -1.733818232394    -0.000087737780     1.007825032230
         H           -2.964683974827    -0.484423232394     0.000333262220     1.007825032230
         H           -2.006389974827     1.110632767606     0.000122262220     1.007825032230
         H            2.288739025173    -0.216939232394     0.000474262220     1.007825032230

  Basis Set: AUG-CC-PVTZ
    Blend: AUG-CC-PVTZ
  Basis Set: (AUG-CC-PVTZ AUX)
    Blend: AUG-CC-PVTZ-JKFIT
	 Reference Energy          =    -265.7506243130819144 [Eh]
	 Singles Energy            =      -0.0000000000000000 [Eh]
	 Same-Spin Energy          =      -0.2556354206473679 [Eh]
	 Opposite-Spin Energy      =      -0.7934556708037555 [Eh]
	 Correlation Energy        =      -1.0490910914511233 [Eh]
	 Total Energy              =    -266.7997154045330603 [Eh]

	 ================> DF-SCS-MP2 Energies <==================
	-----------------------------------------------------------
	 SCS Same-Spin Scale       =       0.3333333333333333 [-]
	 SCS Opposite-Spin Scale   =       1.2000000000000000 [-]
	 SCS Same-Spin Energy      =      -0.0852118068824560 [Eh]
	 SCS Opposite-Spin Energy  =      -0.9521468049645065 [Eh]
	 SCS Correlation Energy    =      -1.0373586118469624 [Eh]
	 SCS Total Energy          =    -266.7879829249288832 [Eh]
	-----------------------------------------------------------

  Dipole Moment: [D]
     X:    -0.8094      Y:    -1.5762      Z:    -0.0001     Total:     1.7719

*** Psi4 exiting successfully. Buy a developer a beer!
