                               Psi4 1.4a3.dev225

  ==> Input File <==

--------------------------------------------------------------------------
#psi4
#
memory 32 gb

molecule  {
0 1
  O        1.5281450    -0.7681140     0.0000130
  O        0.6140580     1.3077470    -0.0000100
  C       -0.8107600    -0.6385920    -0.0000170
  C        0.4369081     0.1268992    -0.0000057
  C       -1.9665160     0.0368920     0.0000130
  H       -0.7670810    -1.7227100    -0.0000460
  H       -2.9234270    -0.4732330     0.0000090
  H       -1.9658970     1.1221510     0.0000420
  H        2.3290270    -0.2042190     0.0000210
units angstrom
no_reorient  #important for SAPT in psi4, default
symmetry c1  #important for SAPT in psi4, default
}

set PROPERTIES_ORIGIN ["COM"]
properties('MP2/aug-cc-pvtz', properties = ['dipole'])
--------------------------------------------------------------------------

    Molecular point group: c1
  Charge       = 0
  Multiplicity = 1
  Basis Set: AUG-CC-PVTZ
    Blend: AUG-CC-PVTZ
  Basis Set: (AUG-CC-PVTZ AUX)
    Blend: AUG-CC-PVTZ-JKFIT

    Orbital Energies [Eh]
    ---------------------

    Doubly Occupied:

       1A    -20.603443     2A    -20.557097     3A    -11.393358
       4A    -11.271709     5A    -11.259386     6A     -1.452612
       7A     -1.357466     8A     -1.089232     9A     -0.903355
      10A     -0.762538    11A     -0.718033    12A     -0.695949
      13A     -0.623425    14A     -0.622706    15A     -0.599798
      16A     -0.558498    17A     -0.494043    18A     -0.461916
      19A     -0.404523

  @DF-RHF Final Energy:  -265.75560681709197

   => Energetics <=

    Nuclear Repulsion Energy =            161.8214196779576071
    One-Electron Energy =                -683.4958819442390450
    Two-Electron Energy =                 255.9188554491894934
    Total Energy =                       -265.7556068170919730
  Basis Set: (AUG-CC-PVTZ AUX)
    Blend: AUG-CC-PVTZ-RI
    Molecular point group: c1

    Geometry (in Angstrom), charge = 0, multiplicity = 1:

       Center              X                  Y                   Z               Mass
    ------------   -----------------  -----------------  -----------------  -----------------
         O            1.488899233272    -0.790965109085     0.000013586103    15.994914619570
         O            0.574812233272     1.284895890915    -0.000009413897    15.994914619570
         C           -0.850005766728    -0.661443109085    -0.000016413897    12.000000000000
         C            0.397662333272     0.104048090915    -0.000005113897    12.000000000000
         C           -2.005761766728     0.014040890915     0.000013586103    12.000000000000
         H           -0.806326766728    -1.745561109085    -0.000045413897     1.007825032230
         H           -2.962672766728    -0.496084109085     0.000009586103     1.007825032230
         H           -2.005142766728     1.099299890915     0.000042586103     1.007825032230
         H            2.289781233272    -0.227070109085     0.000021586103     1.007825032230

  Basis Set: AUG-CC-PVTZ
    Blend: AUG-CC-PVTZ
  Basis Set: (AUG-CC-PVTZ AUX)
    Blend: AUG-CC-PVTZ-JKFIT
	 Reference Energy          =    -265.7556068170919730 [Eh]
	 Singles Energy            =      -0.0000000000000000 [Eh]
	 Same-Spin Energy          =      -0.2545530411071379 [Eh]
	 Opposite-Spin Energy      =      -0.7916087953778848 [Eh]
	 Correlation Energy        =      -1.0461618364850227 [Eh]
	 Total Energy              =    -266.8017686535769712 [Eh]

	 ================> DF-SCS-MP2 Energies <==================
	-----------------------------------------------------------
	 SCS Same-Spin Scale       =       0.3333333333333333 [-]
	 SCS Opposite-Spin Scale   =       1.2000000000000000 [-]
	 SCS Same-Spin Energy      =      -0.0848510137023793 [Eh]
	 SCS Opposite-Spin Energy  =      -0.9499305544534616 [Eh]
	 SCS Correlation Energy    =      -1.0347815681558410 [Eh]
	 SCS Total Energy          =    -266.7903883852478089 [Eh]
	-----------------------------------------------------------

  Dipole Moment: [D]
     X:    -0.9542      Y:    -1.1019      Z:     0.0000     Total:     1.4576

*** Psi4 exiting successfully. Buy a developer a beer!
