                               Psi4 1.3.2 release

  ==> Input File <==

--------------------------------------------------------------------------
#psi4
#
memory 32 gb

molecule  {
0 1
  O        1.5280220    -0.7684950     0.0001570
  O        0.6145710     1.3078690     0.0000680
  C       -0.8109530    -0.6383160    -0.0001140
  C        0.4624726     0.1179305    -0.0004449
  C       -1.9669030     0.0367350     0.0001300
  H       -0.7664070    -1.7224440    -0.0001000
  H       -2.9239270    -0.4730490     0.0003210
  H       -1.9656330     1.1220070     0.0001100
  H        2.3294960    -0.2055650     0.0004620
units angstrom
no_reorient  #important for SAPT in psi4, default
symmetry c1  #important for SAPT in psi4, default
}

set PROPERTIES_ORIGIN ["COM"]
properties('MP2/aug-cc-pvtz', properties = ['dipole'])
--------------------------------------------------------------------------

    Molecular point group: c1
  Charge       = 0
  Multiplicity = 1
  Basis Set: AUG-CC-PVTZ
    Blend: AUG-CC-PVTZ
  Basis Set: (AUG-CC-PVTZ AUX)
    Blend: AUG-CC-PVTZ-JKFIT

    Orbital Energies [Eh]
    ---------------------

    Doubly Occupied:

       1A    -20.611186     2A    -20.554867     3A    -11.393630
       4A    -11.268657     5A    -11.258447     6A     -1.457471
       7A     -1.362617     8A     -1.083817     9A     -0.902562
      10A     -0.766378    11A     -0.716427    12A     -0.698625
      13A     -0.627620    14A     -0.624902    15A     -0.599272
      16A     -0.554859    17A     -0.494831    18A     -0.461472
      19A     -0.401926

  @DF-RHF Final Energy:  -265.75803382996725

   => Energetics <=

    Nuclear Repulsion Energy =            161.8091250870012345
    One-Electron Energy =                -683.4551884889428948
    Two-Electron Energy =                 255.8880295719744140
    Total Energy =                       -265.7580338299672462
  Basis Set: (AUG-CC-PVTZ AUX)
    Blend: AUG-CC-PVTZ-RI
    Molecular point group: c1

    Geometry (in Angstrom), charge = 0, multiplicity = 1:

       Center              X                  Y                   Z               Mass
    ------------   -----------------  -----------------  -----------------  -----------------
         O            1.484514065812    -0.789799518218     0.000167396101    15.994914619570
         O            0.571063065812     1.286564481782     0.000078396101    15.994914619570
         C           -0.854460934188    -0.659620518218    -0.000103603899    12.000000000000
         C            0.418964665812     0.096625981782    -0.000434503899    12.000000000000
         C           -2.010410934188     0.015430481782     0.000140396101    12.000000000000
         H           -0.809914934188    -1.743748518218    -0.000089603899     1.007825032230
         H           -2.967434934188    -0.494353518218     0.000331396101     1.007825032230
         H           -2.009140934188     1.100702481782     0.000120396101     1.007825032230
         H            2.285988065812    -0.226869518218     0.000472396101     1.007825032230

  Basis Set: AUG-CC-PVTZ
    Blend: AUG-CC-PVTZ
  Basis Set: (AUG-CC-PVTZ AUX)
    Blend: AUG-CC-PVTZ-JKFIT
	 Reference Energy          =    -265.7580338299672462 [Eh]
	 Singles Energy            =      -0.0000000000000000 [Eh]
	 Same-Spin Energy          =      -0.2543471785520861 [Eh]
	 Opposite-Spin Energy      =      -0.7911685020469744 [Eh]
	 Correlation Energy        =      -1.0455156805990606 [Eh]
	 Total Energy              =    -266.8035495105663131 [Eh]

	 ================> DF-SCS-MP2 Energies <==================
	-----------------------------------------------------------
	 SCS Same-Spin Scale       =       0.3333333333333333 [-]
	 SCS Opposite-Spin Scale   =       1.2000000000000000 [-]
	 SCS Same-Spin Energy      =      -0.0847823928506954 [Eh]
	 SCS Opposite-Spin Energy  =      -0.9494022024563693 [Eh]
	 SCS Correlation Energy    =      -1.0341845953070647 [Eh]
	 SCS Total Energy          =    -266.7922184252743136 [Eh]
	-----------------------------------------------------------

  Dipole Moment: [D]
     X:    -0.7221      Y:    -1.2033      Z:    -0.0001     Total:     1.4034

*** Psi4 exiting successfully. Buy a developer a beer!
