                               Psi4 1.3.2 release

  ==> Input File <==

--------------------------------------------------------------------------
#psi4
#
memory 32 gb

molecule  {
0 1
  O        1.5280220    -0.7684950     0.0001570
  O        0.6145710     1.3078690     0.0000680
  C       -0.8109530    -0.6383160    -0.0001140
  C        0.4754770     0.0955910    -0.0004470
  C       -1.9669030     0.0367350     0.0001300
  H       -0.7664070    -1.7224440    -0.0001000
  H       -2.9239270    -0.4730490     0.0003210
  H       -1.9656330     1.1220070     0.0001100
  H        2.4113280    -0.1480888     0.0004931
units angstrom
no_reorient  #important for SAPT in psi4, default
symmetry c1  #important for SAPT in psi4, default
}

set PROPERTIES_ORIGIN ["COM"]
properties('MP2/aug-cc-pvtz', properties = ['dipole'])
--------------------------------------------------------------------------

    Molecular point group: c1
  Charge       = 0
  Multiplicity = 1
  Basis Set: AUG-CC-PVTZ
    Blend: AUG-CC-PVTZ
  Basis Set: (AUG-CC-PVTZ AUX)
    Blend: AUG-CC-PVTZ-JKFIT

    Orbital Energies [Eh]
    ---------------------

    Doubly Occupied:

       1A    -20.623582     2A    -20.548160     3A    -11.392906
       4A    -11.267848     5A    -11.257629     6A     -1.448374
       7A     -1.347949     8A     -1.081031     9A     -0.896788
      10A     -0.762743    11A     -0.709062    12A     -0.692620
      13A     -0.627255    14A     -0.621886    15A     -0.591429
      16A     -0.548972    17A     -0.487585    18A     -0.457650
      19A     -0.399787

  @DF-RHF Final Energy:  -265.74484596678474

   => Energetics <=

    Nuclear Repulsion Energy =            161.2164592435369741
    One-Electron Energy =                -682.3960983652677896
    Two-Electron Energy =                 255.4347931549460782
    Total Energy =                       -265.7448459667847374
  Basis Set: (AUG-CC-PVTZ AUX)
    Blend: AUG-CC-PVTZ-RI
    Molecular point group: c1

    Geometry (in Angstrom), charge = 0, multiplicity = 1:

       Center              X                  Y                   Z               Mass
    ------------   -----------------  -----------------  -----------------  -----------------
         O            1.481202188587    -0.786881651632     0.000167310802    15.994914619570
         O            0.567751188587     1.289482348368     0.000078310802    15.994914619570
         C           -0.857772811413    -0.656702651632    -0.000103689198    12.000000000000
         C            0.428657188587     0.077204348368    -0.000436689198    12.000000000000
         C           -2.013722811413     0.018348348368     0.000140310802    12.000000000000
         H           -0.813226811413    -1.740830651632    -0.000089689198     1.007825032230
         H           -2.970746811413    -0.491435651632     0.000331310802     1.007825032230
         H           -2.012452811413     1.103620348368     0.000120310802     1.007825032230
         H            2.364508188587    -0.166475451632     0.000503410802     1.007825032230

  Basis Set: AUG-CC-PVTZ
    Blend: AUG-CC-PVTZ
  Basis Set: (AUG-CC-PVTZ AUX)
    Blend: AUG-CC-PVTZ-JKFIT
	 Reference Energy          =    -265.7448459667847374 [Eh]
	 Singles Energy            =      -0.0000000000000000 [Eh]
	 Same-Spin Energy          =      -0.2558355311780494 [Eh]
	 Opposite-Spin Energy      =      -0.7946395369722017 [Eh]
	 Correlation Energy        =      -1.0504750681502510 [Eh]
	 Total Energy              =    -266.7953210349350002 [Eh]

	 ================> DF-SCS-MP2 Energies <==================
	-----------------------------------------------------------
	 SCS Same-Spin Scale       =       0.3333333333333333 [-]
	 SCS Opposite-Spin Scale   =       1.2000000000000000 [-]
	 SCS Same-Spin Energy      =      -0.0852785103926831 [Eh]
	 SCS Opposite-Spin Energy  =      -0.9535674443666420 [Eh]
	 SCS Correlation Energy    =      -1.0388459547593252 [Eh]
	 SCS Total Energy          =    -266.7836919215440616 [Eh]
	-----------------------------------------------------------

  Dipole Moment: [D]
     X:    -0.4679      Y:    -1.3359      Z:    -0.0001     Total:     1.4155

*** Psi4 exiting successfully. Buy a developer a beer!
