                               Psi4 1.4a3.dev225

  ==> Input File <==

--------------------------------------------------------------------------
#psi4
#
memory 32 gb

molecule  {
0 1
  O        1.5281450    -0.7681140     0.0000130
  O        0.6140580     1.3077470    -0.0000100
  C       -0.8107600    -0.6385920    -0.0000170
  C        0.4698942     0.0455140    -0.0000048
  C       -1.9665160     0.0368920     0.0000130
  H       -0.7670810    -1.7227100    -0.0000460
  H       -2.9234270    -0.4732330     0.0000090
  H       -1.9658970     1.1221510     0.0000420
  H        2.3290270    -0.2042190     0.0000210
units angstrom
no_reorient  #important for SAPT in psi4, default
symmetry c1  #important for SAPT in psi4, default
}

set PROPERTIES_ORIGIN ["COM"]
properties('MP2/aug-cc-pvtz', properties = ['dipole'])
--------------------------------------------------------------------------

    Molecular point group: c1
  Charge       = 0
  Multiplicity = 1
  Basis Set: AUG-CC-PVTZ
    Blend: AUG-CC-PVTZ
  Basis Set: (AUG-CC-PVTZ AUX)
    Blend: AUG-CC-PVTZ-JKFIT

    Orbital Energies [Eh]
    ---------------------

    Doubly Occupied:

       1A    -20.625674     2A    -20.539481     3A    -11.396901
       4A    -11.273614     5A    -11.258269     6A     -1.465384
       7A     -1.328734     8A     -1.088402     9A     -0.918531
      10A     -0.781751    11A     -0.715703    12A     -0.698333
      13A     -0.632835    14A     -0.622255    15A     -0.597664
      16A     -0.546255    17A     -0.478357    18A     -0.452985
      19A     -0.399620

  @DF-RHF Final Energy:  -265.75054480171605

   => Energetics <=

    Nuclear Repulsion Energy =            161.6164217998796175
    One-Electron Energy =                -683.0924357557540816
    Two-Electron Energy =                 255.7254691541584180
    Total Energy =                       -265.7505448017160461
  Basis Set: (AUG-CC-PVTZ AUX)
    Blend: AUG-CC-PVTZ-RI
    Molecular point group: c1

    Geometry (in Angstrom), charge = 0, multiplicity = 1:

       Center              X                  Y                   Z               Mass
    ------------   -----------------  -----------------  -----------------  -----------------
         O            1.483403162834    -0.777404888514     0.000013436147    15.994914619570
         O            0.569316162834     1.298456111486    -0.000009563853    15.994914619570
         C           -0.855501837166    -0.647882888514    -0.000016563853    12.000000000000
         C            0.425152362834     0.036223111486    -0.000004363853    12.000000000000
         C           -2.011257837166     0.027601111486     0.000013436147    12.000000000000
         H           -0.811822837166    -1.732000888514    -0.000045563853     1.007825032230
         H           -2.968168837166    -0.482523888514     0.000009436147     1.007825032230
         H           -2.010638837166     1.112860111486     0.000042436147     1.007825032230
         H            2.284285162834    -0.213509888514     0.000021436147     1.007825032230

  Basis Set: AUG-CC-PVTZ
    Blend: AUG-CC-PVTZ
  Basis Set: (AUG-CC-PVTZ AUX)
    Blend: AUG-CC-PVTZ-JKFIT
	 Reference Energy          =    -265.7505448017160461 [Eh]
	 Singles Energy            =      -0.0000000000000000 [Eh]
	 Same-Spin Energy          =      -0.2555226016071402 [Eh]
	 Opposite-Spin Energy      =      -0.7931604352186148 [Eh]
	 Correlation Energy        =      -1.0486830368257549 [Eh]
	 Total Energy              =    -266.7992278385418103 [Eh]

	 ================> DF-SCS-MP2 Energies <==================
	-----------------------------------------------------------
	 SCS Same-Spin Scale       =       0.3333333333333333 [-]
	 SCS Opposite-Spin Scale   =       1.2000000000000000 [-]
	 SCS Same-Spin Energy      =      -0.0851742005357134 [Eh]
	 SCS Opposite-Spin Energy  =      -0.9517925222623377 [Eh]
	 SCS Correlation Energy    =      -1.0369667227980510 [Eh]
	 SCS Total Energy          =    -266.7875115245141160 [Eh]
	-----------------------------------------------------------

  Dipole Moment: [D]
     X:    -0.5940      Y:    -1.6968      Z:     0.0000     Total:     1.7977

*** Psi4 exiting successfully. Buy a developer a beer!
