                               Psi4 1.3.2 release

  ==> Input File <==

--------------------------------------------------------------------------
#psi4
#
memory 32 gb

molecule  {
0 1
  O        1.5280220    -0.7684950     0.0001570
  O        0.6145710     1.3078690     0.0000680
  C       -0.8109530    -0.6383160    -0.0001140
  C        0.4526790    -0.1031054    -0.0005314
  C       -1.9669030     0.0367350     0.0001300
  H       -0.7664070    -1.7224440    -0.0001000
  H       -2.9239270    -0.4730490     0.0003210
  H       -1.9656330     1.1220070     0.0001100
  H        2.3294960    -0.2055650     0.0004620
units angstrom
no_reorient  #important for SAPT in psi4, default
symmetry c1  #important for SAPT in psi4, default
}

set PROPERTIES_ORIGIN ["COM"]
properties('MP2/aug-cc-pvtz', properties = ['dipole'])
--------------------------------------------------------------------------

    Molecular point group: c1
  Charge       = 0
  Multiplicity = 1
  Basis Set: AUG-CC-PVTZ
    Blend: AUG-CC-PVTZ
  Basis Set: (AUG-CC-PVTZ AUX)
    Blend: AUG-CC-PVTZ-JKFIT

    Orbital Energies [Eh]
    ---------------------

    Doubly Occupied:

       1A    -20.644348     2A    -20.507055     3A    -11.398990
       4A    -11.290495     5A    -11.258268     6A     -1.498016
       7A     -1.242096     8A     -1.104288     9A     -0.950965
      10A     -0.820279    11A     -0.720002    12A     -0.703926
      13A     -0.650383    14A     -0.643576    15A     -0.583174
      16A     -0.504480    17A     -0.454470    18A     -0.420523
      19A     -0.384990

  @DF-RHF Final Energy:  -265.69215462185446

   => Energetics <=

    Nuclear Repulsion Energy =            161.4422863216768178
    One-Electron Energy =                -682.7082334180973930
    Two-Electron Energy =                 255.5737924745661473
    Total Energy =                       -265.6921546218544563
  Basis Set: (AUG-CC-PVTZ AUX)
    Blend: AUG-CC-PVTZ-RI
    Molecular point group: c1

    Geometry (in Angstrom), charge = 0, multiplicity = 1:

       Center              X                  Y                   Z               Mass
    ------------   -----------------  -----------------  -----------------  -----------------
         O            1.486145853608    -0.752971009373     0.000181808538    15.994914619570
         O            0.572694853608     1.323392990627     0.000092808538    15.994914619570
         C           -0.852829146392    -0.622792009373    -0.000089191462    12.000000000000
         C            0.410802853608    -0.087581409373    -0.000506591462    12.000000000000
         C           -2.008779146392     0.052258990627     0.000154808538    12.000000000000
         H           -0.808283146392    -1.706920009373    -0.000075191462     1.007825032230
         H           -2.965803146392    -0.457525009373     0.000345808538     1.007825032230
         H           -2.007509146392     1.137530990627     0.000134808538     1.007825032230
         H            2.287619853608    -0.190041009373     0.000486808538     1.007825032230

  Basis Set: AUG-CC-PVTZ
    Blend: AUG-CC-PVTZ
  Basis Set: (AUG-CC-PVTZ AUX)
    Blend: AUG-CC-PVTZ-JKFIT
	 Reference Energy          =    -265.6921546218544563 [Eh]
	 Singles Energy            =      -0.0000000000000000 [Eh]
	 Same-Spin Energy          =      -0.2585831898876554 [Eh]
	 Opposite-Spin Energy      =      -0.7984811237264993 [Eh]
	 Correlation Energy        =      -1.0570643136141546 [Eh]
	 Total Energy              =    -266.7492189354686047 [Eh]

	 ================> DF-SCS-MP2 Energies <==================
	-----------------------------------------------------------
	 SCS Same-Spin Scale       =       0.3333333333333333 [-]
	 SCS Opposite-Spin Scale   =       1.2000000000000000 [-]
	 SCS Same-Spin Energy      =      -0.0861943966292185 [Eh]
	 SCS Opposite-Spin Energy  =      -0.9581773484717990 [Eh]
	 SCS Correlation Energy    =      -1.0443717451010175 [Eh]
	 SCS Total Energy          =    -266.7365263669555020 [Eh]
	-----------------------------------------------------------

  Dipole Moment: [D]
     X:    -0.6043      Y:    -2.5496      Z:     0.0001     Total:     2.6202

*** Psi4 exiting successfully. Buy a developer a beer!
