                               Psi4 1.3.2 release

  ==> Input File <==

--------------------------------------------------------------------------
#psi4
#
memory 32 gb

molecule  {
0 1
  O        1.5280220    -0.7684950     0.0001570
  O        0.6145710     1.3078690     0.0000680
  C       -0.8109530    -0.6383160    -0.0001140
  C        0.3886179     0.0460380    -0.0004245
  C       -1.9669030     0.0367350     0.0001300
  H       -0.7664070    -1.7224440    -0.0001000
  H       -2.9239270    -0.4730490     0.0003210
  H       -1.9656330     1.1220070     0.0001100
  H        2.3294960    -0.2055650     0.0004620
units angstrom
no_reorient  #important for SAPT in psi4, default
symmetry c1  #important for SAPT in psi4, default
}

set PROPERTIES_ORIGIN ["COM"]
properties('MP2/aug-cc-pvtz', properties = ['dipole'])
--------------------------------------------------------------------------

    Molecular point group: c1
  Charge       = 0
  Multiplicity = 1
  Basis Set: AUG-CC-PVTZ
    Blend: AUG-CC-PVTZ
  Basis Set: (AUG-CC-PVTZ AUX)
    Blend: AUG-CC-PVTZ-JKFIT

    Orbital Energies [Eh]
    ---------------------

    Doubly Occupied:

       1A    -20.606164     2A    -20.540430     3A    -11.396918
       4A    -11.286997     5A    -11.259198     6A     -1.430083
       7A     -1.315388     8A     -1.109878     9A     -0.927740
      10A     -0.769908    11A     -0.725576    12A     -0.681227
      13A     -0.623528    14A     -0.611311    15A     -0.595369
      16A     -0.556343    17A     -0.476608    18A     -0.450302
      19A     -0.405178

  @DF-RHF Final Energy:  -265.73571615934918

   => Energetics <=

    Nuclear Repulsion Energy =            161.4977531894293747
    One-Electron Energy =                -682.9306428899813000
    Two-Electron Energy =                 255.6971735412027158
    Total Energy =                       -265.7357161593491810
  Basis Set: (AUG-CC-PVTZ AUX)
    Blend: AUG-CC-PVTZ-RI
    Molecular point group: c1

    Geometry (in Angstrom), charge = 0, multiplicity = 1:

       Center              X                  Y                   Z               Mass
    ------------   -----------------  -----------------  -----------------  -----------------
         O            1.496819571262    -0.777820950157     0.000163997099    15.994914619570
         O            0.583368571262     1.298543049843     0.000074997099    15.994914619570
         C           -0.842155428738    -0.647641950157    -0.000107002901    12.000000000000
         C            0.357415471262     0.036712049843    -0.000417502901    12.000000000000
         C           -1.998105428738     0.027409049843     0.000136997099    12.000000000000
         H           -0.797609428738    -1.731769950157    -0.000093002901     1.007825032230
         H           -2.955129428738    -0.482374950157     0.000327997099     1.007825032230
         H           -1.996835428738     1.112681049843     0.000116997099     1.007825032230
         H            2.298293571262    -0.214890950157     0.000468997099     1.007825032230

  Basis Set: AUG-CC-PVTZ
    Blend: AUG-CC-PVTZ
  Basis Set: (AUG-CC-PVTZ AUX)
    Blend: AUG-CC-PVTZ-JKFIT
	 Reference Energy          =    -265.7357161593491810 [Eh]
	 Singles Energy            =      -0.0000000000000000 [Eh]
	 Same-Spin Energy          =      -0.2569175593839632 [Eh]
	 Opposite-Spin Energy      =      -0.7959165994755012 [Eh]
	 Correlation Energy        =      -1.0528341588594643 [Eh]
	 Total Energy              =    -266.7885503182086495 [Eh]

	 ================> DF-SCS-MP2 Energies <==================
	-----------------------------------------------------------
	 SCS Same-Spin Scale       =       0.3333333333333333 [-]
	 SCS Opposite-Spin Scale   =       1.2000000000000000 [-]
	 SCS Same-Spin Energy      =      -0.0856391864613210 [Eh]
	 SCS Opposite-Spin Energy  =      -0.9550999193706013 [Eh]
	 SCS Correlation Energy    =      -1.0407391058319224 [Eh]
	 SCS Total Energy          =    -266.7764552651810845 [Eh]
	-----------------------------------------------------------

  Dipole Moment: [D]
     X:    -1.2943      Y:    -1.5591      Z:    -0.0000     Total:     2.0263

*** Psi4 exiting successfully. Buy a developer a beer!
