                               Psi4 1.3.2 release

  ==> Input File <==

--------------------------------------------------------------------------
#psi4
#
memory 32 gb

molecule  {
0 1
  O        1.5280220    -0.7684950     0.0001570
  O        0.6145710     1.3078690     0.0000680
  C       -0.8109530    -0.6383160    -0.0001140
  C        0.5383165     0.1669080    -0.0004265
  C       -1.9669030     0.0367350     0.0001300
  H       -0.7664070    -1.7224440    -0.0001000
  H       -2.9239270    -0.4730490     0.0003210
  H       -1.9656330     1.1220070     0.0001100
  H        2.3294960    -0.2055650     0.0004620
units angstrom
no_reorient  #important for SAPT in psi4, default
symmetry c1  #important for SAPT in psi4, default
}

set PROPERTIES_ORIGIN ["COM"]
properties('MP2/aug-cc-pvtz', properties = ['dipole'])
--------------------------------------------------------------------------

    Molecular point group: c1
  Charge       = 0
  Multiplicity = 1
  Basis Set: AUG-CC-PVTZ
    Blend: AUG-CC-PVTZ
  Basis Set: (AUG-CC-PVTZ AUX)
    Blend: AUG-CC-PVTZ-JKFIT

    Orbital Energies [Eh]
    ---------------------

    Doubly Occupied:

       1A    -20.620079     2A    -20.564223     3A    -11.390982
       4A    -11.255031     5A    -11.253318     6A     -1.488767
       7A     -1.397395     8A     -1.063094     9A     -0.884959
      10A     -0.765937    11A     -0.720982    12A     -0.707914
      13A     -0.647846    14A     -0.637482    15A     -0.590186
      16A     -0.552928    17A     -0.513024    18A     -0.455650
      19A     -0.393357

  @DF-RHF Final Energy:  -265.75010784847296

   => Energetics <=

    Nuclear Repulsion Energy =            162.1551232115312757
    One-Electron Energy =                -684.0041544645647491
    Two-Electron Energy =                 256.0989234045604803
    Total Energy =                       -265.7501078484729646
  Basis Set: (AUG-CC-PVTZ AUX)
    Blend: AUG-CC-PVTZ-RI
    Molecular point group: c1

    Geometry (in Angstrom), charge = 0, multiplicity = 1:

       Center              X                  Y                   Z               Mass
    ------------   -----------------  -----------------  -----------------  -----------------
         O            1.471877124292    -0.797960040070     0.000164330334    15.994914619570
         O            0.558426124292     1.278403959930     0.000075330334    15.994914619570
         C           -0.867097875708    -0.667781040070    -0.000106669666    12.000000000000
         C            0.482171624292     0.137442959930    -0.000419169666    12.000000000000
         C           -2.023047875708     0.007269959930     0.000137330334    12.000000000000
         H           -0.822551875708    -1.751909040070    -0.000092669666     1.007825032230
         H           -2.980071875708    -0.502514040070     0.000328330334     1.007825032230
         H           -2.021777875708     1.092541959930     0.000117330334     1.007825032230
         H            2.273351124292    -0.235030040070     0.000469330334     1.007825032230

  Basis Set: AUG-CC-PVTZ
    Blend: AUG-CC-PVTZ
  Basis Set: (AUG-CC-PVTZ AUX)
    Blend: AUG-CC-PVTZ-JKFIT
	 Reference Energy          =    -265.7501078484729646 [Eh]
	 Singles Energy            =      -0.0000000000000000 [Eh]
	 Same-Spin Energy          =      -0.2530065752900672 [Eh]
	 Opposite-Spin Energy      =      -0.7886186403241283 [Eh]
	 Correlation Energy        =      -1.0416252156141956 [Eh]
	 Total Energy              =    -266.7917330640871683 [Eh]

	 ================> DF-SCS-MP2 Energies <==================
	-----------------------------------------------------------
	 SCS Same-Spin Scale       =       0.3333333333333333 [-]
	 SCS Opposite-Spin Scale   =       1.2000000000000000 [-]
	 SCS Same-Spin Energy      =      -0.0843355250966891 [Eh]
	 SCS Opposite-Spin Energy  =      -0.9463423683889539 [Eh]
	 SCS Correlation Energy    =      -1.0306778934856431 [Eh]
	 SCS Total Energy          =    -266.7807857419585957 [Eh]
	-----------------------------------------------------------

  Dipole Moment: [D]
     X:    -0.1006      Y:    -0.9462      Z:    -0.0002     Total:     0.9516

*** Psi4 exiting successfully. Buy a developer a beer!
