                               Psi4 1.3.2 release

  ==> Input File <==

--------------------------------------------------------------------------
#psi4
#
memory 32 gb

molecule  {
0 1
  O        1.5280220    -0.7684950     0.0001570
  O        0.6145710     1.3078690     0.0000680
  C       -0.8109530    -0.6383160    -0.0001140
  C        0.5527678     0.0321392    -0.0004026
  C       -1.9669030     0.0367350     0.0001300
  H       -0.7664070    -1.7224440    -0.0001000
  H       -2.9239270    -0.4730490     0.0003210
  H       -1.9656330     1.1220070     0.0001100
  H        2.3294960    -0.2055650     0.0004620
units angstrom
no_reorient  #important for SAPT in psi4, default
symmetry c1  #important for SAPT in psi4, default
}

set PROPERTIES_ORIGIN ["COM"]
properties('MP2/aug-cc-pvtz', properties = ['dipole'])
--------------------------------------------------------------------------

    Molecular point group: c1
  Charge       = 0
  Multiplicity = 1
  Basis Set: AUG-CC-PVTZ
    Blend: AUG-CC-PVTZ
  Basis Set: (AUG-CC-PVTZ AUX)
    Blend: AUG-CC-PVTZ-JKFIT

    Orbital Energies [Eh]
    ---------------------

    Doubly Occupied:

       1A    -20.647513     2A    -20.534923     3A    -11.398073
       4A    -11.262761     5A    -11.256541     6A     -1.511541
       7A     -1.328470     8A     -1.071050     9A     -0.920329
      10A     -0.794310    11A     -0.723454    12A     -0.701661
      13A     -0.661240    14A     -0.622664    15A     -0.592090
      16A     -0.533589    17A     -0.474794    18A     -0.446483
      19A     -0.392765

  @DF-RHF Final Energy:  -265.74371628641950

   => Energetics <=

    Nuclear Repulsion Energy =            161.7601136301034046
    One-Electron Energy =                -683.2591552610430199
    Two-Electron Energy =                 255.7553253445201165
    Total Energy =                       -265.7437162864194988
  Basis Set: (AUG-CC-PVTZ AUX)
    Blend: AUG-CC-PVTZ-RI
    Molecular point group: c1

    Geometry (in Angstrom), charge = 0, multiplicity = 1:

       Center              X                  Y                   Z               Mass
    ------------   -----------------  -----------------  -----------------  -----------------
         O            1.469469280906    -0.775505163089     0.000160348170    15.994914619570
         O            0.556018280906     1.300858836911     0.000071348170    15.994914619570
         C           -0.869505719094    -0.645326163089    -0.000110651830    12.000000000000
         C            0.494215080906     0.025129036911    -0.000399251830    12.000000000000
         C           -2.025455719094     0.029724836911     0.000133348170    12.000000000000
         H           -0.824959719094    -1.729454163089    -0.000096651830     1.007825032230
         H           -2.982479719094    -0.480059163089     0.000324348170     1.007825032230
         H           -2.024185719094     1.114996836911     0.000113348170     1.007825032230
         H            2.270943280906    -0.212575163089     0.000465348170     1.007825032230

  Basis Set: AUG-CC-PVTZ
    Blend: AUG-CC-PVTZ
  Basis Set: (AUG-CC-PVTZ AUX)
    Blend: AUG-CC-PVTZ-JKFIT
	 Reference Energy          =    -265.7437162864194988 [Eh]
	 Singles Energy            =      -0.0000000000000000 [Eh]
	 Same-Spin Energy          =      -0.2549339057162993 [Eh]
	 Opposite-Spin Energy      =      -0.7918694096831287 [Eh]
	 Correlation Energy        =      -1.0468033153994281 [Eh]
	 Total Energy              =    -266.7905196018189145 [Eh]

	 ================> DF-SCS-MP2 Energies <==================
	-----------------------------------------------------------
	 SCS Same-Spin Scale       =       0.3333333333333333 [-]
	 SCS Opposite-Spin Scale   =       1.2000000000000000 [-]
	 SCS Same-Spin Energy      =      -0.0849779685720997 [Eh]
	 SCS Opposite-Spin Energy  =      -0.9502432916197544 [Eh]
	 SCS Correlation Energy    =      -1.0352212601918542 [Eh]
	 SCS Total Energy          =    -266.7789375466113597 [Eh]
	-----------------------------------------------------------

  Dipole Moment: [D]
     X:     0.0988      Y:    -1.9347      Z:     0.0001     Total:     1.9373

*** Psi4 exiting successfully. Buy a developer a beer!
