                               Psi4 1.4a3.dev225

  ==> Input File <==

--------------------------------------------------------------------------
#psi4
#
memory 32 gb

molecule  {
0 1
  O        1.5281450    -0.7681140     0.0000130
  O        0.6140580     1.3077470    -0.0000100
  C       -0.8107600    -0.6385920    -0.0000170
  C        0.5142279     0.0634828    -0.0000043
  C       -1.9665160     0.0368920     0.0000130
  H       -0.7670810    -1.7227100    -0.0000460
  H       -2.9234270    -0.4732330     0.0000090
  H       -1.9658970     1.1221510     0.0000420
  H        2.3290270    -0.2042190     0.0000210
units angstrom
no_reorient  #important for SAPT in psi4, default
symmetry c1  #important for SAPT in psi4, default
}

set PROPERTIES_ORIGIN ["COM"]
properties('MP2/aug-cc-pvtz', properties = ['dipole'])
--------------------------------------------------------------------------

    Molecular point group: c1
  Charge       = 0
  Multiplicity = 1
  Basis Set: AUG-CC-PVTZ
    Blend: AUG-CC-PVTZ
  Basis Set: (AUG-CC-PVTZ AUX)
    Blend: AUG-CC-PVTZ-JKFIT

    Orbital Energies [Eh]
    ---------------------

    Doubly Occupied:

       1A    -20.633081     2A    -20.542550     3A    -11.396379
       4A    -11.265603     5A    -11.257092     6A     -1.482067
       7A     -1.345400     8A     -1.076641     9A     -0.912042
      10A     -0.783067    11A     -0.714219    12A     -0.704393
      13A     -0.644009    14A     -0.623027    15A     -0.597011
      16A     -0.543167    17A     -0.483834    18A     -0.454097
      19A     -0.396526

  @DF-RHF Final Energy:  -265.75436275327024

   => Energetics <=

    Nuclear Repulsion Energy =            161.7408637123817527
    One-Electron Energy =                -683.2820404510011940
    Two-Electron Energy =                 255.7868139853492266
    Total Energy =                       -265.7543627532702430
  Basis Set: (AUG-CC-PVTZ AUX)
    Blend: AUG-CC-PVTZ-RI
    Molecular point group: c1

    Geometry (in Angstrom), charge = 0, multiplicity = 1:

       Center              X                  Y                   Z               Mass
    ------------   -----------------  -----------------  -----------------  -----------------
         O            1.476016380585    -0.780398809908     0.000013352838    15.994914619570
         O            0.561929380585     1.295462190092    -0.000009647162    15.994914619570
         C           -0.862888619415    -0.650876809908    -0.000016647162    12.000000000000
         C            0.462099280585     0.051197990092    -0.000003947162    12.000000000000
         C           -2.018644619415     0.024607190092     0.000013352838    12.000000000000
         H           -0.819209619415    -1.734994809908    -0.000045647162     1.007825032230
         H           -2.975555619415    -0.485517809908     0.000009352838     1.007825032230
         H           -2.018025619415     1.109866190092     0.000042352838     1.007825032230
         H            2.276898380585    -0.216503809908     0.000021352838     1.007825032230

  Basis Set: AUG-CC-PVTZ
    Blend: AUG-CC-PVTZ
  Basis Set: (AUG-CC-PVTZ AUX)
    Blend: AUG-CC-PVTZ-JKFIT
	 Reference Energy          =    -265.7543627532702430 [Eh]
	 Singles Energy            =      -0.0000000000000000 [Eh]
	 Same-Spin Energy          =      -0.2547066015931968 [Eh]
	 Opposite-Spin Energy      =      -0.7916039731666196 [Eh]
	 Correlation Energy        =      -1.0463105747598163 [Eh]
	 Total Energy              =    -266.8006733280300864 [Eh]

	 ================> DF-SCS-MP2 Energies <==================
	-----------------------------------------------------------
	 SCS Same-Spin Scale       =       0.3333333333333333 [-]
	 SCS Opposite-Spin Scale   =       1.2000000000000000 [-]
	 SCS Same-Spin Energy      =      -0.0849022005310656 [Eh]
	 SCS Opposite-Spin Energy  =      -0.9499247677999434 [Eh]
	 SCS Correlation Energy    =      -1.0348269683310090 [Eh]
	 SCS Total Energy          =    -266.7891897216012467 [Eh]
	-----------------------------------------------------------

  Dipole Moment: [D]
     X:    -0.2377      Y:    -1.6553      Z:     0.0000     Total:     1.6723

*** Psi4 exiting successfully. Buy a developer a beer!
