                               Psi4 1.4a3.dev225

  ==> Input File <==

--------------------------------------------------------------------------
#psi4
#
memory 32 gb

molecule  {
0 1
  O        1.5281450    -0.7681140     0.0000130
  O        0.6140580     1.3077470    -0.0000100
  C       -0.8107600    -0.6385920    -0.0000170
  C        0.4910320     0.0825077    -0.0000047
  C       -1.9665160     0.0368920     0.0000130
  H       -0.7670810    -1.7227100    -0.0000460
  H       -2.9234270    -0.4732330     0.0000090
  H       -1.9658970     1.1221510     0.0000420
  H        2.3290270    -0.2042190     0.0000210
units angstrom
no_reorient  #important for SAPT in psi4, default
symmetry c1  #important for SAPT in psi4, default
}

set PROPERTIES_ORIGIN ["COM"]
properties('MP2/aug-cc-pvtz', properties = ['dipole'])
--------------------------------------------------------------------------

    Molecular point group: c1
  Charge       = 0
  Multiplicity = 1
  Basis Set: AUG-CC-PVTZ
    Blend: AUG-CC-PVTZ
  Basis Set: (AUG-CC-PVTZ AUX)
    Blend: AUG-CC-PVTZ-JKFIT

    Orbital Energies [Eh]
    ---------------------

    Doubly Occupied:

       1A    -20.624316     2A    -20.547002     3A    -11.395369
       4A    -11.267368     5A    -11.257589     6A     -1.467985
       7A     -1.353228     8A     -1.080224     9A     -0.908474
      10A     -0.776231    11A     -0.714176    12A     -0.701804
      13A     -0.635551    14A     -0.623267    15A     -0.598947
      16A     -0.548236    17A     -0.488302    18A     -0.457628
      19A     -0.398856

  @DF-RHF Final Energy:  -265.75734173327822

   => Energetics <=

    Nuclear Repulsion Energy =            161.7471651091570948
    One-Electron Energy =                -683.3199068295953111
    Two-Electron Energy =                 255.8153999871599922
    Total Energy =                       -265.7573417332782242
  Basis Set: (AUG-CC-PVTZ AUX)
    Blend: AUG-CC-PVTZ-RI
    Molecular point group: c1

    Geometry (in Angstrom), charge = 0, multiplicity = 1:

       Center              X                  Y                   Z               Mass
    ------------   -----------------  -----------------  -----------------  -----------------
         O            1.479881229726    -0.783568696329     0.000013419485    15.994914619570
         O            0.565794229726     1.292292303671    -0.000009580515    15.994914619570
         C           -0.859023770274    -0.654046696329    -0.000016580515    12.000000000000
         C            0.442768229726     0.067053003671    -0.000004280515    12.000000000000
         C           -2.014779770274     0.021437303671     0.000013419485    12.000000000000
         H           -0.815344770274    -1.738164696329    -0.000045580515     1.007825032230
         H           -2.971690770274    -0.488687696329     0.000009419485     1.007825032230
         H           -2.014160770274     1.106696303671     0.000042419485     1.007825032230
         H            2.280763229726    -0.219673696329     0.000021419485     1.007825032230

  Basis Set: AUG-CC-PVTZ
    Blend: AUG-CC-PVTZ
  Basis Set: (AUG-CC-PVTZ AUX)
    Blend: AUG-CC-PVTZ-JKFIT
	 Reference Energy          =    -265.7573417332782242 [Eh]
	 Singles Energy            =      -0.0000000000000000 [Eh]
	 Same-Spin Energy          =      -0.2546093125039445 [Eh]
	 Opposite-Spin Energy      =      -0.7915160685659048 [Eh]
	 Correlation Energy        =      -1.0461253810698494 [Eh]
	 Total Energy              =    -266.8034671143480523 [Eh]

	 ================> DF-SCS-MP2 Energies <==================
	-----------------------------------------------------------
	 SCS Same-Spin Scale       =       0.3333333333333333 [-]
	 SCS Opposite-Spin Scale   =       1.2000000000000000 [-]
	 SCS Same-Spin Energy      =      -0.0848697708346482 [Eh]
	 SCS Opposite-Spin Energy  =      -0.9498192822790857 [Eh]
	 SCS Correlation Energy    =      -1.0346890531137338 [Eh]
	 SCS Total Energy          =    -266.7920307863919334 [Eh]
	-----------------------------------------------------------

  Dipole Moment: [D]
     X:    -0.4469      Y:    -1.4893      Z:     0.0000     Total:     1.5549

*** Psi4 exiting successfully. Buy a developer a beer!
