                               Psi4 1.3.2 release

  ==> Input File <==

--------------------------------------------------------------------------
#psi4
#
memory 32 gb

molecule  {
0 1
  O        1.5280220    -0.7684950     0.0001570
  O        0.6145710     1.3078690     0.0000680
  C       -0.8109530    -0.6383160    -0.0001140
  C        0.4211486     0.1835401    -0.0004357
  C       -1.9669030     0.0367350     0.0001300
  H       -0.7664070    -1.7224440    -0.0001000
  H       -2.9239270    -0.4730490     0.0003210
  H       -1.9656330     1.1220070     0.0001100
  H        2.3294960    -0.2055650     0.0004620
units angstrom
no_reorient  #important for SAPT in psi4, default
symmetry c1  #important for SAPT in psi4, default
}

set PROPERTIES_ORIGIN ["COM"]
properties('MP2/aug-cc-pvtz', properties = ['dipole'])
--------------------------------------------------------------------------

    Molecular point group: c1
  Charge       = 0
  Multiplicity = 1
  Basis Set: AUG-CC-PVTZ
    Blend: AUG-CC-PVTZ
  Basis Set: (AUG-CC-PVTZ AUX)
    Blend: AUG-CC-PVTZ-JKFIT

    Orbital Energies [Eh]
    ---------------------

    Doubly Occupied:

       1A    -20.588244     2A    -20.569178     3A    -11.390414
       4A    -11.269609     5A    -11.260835     6A     -1.477809
       7A     -1.352760     8A     -1.088034     9A     -0.892637
      10A     -0.756994    11A     -0.718111    12A     -0.702372
      13A     -0.629692    14A     -0.629545    15A     -0.593615
      16A     -0.563324    17A     -0.498205    18A     -0.461367
      19A     -0.406312

  @DF-RHF Final Energy:  -265.74679044311586

   => Energetics <=

    Nuclear Repulsion Energy =            162.0681679054265487
    One-Electron Energy =                -683.9318047549363655
    Two-Electron Energy =                 256.1168464063939609
    Total Energy =                       -265.7467904431158559
  Basis Set: (AUG-CC-PVTZ AUX)
    Blend: AUG-CC-PVTZ-RI
    Molecular point group: c1

    Geometry (in Angstrom), charge = 0, multiplicity = 1:

       Center              X                  Y                   Z               Mass
    ------------   -----------------  -----------------  -----------------  -----------------
         O            1.491399378558    -0.800731243490     0.000165863218    15.994914619570
         O            0.577948378558     1.275632756510     0.000076863218    15.994914619570
         C           -0.847575621442    -0.670552243490    -0.000105136782    12.000000000000
         C            0.384525978558     0.151303856510    -0.000426836782    12.000000000000
         C           -2.003525621442     0.004498756510     0.000138863218    12.000000000000
         H           -0.803029621442    -1.754680243490    -0.000091136782     1.007825032230
         H           -2.960549621442    -0.505285243490     0.000329863218     1.007825032230
         H           -2.002255621442     1.089770756510     0.000118863218     1.007825032230
         H            2.292873378558    -0.237801243490     0.000470863218     1.007825032230

  Basis Set: AUG-CC-PVTZ
    Blend: AUG-CC-PVTZ
  Basis Set: (AUG-CC-PVTZ AUX)
    Blend: AUG-CC-PVTZ-JKFIT
	 Reference Energy          =    -265.7467904431158559 [Eh]
	 Singles Energy            =      -0.0000000000000000 [Eh]
	 Same-Spin Energy          =      -0.2538971462799083 [Eh]
	 Opposite-Spin Energy      =      -0.7905317719923164 [Eh]
	 Correlation Energy        =      -1.0444289182722246 [Eh]
	 Total Energy              =    -266.7912193613880731 [Eh]

	 ================> DF-SCS-MP2 Energies <==================
	-----------------------------------------------------------
	 SCS Same-Spin Scale       =       0.3333333333333333 [-]
	 SCS Opposite-Spin Scale   =       1.2000000000000000 [-]
	 SCS Same-Spin Energy      =      -0.0846323820933028 [Eh]
	 SCS Opposite-Spin Energy  =      -0.9486381263907796 [Eh]
	 SCS Correlation Energy    =      -1.0332705084840823 [Eh]
	 SCS Total Energy          =    -266.7800609515999213 [Eh]
	-----------------------------------------------------------

  Dipole Moment: [D]
     X:    -1.1551      Y:    -0.6668      Z:    -0.0002     Total:     1.3338

*** Psi4 exiting successfully. Buy a developer a beer!
