                               Psi4 1.3.2 release

  ==> Input File <==

--------------------------------------------------------------------------
#psi4
#
memory 32 gb

molecule  {
0 1
  O        1.5280220    -0.7684950     0.0001570
  O        0.6145710     1.3078690     0.0000680
  C       -0.8109530    -0.6383160    -0.0001140
  C        0.5235381     0.0040664    -0.0004545
  C       -1.9669030     0.0367350     0.0001300
  H       -0.7664070    -1.7224440    -0.0001000
  H       -2.9239270    -0.4730490     0.0003210
  H       -1.9656330     1.1220070     0.0001100
  H        2.3294960    -0.2055650     0.0004620
units angstrom
no_reorient  #important for SAPT in psi4, default
symmetry c1  #important for SAPT in psi4, default
}

set PROPERTIES_ORIGIN ["COM"]
properties('MP2/aug-cc-pvtz', properties = ['dipole'])
--------------------------------------------------------------------------

    Molecular point group: c1
  Charge       = 0
  Multiplicity = 1
  Basis Set: AUG-CC-PVTZ
    Blend: AUG-CC-PVTZ
  Basis Set: (AUG-CC-PVTZ AUX)
    Blend: AUG-CC-PVTZ-JKFIT

    Orbital Energies [Eh]
    ---------------------

    Doubly Occupied:

       1A    -20.645261     2A    -20.529402     3A    -11.398597
       4A    -11.269099     5A    -11.257754     6A     -1.505017
       7A     -1.308153     8A     -1.079450     9A     -0.926631
      10A     -0.798736    11A     -0.718326    12A     -0.704875
      13A     -0.656139    14A     -0.624228    15A     -0.590583
      16A     -0.531931    17A     -0.467530    18A     -0.443696
      19A     -0.393961

  @DF-RHF Final Energy:  -265.73922073339725

   => Energetics <=

    Nuclear Repulsion Energy =            161.6529236194992620
    One-Electron Energy =                -683.0855511710491328
    Two-Electron Energy =                 255.6934068181526243
    Total Energy =                       -265.7392207333972465
  Basis Set: (AUG-CC-PVTZ AUX)
    Blend: AUG-CC-PVTZ-RI
    Molecular point group: c1

    Geometry (in Angstrom), charge = 0, multiplicity = 1:

       Center              X                  Y                   Z               Mass
    ------------   -----------------  -----------------  -----------------  -----------------
         O            1.474339468351    -0.770827735743     0.000168995632    15.994914619570
         O            0.560888468351     1.305536264257     0.000079995632    15.994914619570
         C           -0.864635531649    -0.640648735743    -0.000102004368    12.000000000000
         C            0.469855568351     0.001733664257    -0.000442504368    12.000000000000
         C           -2.020585531649     0.034402264257     0.000141995632    12.000000000000
         H           -0.820089531649    -1.724776735743    -0.000088004368     1.007825032230
         H           -2.977609531649    -0.475381735743     0.000332995632     1.007825032230
         H           -2.019315531649     1.119674264257     0.000121995632     1.007825032230
         H            2.275813468351    -0.207897735743     0.000473995632     1.007825032230

  Basis Set: AUG-CC-PVTZ
    Blend: AUG-CC-PVTZ
  Basis Set: (AUG-CC-PVTZ AUX)
    Blend: AUG-CC-PVTZ-JKFIT
	 Reference Energy          =    -265.7392207333972465 [Eh]
	 Singles Energy            =      -0.0000000000000000 [Eh]
	 Same-Spin Energy          =      -0.2556373491857306 [Eh]
	 Opposite-Spin Energy      =      -0.7931583045678345 [Eh]
	 Correlation Energy        =      -1.0487956537535652 [Eh]
	 Total Energy              =    -266.7880163871508330 [Eh]

	 ================> DF-SCS-MP2 Energies <==================
	-----------------------------------------------------------
	 SCS Same-Spin Scale       =       0.3333333333333333 [-]
	 SCS Opposite-Spin Scale   =       1.2000000000000000 [-]
	 SCS Same-Spin Energy      =      -0.0852124497285768 [Eh]
	 SCS Opposite-Spin Energy  =      -0.9517899654814014 [Eh]
	 SCS Correlation Energy    =      -1.0370024152099782 [Eh]
	 SCS Total Energy          =    -266.7762231486072437 [Eh]
	-----------------------------------------------------------

  Dipole Moment: [D]
     X:    -0.1170      Y:    -2.0610      Z:     0.0000     Total:     2.0643

*** Psi4 exiting successfully. Buy a developer a beer!
