                               Psi4 1.4a3.dev225

  ==> Input File <==

--------------------------------------------------------------------------
#psi4
#
memory 32 gb

molecule  {
0 1
  O        1.5281450    -0.7681140     0.0000130
  O        0.6140580     1.3077470    -0.0000100
  C       -0.8107600    -0.6385920    -0.0000170
  C        0.4755680     0.0951910    -0.0000050
  C       -1.9665160     0.0368920     0.0000130
  H       -0.7670810    -1.7227100    -0.0000460
  H       -2.9234270    -0.4732330     0.0000090
  H       -1.9658970     1.1221510     0.0000420
  H        2.3699098    -0.1754337     0.0000214
units angstrom
no_reorient  #important for SAPT in psi4, default
symmetry c1  #important for SAPT in psi4, default
}

set PROPERTIES_ORIGIN ["COM"]
properties('MP2/aug-cc-pvtz', properties = ['dipole'])
--------------------------------------------------------------------------

    Molecular point group: c1
  Charge       = 0
  Multiplicity = 1
  Basis Set: AUG-CC-PVTZ
    Blend: AUG-CC-PVTZ
  Basis Set: (AUG-CC-PVTZ AUX)
    Blend: AUG-CC-PVTZ-JKFIT

    Orbital Energies [Eh]
    ---------------------

    Doubly Occupied:

       1A    -20.621313     2A    -20.548971     3A    -11.393788
       4A    -11.268202     5A    -11.257787     6A     -1.454035
       7A     -1.352215     8A     -1.081821     9A     -0.901315
      10A     -0.767010    11A     -0.711942    12A     -0.696498
      13A     -0.629053    14A     -0.622573    15A     -0.595781
      16A     -0.550240    17A     -0.489083    18A     -0.458541
      19A     -0.400086

  @DF-RHF Final Energy:  -265.75295339325982

   => Energetics <=

    Nuclear Repulsion Energy =            161.4846480880762272
    One-Electron Energy =                -682.8746977587751417
    Two-Electron Energy =                 255.6370962774390705
    Total Energy =                       -265.7529533932598156
  Basis Set: (AUG-CC-PVTZ AUX)
    Blend: AUG-CC-PVTZ-RI
    Molecular point group: c1

    Geometry (in Angstrom), charge = 0, multiplicity = 1:

       Center              X                  Y                   Z               Mass
    ------------   -----------------  -----------------  -----------------  -----------------
         O            1.481885714966    -0.786084765536     0.000013463873    15.994914619570
         O            0.567798714966     1.289776234464    -0.000009536127    15.994914619570
         C           -0.857019285034    -0.656562765536    -0.000016536127    12.000000000000
         C            0.429308714966     0.077220234464    -0.000004536127    12.000000000000
         C           -2.012775285034     0.018921234464     0.000013463873    12.000000000000
         H           -0.813340285034    -1.740680765536    -0.000045536127     1.007825032230
         H           -2.969686285034    -0.491203765536     0.000009463873     1.007825032230
         H           -2.012156285034     1.104180234464     0.000042463873     1.007825032230
         H            2.323650514966    -0.193404465536     0.000021863873     1.007825032230

  Basis Set: AUG-CC-PVTZ
    Blend: AUG-CC-PVTZ
  Basis Set: (AUG-CC-PVTZ AUX)
    Blend: AUG-CC-PVTZ-JKFIT
	 Reference Energy          =    -265.7529533932598156 [Eh]
	 Singles Energy            =      -0.0000000000000000 [Eh]
	 Same-Spin Energy          =      -0.2552055796420198 [Eh]
	 Opposite-Spin Energy      =      -0.7930331829388930 [Eh]
	 Correlation Energy        =      -1.0482387625809129 [Eh]
	 Total Energy              =    -266.8011921558407380 [Eh]

	 ================> DF-SCS-MP2 Energies <==================
	-----------------------------------------------------------
	 SCS Same-Spin Scale       =       0.3333333333333333 [-]
	 SCS Opposite-Spin Scale   =       1.2000000000000000 [-]
	 SCS Same-Spin Energy      =      -0.0850685265473399 [Eh]
	 SCS Opposite-Spin Energy  =      -0.9516398195266715 [Eh]
	 SCS Correlation Energy    =      -1.0367083460740114 [Eh]
	 SCS Total Energy          =    -266.7896617393338374 [Eh]
	-----------------------------------------------------------

  Dipole Moment: [D]
     X:    -0.5266      Y:    -1.3589      Z:     0.0000     Total:     1.4574

*** Psi4 exiting successfully. Buy a developer a beer!
