                               Psi4 1.4a3.dev225

  ==> Input File <==

--------------------------------------------------------------------------
#psi4
#
memory 32 gb

molecule  {
0 1
  O        1.5281450    -0.7681140     0.0000130
  O        0.6140580     1.3077470    -0.0000100
  C       -0.8107600    -0.6385920    -0.0000170
  C        0.4755680     0.0951910    -0.0000050
  C       -1.9665160     0.0368920     0.0000130
  H       -0.7670810    -1.7227100    -0.0000460
  H       -2.9234270    -0.4732330     0.0000090
  H       -1.9658970     1.1221510     0.0000420
  H        2.2881442    -0.2330043     0.0000206
units angstrom
no_reorient  #important for SAPT in psi4, default
symmetry c1  #important for SAPT in psi4, default
}

set PROPERTIES_ORIGIN ["COM"]
properties('MP2/aug-cc-pvtz', properties = ['dipole'])
--------------------------------------------------------------------------

    Molecular point group: c1
  Charge       = 0
  Multiplicity = 1
  Basis Set: AUG-CC-PVTZ
    Blend: AUG-CC-PVTZ
  Basis Set: (AUG-CC-PVTZ AUX)
    Blend: AUG-CC-PVTZ-JKFIT

    Orbital Energies [Eh]
    ---------------------

    Doubly Occupied:

       1A    -20.614986     2A    -20.550895     3A    -11.395689
       4A    -11.268962     5A    -11.258241     6A     -1.469010
       7A     -1.361587     8A     -1.083680     9A     -0.912745
      10A     -0.777269    11A     -0.718884    12A     -0.701945
      13A     -0.632712    14A     -0.624226    15A     -0.603282
      16A     -0.552369    17A     -0.492382    18A     -0.460392
      19A     -0.400804

  @DF-RHF Final Energy:  -265.75877544156742

   => Energetics <=

    Nuclear Repulsion Energy =            162.0594736996114023
    One-Electron Energy =                -683.8763801548736865
    Two-Electron Energy =                 256.0581310136948332
    Total Energy =                       -265.7587754415674226
  Basis Set: (AUG-CC-PVTZ AUX)
    Blend: AUG-CC-PVTZ-RI
    Molecular point group: c1

    Geometry (in Angstrom), charge = 0, multiplicity = 1:

       Center              X                  Y                   Z               Mass
    ------------   -----------------  -----------------  -----------------  -----------------
         O            1.483029898890    -0.785279153457     0.000013475068    15.994914619570
         O            0.568942898890     1.290581846543    -0.000009524932    15.994914619570
         C           -0.855875101110    -0.655757153457    -0.000016524932    12.000000000000
         C            0.430452898890     0.078025846543    -0.000004524932    12.000000000000
         C           -2.011631101110     0.019726846543     0.000013475068    12.000000000000
         H           -0.812196101110    -1.739875153457    -0.000045524932     1.007825032230
         H           -2.968542101110    -0.490398153457     0.000009475068     1.007825032230
         H           -2.011012101110     1.104985846543     0.000042475068     1.007825032230
         H            2.243029098890    -0.250169453457     0.000021075068     1.007825032230

  Basis Set: AUG-CC-PVTZ
    Blend: AUG-CC-PVTZ
  Basis Set: (AUG-CC-PVTZ AUX)
    Blend: AUG-CC-PVTZ-JKFIT
	 Reference Energy          =    -265.7587754415674226 [Eh]
	 Singles Energy            =      -0.0000000000000000 [Eh]
	 Same-Spin Energy          =      -0.2539298646545477 [Eh]
	 Opposite-Spin Energy      =      -0.7900355204913563 [Eh]
	 Correlation Energy        =      -1.0439653851459041 [Eh]
	 Total Energy              =    -266.8027408267133183 [Eh]

	 ================> DF-SCS-MP2 Energies <==================
	-----------------------------------------------------------
	 SCS Same-Spin Scale       =       0.3333333333333333 [-]
	 SCS Opposite-Spin Scale   =       1.2000000000000000 [-]
	 SCS Same-Spin Energy      =      -0.0846432882181826 [Eh]
	 SCS Opposite-Spin Energy  =      -0.9480426245896275 [Eh]
	 SCS Correlation Energy    =      -1.0326859128078101 [Eh]
	 SCS Total Energy          =    -266.7914613543752580 [Eh]
	-----------------------------------------------------------

  Dipole Moment: [D]
     X:    -0.6534      Y:    -1.3969      Z:     0.0000     Total:     1.5422

*** Psi4 exiting successfully. Buy a developer a beer!
