                               Psi4 1.3.2 release

  ==> Input File <==

--------------------------------------------------------------------------
#psi4
#
memory 32 gb

molecule  {
0 1
  O        1.5280220    -0.7684950     0.0001570
  O        0.6567942     1.3022762     0.0000426
  C       -0.8109530    -0.6383160    -0.0001140
  C        0.4754770     0.0955910    -0.0004470
  C       -1.9669030     0.0367350     0.0001300
  H       -0.7664070    -1.7224440    -0.0001000
  H       -2.9239270    -0.4730490     0.0003210
  H       -1.9656330     1.1220070     0.0001100
  H        2.3294960    -0.2055650     0.0004620
units angstrom
no_reorient  #important for SAPT in psi4, default
symmetry c1  #important for SAPT in psi4, default
}

set PROPERTIES_ORIGIN ["COM"]
properties('MP2/aug-cc-pvtz', properties = ['dipole'])
--------------------------------------------------------------------------

    Molecular point group: c1
  Charge       = 0
  Multiplicity = 1
  Basis Set: AUG-CC-PVTZ
    Blend: AUG-CC-PVTZ
  Basis Set: (AUG-CC-PVTZ AUX)
    Blend: AUG-CC-PVTZ-JKFIT

    Orbital Energies [Eh]
    ---------------------

    Doubly Occupied:

       1A    -20.614789     2A    -20.549351     3A    -11.394484
       4A    -11.270528     5A    -11.260276     6A     -1.460431
       7A     -1.353587     8A     -1.084823     9A     -0.907025
      10A     -0.771788    11A     -0.715158    12A     -0.698626
      13A     -0.629591    14A     -0.623763    15A     -0.600053
      16A     -0.553039    17A     -0.488603    18A     -0.459187
      19A     -0.402424

  @DF-RHF Final Energy:  -265.75795457505046

   => Energetics <=

    Nuclear Repulsion Energy =            161.6849670621605810
    One-Electron Energy =                -683.2107895230188888
    Two-Electron Energy =                 255.7678678858078456
    Total Energy =                       -265.7579545750504622
  Basis Set: (AUG-CC-PVTZ AUX)
    Blend: AUG-CC-PVTZ-RI
    Molecular point group: c1

    Geometry (in Angstrom), charge = 0, multiplicity = 1:

       Center              X                  Y                   Z               Mass
    ------------   -----------------  -----------------  -----------------  -----------------
         O            1.472970102446    -0.784835275619     0.000173386994    15.994914619570
         O            0.601742302446     1.285935924381     0.000058986994    15.994914619570
         C           -0.866004897554    -0.654656275619    -0.000097613006    12.000000000000
         C            0.420425102446     0.079250724381    -0.000430613006    12.000000000000
         C           -2.021954897554     0.020394724381     0.000146386994    12.000000000000
         H           -0.821458897554    -1.738784275619    -0.000083613006     1.007825032230
         H           -2.978978897554    -0.489389275619     0.000337386994     1.007825032230
         H           -2.020684897554     1.105666724381     0.000126386994     1.007825032230
         H            2.274444102446    -0.221905275619     0.000478386994     1.007825032230

  Basis Set: AUG-CC-PVTZ
    Blend: AUG-CC-PVTZ
  Basis Set: (AUG-CC-PVTZ AUX)
    Blend: AUG-CC-PVTZ-JKFIT
	 Reference Energy          =    -265.7579545750504622 [Eh]
	 Singles Energy            =      -0.0000000000000000 [Eh]
	 Same-Spin Energy          =      -0.2544767235440235 [Eh]
	 Opposite-Spin Energy      =      -0.7912960761044978 [Eh]
	 Correlation Energy        =      -1.0457727996485213 [Eh]
	 Total Energy              =    -266.8037273746990081 [Eh]

	 ================> DF-SCS-MP2 Energies <==================
	-----------------------------------------------------------
	 SCS Same-Spin Scale       =       0.3333333333333333 [-]
	 SCS Opposite-Spin Scale   =       1.2000000000000000 [-]
	 SCS Same-Spin Energy      =      -0.0848255745146745 [Eh]
	 SCS Opposite-Spin Energy  =      -0.9495552913253973 [Eh]
	 SCS Correlation Energy    =      -1.0343808658400717 [Eh]
	 SCS Total Energy          =    -266.7923354408905539 [Eh]
	-----------------------------------------------------------

  Dipole Moment: [D]
     X:    -0.7330      Y:    -1.3811      Z:    -0.0001     Total:     1.5635

*** Psi4 exiting successfully. Buy a developer a beer!
