                               Psi4 1.3.2 release

  ==> Input File <==

--------------------------------------------------------------------------
#psi4
#
memory 32 gb

molecule  {
0 1
  O        1.5575370    -0.7312353     0.0001371
  O        0.6145710     1.3078690     0.0000680
  C       -0.8109530    -0.6383160    -0.0001140
  C        0.4754770     0.0955910    -0.0004470
  C       -1.9669030     0.0367350     0.0001300
  H       -0.7664070    -1.7224440    -0.0001000
  H       -2.9239270    -0.4730490     0.0003210
  H       -1.9656330     1.1220070     0.0001100
  H        2.3294960    -0.2055650     0.0004620
units angstrom
no_reorient  #important for SAPT in psi4, default
symmetry c1  #important for SAPT in psi4, default
}

set PROPERTIES_ORIGIN ["COM"]
properties('MP2/aug-cc-pvtz', properties = ['dipole'])
--------------------------------------------------------------------------

    Molecular point group: c1
  Charge       = 0
  Multiplicity = 1
  Basis Set: AUG-CC-PVTZ
    Blend: AUG-CC-PVTZ
  Basis Set: (AUG-CC-PVTZ AUX)
    Blend: AUG-CC-PVTZ-JKFIT

    Orbital Energies [Eh]
    ---------------------

    Doubly Occupied:

       1A    -20.611766     2A    -20.547928     3A    -11.394977
       4A    -11.270310     5A    -11.260320     6A     -1.465407
       7A     -1.357195     8A     -1.084618     9A     -0.912651
      10A     -0.780710    11A     -0.717967    12A     -0.698593
      13A     -0.630432    14A     -0.623635    15A     -0.602532
      16A     -0.551615    17A     -0.489732    18A     -0.458728
      19A     -0.401536

  @DF-RHF Final Energy:  -265.75918980963814

   => Energetics <=

    Nuclear Repulsion Energy =            161.9005099143886923
    One-Electron Energy =                -683.5980949744671307
    Two-Electron Energy =                 255.9383952504402373
    Total Energy =                       -265.7591898096381442
  Basis Set: (AUG-CC-PVTZ AUX)
    Blend: AUG-CC-PVTZ-RI
    Molecular point group: c1

    Geometry (in Angstrom), charge = 0, multiplicity = 1:

       Center              X                  Y                   Z               Mass
    ------------   -----------------  -----------------  -----------------  -----------------
         O            1.505307421060    -0.757092533833     0.000152265518    15.994914619570
         O            0.562341421060     1.282011766167     0.000083165518    15.994914619570
         C           -0.863182578940    -0.664173233833    -0.000098834482    12.000000000000
         C            0.423247421060     0.069733766167    -0.000431834482    12.000000000000
         C           -2.019132578940     0.010877766167     0.000145165518    12.000000000000
         H           -0.818636578940    -1.748301233833    -0.000084834482     1.007825032230
         H           -2.976156578940    -0.498906233833     0.000336165518     1.007825032230
         H           -2.017862578940     1.096149766167     0.000125165518     1.007825032230
         H            2.277266421060    -0.231422233833     0.000477165518     1.007825032230

  Basis Set: AUG-CC-PVTZ
    Blend: AUG-CC-PVTZ
  Basis Set: (AUG-CC-PVTZ AUX)
    Blend: AUG-CC-PVTZ-JKFIT
	 Reference Energy          =    -265.7591898096381442 [Eh]
	 Singles Energy            =      -0.0000000000000000 [Eh]
	 Same-Spin Energy          =      -0.2537115520182971 [Eh]
	 Opposite-Spin Energy      =      -0.7896935880597605 [Eh]
	 Correlation Energy        =      -1.0434051400780575 [Eh]
	 Total Energy              =    -266.8025949497161946 [Eh]

	 ================> DF-SCS-MP2 Energies <==================
	-----------------------------------------------------------
	 SCS Same-Spin Scale       =       0.3333333333333333 [-]
	 SCS Opposite-Spin Scale   =       1.2000000000000000 [-]
	 SCS Same-Spin Energy      =      -0.0845705173394324 [Eh]
	 SCS Opposite-Spin Energy  =      -0.9476323056717126 [Eh]
	 SCS Correlation Energy    =      -1.0322028230111451 [Eh]
	 SCS Total Energy          =    -266.7913926326492629 [Eh]
	-----------------------------------------------------------

  Dipole Moment: [D]
     X:    -0.6906      Y:    -1.4122      Z:    -0.0001     Total:     1.5720

*** Psi4 exiting successfully. Buy a developer a beer!
