                               Psi4 1.3.2 release

  ==> Input File <==

--------------------------------------------------------------------------
#psi4
#
memory 32 gb

molecule  {
0 1
  O        1.5280220    -0.7684950     0.0001570
  O        0.5296679     1.3146186     0.0001168
  C       -0.8109530    -0.6383160    -0.0001140
  C        0.4754770     0.0955910    -0.0004470
  C       -1.9669030     0.0367350     0.0001300
  H       -0.7664070    -1.7224440    -0.0001000
  H       -2.9239270    -0.4730490     0.0003210
  H       -1.9656330     1.1220070     0.0001100
  H        2.3294960    -0.2055650     0.0004620
units angstrom
no_reorient  #important for SAPT in psi4, default
symmetry c1  #important for SAPT in psi4, default
}

set PROPERTIES_ORIGIN ["COM"]
properties('MP2/aug-cc-pvtz', properties = ['dipole'])
--------------------------------------------------------------------------

    Molecular point group: c1
  Charge       = 0
  Multiplicity = 1
  Basis Set: AUG-CC-PVTZ
    Blend: AUG-CC-PVTZ
  Basis Set: (AUG-CC-PVTZ AUX)
    Blend: AUG-CC-PVTZ-JKFIT

    Orbital Energies [Eh]
    ---------------------

    Doubly Occupied:

       1A    -20.625139     2A    -20.551118     3A    -11.395407
       4A    -11.264498     5A    -11.253491     6A     -1.461362
       7A     -1.363055     8A     -1.078328     9A     -0.905782
      10A     -0.771765    11A     -0.715720    12A     -0.700814
      13A     -0.633135    14A     -0.623066    15A     -0.598943
      16A     -0.547815    17A     -0.494854    18A     -0.459055
      19A     -0.396421

  @DF-RHF Final Energy:  -265.75602196206296

   => Energetics <=

    Nuclear Repulsion Energy =            161.9346799126391829
    One-Electron Energy =                -683.7018675257961604
    Two-Electron Energy =                 256.0111656510939611
    Total Energy =                       -265.7560219620629596
  Basis Set: (AUG-CC-PVTZ AUX)
    Blend: AUG-CC-PVTZ-RI
    Molecular point group: c1

    Geometry (in Angstrom), charge = 0, multiplicity = 1:

       Center              X                  Y                   Z               Mass
    ------------   -----------------  -----------------  -----------------  -----------------
         O            1.501203127008    -0.787576355020     0.000156908181    15.994914619570
         O            0.502849027008     1.295537244980     0.000116708181    15.994914619570
         C           -0.837771872992    -0.657397355020    -0.000114091819    12.000000000000
         C            0.448658127008     0.076509644980    -0.000447091819    12.000000000000
         C           -1.993721872992     0.017653644980     0.000129908181    12.000000000000
         H           -0.793225872992    -1.741525355020    -0.000100091819     1.007825032230
         H           -2.950745872992    -0.492130355020     0.000320908181     1.007825032230
         H           -1.992451872992     1.102925644980     0.000109908181     1.007825032230
         H            2.302677127008    -0.224646355020     0.000461908181     1.007825032230

  Basis Set: AUG-CC-PVTZ
    Blend: AUG-CC-PVTZ
  Basis Set: (AUG-CC-PVTZ AUX)
    Blend: AUG-CC-PVTZ-JKFIT
	 Reference Energy          =    -265.7560219620629596 [Eh]
	 Singles Energy            =      -0.0000000000000000 [Eh]
	 Same-Spin Energy          =      -0.2548110336503490 [Eh]
	 Opposite-Spin Energy      =      -0.7920338495991075 [Eh]
	 Correlation Energy        =      -1.0468448832494566 [Eh]
	 Total Energy              =    -266.8028668453123942 [Eh]

	 ================> DF-SCS-MP2 Energies <==================
	-----------------------------------------------------------
	 SCS Same-Spin Scale       =       0.3333333333333333 [-]
	 SCS Opposite-Spin Scale   =       1.2000000000000000 [-]
	 SCS Same-Spin Energy      =      -0.0849370112167830 [Eh]
	 SCS Opposite-Spin Energy  =      -0.9504406195189290 [Eh]
	 SCS Correlation Energy    =      -1.0353776307357121 [Eh]
	 SCS Total Energy          =    -266.7913995927986548 [Eh]
	-----------------------------------------------------------

  Dipole Moment: [D]
     X:    -0.3035      Y:    -1.3570      Z:    -0.0002     Total:     1.3906

*** Psi4 exiting successfully. Buy a developer a beer!
