                               Psi4 1.3.2 release

  ==> Input File <==

--------------------------------------------------------------------------
#psi4
#
memory 32 gb

molecule  {
0 1
  O        1.5280220    -0.7684950     0.0001570
  O        0.6145710     1.3078690     0.0000680
  C       -0.8109530    -0.6383160    -0.0001140
  C        0.3981862     0.1590428    -0.0004914
  C       -1.9669030     0.0367350     0.0001300
  H       -0.7664070    -1.7224440    -0.0001000
  H       -2.9239270    -0.4730490     0.0003210
  H       -1.9656330     1.1220070     0.0001100
  H        2.3294960    -0.2055650     0.0004620
units angstrom
no_reorient  #important for SAPT in psi4, default
symmetry c1  #important for SAPT in psi4, default
}

set PROPERTIES_ORIGIN ["COM"]
properties('MP2/aug-cc-pvtz', properties = ['dipole'])
--------------------------------------------------------------------------

    Molecular point group: c1
  Charge       = 0
  Multiplicity = 1
  Basis Set: AUG-CC-PVTZ
    Blend: AUG-CC-PVTZ
  Basis Set: (AUG-CC-PVTZ AUX)
    Blend: AUG-CC-PVTZ-JKFIT

    Orbital Energies [Eh]
    ---------------------

    Doubly Occupied:

       1A    -20.587785     2A    -20.564439     3A    -11.392569
       4A    -11.275058     5A    -11.261420     6A     -1.458408
       7A     -1.346163     8A     -1.096247     9A     -0.901674
      10A     -0.757251    11A     -0.718933    12A     -0.695758
      13A     -0.623440    14A     -0.620242    15A     -0.597242
      16A     -0.564910    17A     -0.492799    18A     -0.460879
      19A     -0.408872

  @DF-RHF Final Energy:  -265.74789604973495

   => Energetics <=

    Nuclear Repulsion Energy =            161.9013808945532276
    One-Electron Energy =                -683.6503721684774746
    Two-Electron Energy =                 256.0010952241893278
    Total Energy =                       -265.7478960497349476
  Basis Set: (AUG-CC-PVTZ AUX)
    Blend: AUG-CC-PVTZ-RI
    Molecular point group: c1

    Geometry (in Angstrom), charge = 0, multiplicity = 1:

       Center              X                  Y                   Z               Mass
    ------------   -----------------  -----------------  -----------------  -----------------
         O            1.495225322450    -0.796649557982     0.000175143828    15.994914619570
         O            0.581774322450     1.279714442018     0.000086143828    15.994914619570
         C           -0.843749677550    -0.666470557982    -0.000095856172    12.000000000000
         C            0.365389522450     0.130888242018    -0.000473256172    12.000000000000
         C           -1.999699677550     0.008580442018     0.000148143828    12.000000000000
         H           -0.799203677550    -1.750598557982    -0.000081856172     1.007825032230
         H           -2.956723677550    -0.501203557982     0.000339143828     1.007825032230
         H           -1.998429677550     1.093852442018     0.000128143828     1.007825032230
         H            2.296699322450    -0.233719557982     0.000480143828     1.007825032230

  Basis Set: AUG-CC-PVTZ
    Blend: AUG-CC-PVTZ
  Basis Set: (AUG-CC-PVTZ AUX)
    Blend: AUG-CC-PVTZ-JKFIT
	 Reference Energy          =    -265.7478960497349476 [Eh]
	 Singles Energy            =      -0.0000000000000000 [Eh]
	 Same-Spin Energy          =      -0.2546761427447423 [Eh]
	 Opposite-Spin Energy      =      -0.7919651095345785 [Eh]
	 Correlation Energy        =      -1.0466412522793209 [Eh]
	 Total Energy              =    -266.7945373020142483 [Eh]

	 ================> DF-SCS-MP2 Energies <==================
	-----------------------------------------------------------
	 SCS Same-Spin Scale       =       0.3333333333333333 [-]
	 SCS Opposite-Spin Scale   =       1.2000000000000000 [-]
	 SCS Same-Spin Energy      =      -0.0848920475815808 [Eh]
	 SCS Opposite-Spin Energy  =      -0.9503581314414942 [Eh]
	 SCS Correlation Energy    =      -1.0352501790230750 [Eh]
	 SCS Total Energy          =    -266.7831462287580280 [Eh]
	-----------------------------------------------------------

  Dipole Moment: [D]
     X:    -1.3349      Y:    -0.8186      Z:    -0.0003     Total:     1.5659

*** Psi4 exiting successfully. Buy a developer a beer!
