                               Psi4 1.3.2 release

  ==> Input File <==

--------------------------------------------------------------------------
#psi4
#
memory 32 gb

molecule  {
0 1
  O        1.5280220    -0.7684950     0.0001570
  O        0.6145710     1.3078690     0.0000680
  C       -0.8109530    -0.6383160    -0.0001140
  C        0.3017589    -0.0035150    -0.0004020
  C       -1.9669030     0.0367350     0.0001300
  H       -0.7664070    -1.7224440    -0.0001000
  H       -2.9239270    -0.4730490     0.0003210
  H       -1.9656330     1.1220070     0.0001100
  H        2.3294960    -0.2055650     0.0004620
units angstrom
no_reorient  #important for SAPT in psi4, default
symmetry c1  #important for SAPT in psi4, default
}

set PROPERTIES_ORIGIN ["COM"]
properties('MP2/aug-cc-pvtz', properties = ['dipole'])
--------------------------------------------------------------------------

    Molecular point group: c1
  Charge       = 0
  Multiplicity = 1
  Basis Set: AUG-CC-PVTZ
    Blend: AUG-CC-PVTZ
  Basis Set: (AUG-CC-PVTZ AUX)
    Blend: AUG-CC-PVTZ-JKFIT

    Orbital Energies [Eh]
    ---------------------

    Doubly Occupied:

       1A    -20.592078     2A    -20.528451     3A    -11.395484
       4A    -11.309723     5A    -11.257489     6A     -1.398428
       7A     -1.275249     8A     -1.141196     9A     -0.952547
      10A     -0.766352    11A     -0.739080    12A     -0.664089
      13A     -0.632866    14A     -0.595267    15A     -0.591265
      16A     -0.544621    17A     -0.471100    18A     -0.432272
      19A     -0.401223

  @DF-RHF Final Energy:  -265.68032454477856

   => Energetics <=

    Nuclear Repulsion Energy =            161.4042436240550273
    One-Electron Energy =                -682.7915770634781438
    Two-Electron Energy =                 255.7070088946446162
    Total Energy =                       -265.6803245447785571
  Basis Set: (AUG-CC-PVTZ AUX)
    Blend: AUG-CC-PVTZ-RI
    Molecular point group: c1

    Geometry (in Angstrom), charge = 0, multiplicity = 1:

       Center              X                  Y                   Z               Mass
    ------------   -----------------  -----------------  -----------------  -----------------
         O            1.511291824185    -0.769564539778     0.000160248199    15.994914619570
         O            0.597840824185     1.306799460222     0.000071248199    15.994914619570
         C           -0.827683175815    -0.639385539778    -0.000110751801    12.000000000000
         C            0.285028724185    -0.004584539778    -0.000398751801    12.000000000000
         C           -1.983633175815     0.035665460222     0.000133248199    12.000000000000
         H           -0.783137175815    -1.723513539778    -0.000096751801     1.007825032230
         H           -2.940657175815    -0.474118539778     0.000324248199     1.007825032230
         H           -1.982363175815     1.120937460222     0.000113248199     1.007825032230
         H            2.312765824185    -0.206634539778     0.000465248199     1.007825032230

  Basis Set: AUG-CC-PVTZ
    Blend: AUG-CC-PVTZ
  Basis Set: (AUG-CC-PVTZ AUX)
    Blend: AUG-CC-PVTZ-JKFIT
	 Reference Energy          =    -265.6803245447785571 [Eh]
	 Singles Energy            =      -0.0000000000000000 [Eh]
	 Same-Spin Energy          =      -0.2599618823793080 [Eh]
	 Opposite-Spin Energy      =      -0.8016357073652002 [Eh]
	 Correlation Energy        =      -1.0615975897445082 [Eh]
	 Total Energy              =    -266.7419221345230653 [Eh]

	 ================> DF-SCS-MP2 Energies <==================
	-----------------------------------------------------------
	 SCS Same-Spin Scale       =       0.3333333333333333 [-]
	 SCS Opposite-Spin Scale   =       1.2000000000000000 [-]
	 SCS Same-Spin Energy      =      -0.0866539607931026 [Eh]
	 SCS Opposite-Spin Energy  =      -0.9619628488382401 [Eh]
	 SCS Correlation Energy    =      -1.0486168096313428 [Eh]
	 SCS Total Energy          =    -266.7289413544099261 [Eh]
	-----------------------------------------------------------

  Dipole Moment: [D]
     X:    -2.0007      Y:    -1.7022      Z:     0.0001     Total:     2.6269

*** Psi4 exiting successfully. Buy a developer a beer!
