                               Psi4 1.3.2 release

  ==> Input File <==

--------------------------------------------------------------------------
#psi4
#
memory 32 gb

molecule  {
0 1
  O        1.5280220    -0.7684950     0.0001570
  O        0.6145710     1.3078690     0.0000680
  C       -0.8109530    -0.6383160    -0.0001140
  C        0.5623361     0.1451440    -0.0004695
  C       -1.9669030     0.0367350     0.0001300
  H       -0.7664070    -1.7224440    -0.0001000
  H       -2.9239270    -0.4730490     0.0003210
  H       -1.9656330     1.1220070     0.0001100
  H        2.3294960    -0.2055650     0.0004620
units angstrom
no_reorient  #important for SAPT in psi4, default
symmetry c1  #important for SAPT in psi4, default
}

set PROPERTIES_ORIGIN ["COM"]
properties('MP2/aug-cc-pvtz', properties = ['dipole'])
--------------------------------------------------------------------------

    Molecular point group: c1
  Charge       = 0
  Multiplicity = 1
  Basis Set: AUG-CC-PVTZ
    Blend: AUG-CC-PVTZ
  Basis Set: (AUG-CC-PVTZ AUX)
    Blend: AUG-CC-PVTZ-JKFIT

    Orbital Energies [Eh]
    ---------------------

    Doubly Occupied:

       1A    -20.629963     2A    -20.559471     3A    -11.393010
       4A    -11.253780     5A    -11.252084     6A     -1.490503
       7A     -1.398688     8A     -1.060109     9A     -0.890142
      10A     -0.771393    11A     -0.722474    12A     -0.705939
      13A     -0.652378    14A     -0.635870    15A     -0.589820
      16A     -0.549047    17A     -0.509953    18A     -0.452908
      19A     -0.391272

  @DF-RHF Final Energy:  -265.75087826354388

   => Energetics <=

    Nuclear Repulsion Energy =            162.0878170192677032
    One-Electron Energy =                -683.8597822151299397
    Two-Electron Energy =                 256.0210869323183260
    Total Energy =                       -265.7508782635438820
  Basis Set: (AUG-CC-PVTZ AUX)
    Blend: AUG-CC-PVTZ-RI
    Molecular point group: c1

    Geometry (in Angstrom), charge = 0, multiplicity = 1:

       Center              X                  Y                   Z               Mass
    ------------   -----------------  -----------------  -----------------  -----------------
         O            1.467875032093    -0.794333770914     0.000171494898    15.994914619570
         O            0.554424032093     1.282030229086     0.000082494898    15.994914619570
         C           -0.871099967907    -0.664154770914    -0.000099505102    12.000000000000
         C            0.502189132093     0.119305229086    -0.000455005102    12.000000000000
         C           -2.027049967907     0.010896229086     0.000144494898    12.000000000000
         H           -0.826553967907    -1.748282770914    -0.000085505102     1.007825032230
         H           -2.984073967907    -0.498887770914     0.000335494898     1.007825032230
         H           -2.025779967907     1.096168229086     0.000124494898     1.007825032230
         H            2.269349032093    -0.231403770914     0.000476494898     1.007825032230

  Basis Set: AUG-CC-PVTZ
    Blend: AUG-CC-PVTZ
  Basis Set: (AUG-CC-PVTZ AUX)
    Blend: AUG-CC-PVTZ-JKFIT
	 Reference Energy          =    -265.7508782635438820 [Eh]
	 Singles Energy            =      -0.0000000000000000 [Eh]
	 Same-Spin Energy          =      -0.2532320112765624 [Eh]
	 Opposite-Spin Energy      =      -0.7889392991566032 [Eh]
	 Correlation Energy        =      -1.0421713104331656 [Eh]
	 Total Energy              =    -266.7930495739770436 [Eh]

	 ================> DF-SCS-MP2 Energies <==================
	-----------------------------------------------------------
	 SCS Same-Spin Scale       =       0.3333333333333333 [-]
	 SCS Opposite-Spin Scale   =       1.2000000000000000 [-]
	 SCS Same-Spin Energy      =      -0.0844106704255208 [Eh]
	 SCS Opposite-Spin Energy  =      -0.9467271589879238 [Eh]
	 SCS Correlation Energy    =      -1.0311378294134446 [Eh]
	 SCS Total Energy          =    -266.7820160929573490 [Eh]
	-----------------------------------------------------------

  Dipole Moment: [D]
     X:     0.1175      Y:    -1.1441      Z:    -0.0002     Total:     1.1501

*** Psi4 exiting successfully. Buy a developer a beer!
