                               Psi4 1.3.2 release

  ==> Input File <==

--------------------------------------------------------------------------
#psi4
#
memory 32 gb

molecule  {
0 1
  O        1.5280220    -0.7684950     0.0001570
  O        0.6145710     1.3078690     0.0000680
  C       -0.8109530    -0.6383160    -0.0001140
  C        0.4605569     0.0770899    -0.0004517
  C       -1.9669030     0.0367350     0.0001300
  H       -0.7664070    -1.7224440    -0.0001000
  H       -2.9239270    -0.4730490     0.0003210
  H       -1.9656330     1.1220070     0.0001100
  H        2.3294960    -0.2055650     0.0004620
units angstrom
no_reorient  #important for SAPT in psi4, default
symmetry c1  #important for SAPT in psi4, default
}

set PROPERTIES_ORIGIN ["COM"]
properties('MP2/aug-cc-pvtz', properties = ['dipole'])
--------------------------------------------------------------------------

    Molecular point group: c1
  Charge       = 0
  Multiplicity = 1
  Basis Set: AUG-CC-PVTZ
    Blend: AUG-CC-PVTZ
  Basis Set: (AUG-CC-PVTZ AUX)
    Blend: AUG-CC-PVTZ-JKFIT

    Orbital Energies [Eh]
    ---------------------

    Doubly Occupied:

       1A    -20.618069     2A    -20.546344     3A    -11.395674
       4A    -11.272335     5A    -11.258479     6A     -1.456157
       7A     -1.344751     8A     -1.087917     9A     -0.912186
      10A     -0.773646    11A     -0.716500    12A     -0.696343
      13A     -0.627668    14A     -0.621377    15A     -0.600430
      16A     -0.551372    17A     -0.485547    18A     -0.457627
      19A     -0.401470

  @DF-RHF Final Energy:  -265.75522725395297

   => Energetics <=

    Nuclear Repulsion Energy =            161.6671143035740386
    One-Electron Energy =                -683.1968984906329752
    Two-Electron Energy =                 255.7745569331059414
    Total Energy =                       -265.7552272539529667
  Basis Set: (AUG-CC-PVTZ AUX)
    Blend: AUG-CC-PVTZ-RI
    Molecular point group: c1

    Geometry (in Angstrom), charge = 0, multiplicity = 1:

       Center              X                  Y                   Z               Mass
    ------------   -----------------  -----------------  -----------------  -----------------
         O            1.484833255475    -0.782994748503     0.000168529102    15.994914619570
         O            0.571382255475     1.293369251497     0.000079529102    15.994914619570
         C           -0.854141744525    -0.652815748503    -0.000102470898    12.000000000000
         C            0.417368155475     0.062590151497    -0.000440170898    12.000000000000
         C           -2.010091744525     0.022235251497     0.000141529102    12.000000000000
         H           -0.809595744525    -1.736943748503    -0.000088470898     1.007825032230
         H           -2.967115744525    -0.487548748503     0.000332529102     1.007825032230
         H           -2.008821744525     1.107507251497     0.000121529102     1.007825032230
         H            2.286307255475    -0.220064748503     0.000473529102     1.007825032230

  Basis Set: AUG-CC-PVTZ
    Blend: AUG-CC-PVTZ
  Basis Set: (AUG-CC-PVTZ AUX)
    Blend: AUG-CC-PVTZ-JKFIT
	 Reference Energy          =    -265.7552272539529667 [Eh]
	 Singles Energy            =      -0.0000000000000000 [Eh]
	 Same-Spin Energy          =      -0.2550774608177816 [Eh]
	 Opposite-Spin Energy      =      -0.7924377330880445 [Eh]
	 Correlation Energy        =      -1.0475151939058263 [Eh]
	 Total Energy              =    -266.8027424478588046 [Eh]

	 ================> DF-SCS-MP2 Energies <==================
	-----------------------------------------------------------
	 SCS Same-Spin Scale       =       0.3333333333333333 [-]
	 SCS Opposite-Spin Scale   =       1.2000000000000000 [-]
	 SCS Same-Spin Energy      =      -0.0850258202725939 [Eh]
	 SCS Opposite-Spin Energy  =      -0.9509252797056534 [Eh]
	 SCS Correlation Energy    =      -1.0359510999782473 [Eh]
	 SCS Total Energy          =    -266.7911783539312296 [Eh]
	-----------------------------------------------------------

  Dipole Moment: [D]
     X:    -0.7018      Y:    -1.4783      Z:    -0.0001     Total:     1.6364

*** Psi4 exiting successfully. Buy a developer a beer!
