                               Psi4 1.3.2 release

  ==> Input File <==

--------------------------------------------------------------------------
#psi4
#
memory 32 gb

molecule  {
0 1
  O        1.5280220    -0.7684950     0.0001570
  O        0.5721784     1.3119848     0.0000927
  C       -0.8109530    -0.6383160    -0.0001140
  C        0.4754770     0.0955910    -0.0004470
  C       -1.9669030     0.0367350     0.0001300
  H       -0.7664070    -1.7224440    -0.0001000
  H       -2.9239270    -0.4730490     0.0003210
  H       -1.9656330     1.1220070     0.0001100
  H        2.3294960    -0.2055650     0.0004620
units angstrom
no_reorient  #important for SAPT in psi4, default
symmetry c1  #important for SAPT in psi4, default
}

set PROPERTIES_ORIGIN ["COM"]
properties('MP2/aug-cc-pvtz', properties = ['dipole'])
--------------------------------------------------------------------------

    Molecular point group: c1
  Charge       = 0
  Multiplicity = 1
  Basis Set: AUG-CC-PVTZ
    Blend: AUG-CC-PVTZ
  Basis Set: (AUG-CC-PVTZ AUX)
    Blend: AUG-CC-PVTZ-JKFIT

    Orbital Energies [Eh]
    ---------------------

    Doubly Occupied:

       1A    -20.621771     2A    -20.550598     3A    -11.395068
       4A    -11.266564     5A    -11.255773     6A     -1.460921
       7A     -1.360027     8A     -1.080547     9A     -0.906164
      10A     -0.771793    11A     -0.715490    12A     -0.700174
      13A     -0.631917    14A     -0.623226    15A     -0.599352
      16A     -0.549663    17A     -0.492833    18A     -0.459426
      19A     -0.398476

  @DF-RHF Final Energy:  -265.75738660315830

   => Energetics <=

    Nuclear Repulsion Energy =            161.8316751702208478
    One-Electron Energy =                -683.4985564563293110
    Two-Electron Energy =                 255.9094946829501964
    Total Energy =                       -265.7573866031582952
  Basis Set: (AUG-CC-PVTZ AUX)
    Blend: AUG-CC-PVTZ-RI
    Molecular point group: c1

    Geometry (in Angstrom), charge = 0, multiplicity = 1:

       Center              X                  Y                   Z               Mass
    ------------   -----------------  -----------------  -----------------  -----------------
         O            1.491762122349    -0.786991423813     0.000162260464    15.994914619570
         O            0.535918522349     1.293488376187     0.000097960464    15.994914619570
         C           -0.847212877651    -0.656812423813    -0.000108739536    12.000000000000
         C            0.439217122349     0.077094576187    -0.000441739536    12.000000000000
         C           -2.003162877651     0.018238576187     0.000135260464    12.000000000000
         H           -0.802666877651    -1.740940423813    -0.000094739536     1.007825032230
         H           -2.960186877651    -0.491545423813     0.000326260464     1.007825032230
         H           -2.001892877651     1.103510576187     0.000115260464     1.007825032230
         H            2.293236122349    -0.224061423813     0.000467260464     1.007825032230

  Basis Set: AUG-CC-PVTZ
    Blend: AUG-CC-PVTZ
  Basis Set: (AUG-CC-PVTZ AUX)
    Blend: AUG-CC-PVTZ-JKFIT
	 Reference Energy          =    -265.7573866031582952 [Eh]
	 Singles Energy            =      -0.0000000000000000 [Eh]
	 Same-Spin Energy          =      -0.2546738705447065 [Eh]
	 Opposite-Spin Energy      =      -0.7917416934285791 [Eh]
	 Correlation Energy        =      -1.0464155639732855 [Eh]
	 Total Energy              =    -266.8038021671316073 [Eh]

	 ================> DF-SCS-MP2 Energies <==================
	-----------------------------------------------------------
	 SCS Same-Spin Scale       =       0.3333333333333333 [-]
	 SCS Opposite-Spin Scale   =       1.2000000000000000 [-]
	 SCS Same-Spin Energy      =      -0.0848912901815688 [Eh]
	 SCS Opposite-Spin Energy  =      -0.9500900321142949 [Eh]
	 SCS Correlation Energy    =      -1.0349813222958637 [Eh]
	 SCS Total Energy          =    -266.7923679254541867 [Eh]
	-----------------------------------------------------------

  Dipole Moment: [D]
     X:    -0.4472      Y:    -1.3694      Z:    -0.0001     Total:     1.4406

*** Psi4 exiting successfully. Buy a developer a beer!
