                               Psi4 1.3.2 release

  ==> Input File <==

--------------------------------------------------------------------------
#psi4
#
memory 32 gb

molecule  {
0 1
  O        1.5280220    -0.7684950     0.0001570
  O        0.6145710     1.3078690     0.0000680
  C       -0.8109530    -0.6383160    -0.0001140
  C        0.4490804     0.1400397    -0.0004415
  C       -1.9669030     0.0367350     0.0001300
  H       -0.7664070    -1.7224440    -0.0001000
  H       -2.9239270    -0.4730490     0.0003210
  H       -1.9656330     1.1220070     0.0001100
  H        2.3294960    -0.2055650     0.0004620
units angstrom
no_reorient  #important for SAPT in psi4, default
symmetry c1  #important for SAPT in psi4, default
}

set PROPERTIES_ORIGIN ["COM"]
properties('MP2/aug-cc-pvtz', properties = ['dipole'])
--------------------------------------------------------------------------

    Molecular point group: c1
  Charge       = 0
  Multiplicity = 1
  Basis Set: AUG-CC-PVTZ
    Blend: AUG-CC-PVTZ
  Basis Set: (AUG-CC-PVTZ AUX)
    Blend: AUG-CC-PVTZ-JKFIT

    Orbital Energies [Eh]
    ---------------------

    Doubly Occupied:

       1A    -20.603818     2A    -20.559656     3A    -11.392503
       4A    -11.268850     5A    -11.259035     6A     -1.459697
       7A     -1.363491     8A     -1.085063     9A     -0.898908
      10A     -0.761930    11A     -0.717308    12A     -0.698962
      13A     -0.626511    14A     -0.626281    15A     -0.597969
      16A     -0.557957    17A     -0.497585    18A     -0.462498
      19A     -0.403365

  @DF-RHF Final Energy:  -265.75615823433009

   => Energetics <=

    Nuclear Repulsion Energy =            161.8832536117147356
    One-Electron Energy =                -683.5960541962210755
    Two-Electron Energy =                 255.9566423501762529
    Total Energy =                       -265.7561582343300870
  Basis Set: (AUG-CC-PVTZ AUX)
    Blend: AUG-CC-PVTZ-RI
    Molecular point group: c1

    Geometry (in Angstrom), charge = 0, multiplicity = 1:

       Center              X                  Y                   Z               Mass
    ------------   -----------------  -----------------  -----------------  -----------------
         O            1.486745444317    -0.793483303828     0.000166829601    15.994914619570
         O            0.573294444317     1.282880696172     0.000077829601    15.994914619570
         C           -0.852229555683    -0.663304303828    -0.000104170399    12.000000000000
         C            0.407803844317     0.115051396172    -0.000431670399    12.000000000000
         C           -2.008179555683     0.011746696172     0.000139829601    12.000000000000
         H           -0.807683555683    -1.747432303828    -0.000090170399     1.007825032230
         H           -2.965203555683    -0.498037303828     0.000330829601     1.007825032230
         H           -2.006909555683     1.097018696172     0.000119829601     1.007825032230
         H            2.288219444317    -0.230553303828     0.000471829601     1.007825032230

  Basis Set: AUG-CC-PVTZ
    Blend: AUG-CC-PVTZ
  Basis Set: (AUG-CC-PVTZ AUX)
    Blend: AUG-CC-PVTZ-JKFIT
	 Reference Energy          =    -265.7561582343300870 [Eh]
	 Singles Energy            =      -0.0000000000000000 [Eh]
	 Same-Spin Energy          =      -0.2541636615133530 [Eh]
	 Opposite-Spin Energy      =      -0.7908968377055920 [Eh]
	 Correlation Energy        =      -1.0450604992189452 [Eh]
	 Total Energy              =    -266.8012187335490353 [Eh]

	 ================> DF-SCS-MP2 Energies <==================
	-----------------------------------------------------------
	 SCS Same-Spin Scale       =       0.3333333333333333 [-]
	 SCS Opposite-Spin Scale   =       1.2000000000000000 [-]
	 SCS Same-Spin Energy      =      -0.0847212205044510 [Eh]
	 SCS Opposite-Spin Energy  =      -0.9490762052467104 [Eh]
	 SCS Correlation Energy    =      -1.0337974257511615 [Eh]
	 SCS Total Energy          =    -266.7899556600812616 [Eh]
	-----------------------------------------------------------

  Dipole Moment: [D]
     X:    -0.8599      Y:    -1.0269      Z:    -0.0002     Total:     1.3394

*** Psi4 exiting successfully. Buy a developer a beer!
