                               Psi4 1.3.2 release

  ==> Input File <==

--------------------------------------------------------------------------
#psi4
#
memory 32 gb

molecule  {
0 1
  O        1.5280220    -0.7684950     0.0001570
  O        0.6145710     1.3078690     0.0000680
  C       -0.8109530    -0.6383160    -0.0001140
  C        0.3208954     0.2224946    -0.0005357
  C       -1.9669030     0.0367350     0.0001300
  H       -0.7664070    -1.7224440    -0.0001000
  H       -2.9239270    -0.4730490     0.0003210
  H       -1.9656330     1.1220070     0.0001100
  H        2.3294960    -0.2055650     0.0004620
units angstrom
no_reorient  #important for SAPT in psi4, default
symmetry c1  #important for SAPT in psi4, default
}

set PROPERTIES_ORIGIN ["COM"]
properties('MP2/aug-cc-pvtz', properties = ['dipole'])
--------------------------------------------------------------------------

    Molecular point group: c1
  Charge       = 0
  Multiplicity = 1
  Basis Set: AUG-CC-PVTZ
    Blend: AUG-CC-PVTZ
  Basis Set: (AUG-CC-PVTZ AUX)
    Blend: AUG-CC-PVTZ-JKFIT

    Orbital Energies [Eh]
    ---------------------

    Doubly Occupied:

       1A    -20.580166     2A    -20.554257     3A    -11.393372
       4A    -11.282595     5A    -11.267679     6A     -1.489762
       7A     -1.308176     8A     -1.111797     9A     -0.901372
      10A     -0.760459    11A     -0.721466    12A     -0.697189
      13A     -0.630903    14A     -0.626228    15A     -0.585534
      16A     -0.575945    17A     -0.476873    18A     -0.447706
      19A     -0.418205

  @DF-RHF Final Energy:  -265.71988196200510

   => Energetics <=

    Nuclear Repulsion Energy =            162.1374096855779214
    One-Electron Energy =                -684.0552151267935415
    Two-Electron Energy =                 256.1979234792104876
    Total Energy =                       -265.7198819620051040
  Basis Set: (AUG-CC-PVTZ AUX)
    Blend: AUG-CC-PVTZ-RI
    Molecular point group: c1

    Geometry (in Angstrom), charge = 0, multiplicity = 1:

       Center              X                  Y                   Z               Mass
    ------------   -----------------  -----------------  -----------------  -----------------
         O            1.508103343221    -0.807221755428     0.000182524995    15.994914619570
         O            0.594652343221     1.269142244572     0.000093524995    15.994914619570
         C           -0.830871656779    -0.677042755428    -0.000088475005    12.000000000000
         C            0.300976743221     0.183767844572    -0.000510175005    12.000000000000
         C           -1.986821656779    -0.001991755428     0.000155524995    12.000000000000
         H           -0.786325656779    -1.761170755428    -0.000074475005     1.007825032230
         H           -2.943845656779    -0.511775755428     0.000346524995     1.007825032230
         H           -1.985551656779     1.083280244572     0.000135524995     1.007825032230
         H            2.309577343221    -0.244291755428     0.000487524995     1.007825032230

  Basis Set: AUG-CC-PVTZ
    Blend: AUG-CC-PVTZ
  Basis Set: (AUG-CC-PVTZ AUX)
    Blend: AUG-CC-PVTZ-JKFIT
	 Reference Energy          =    -265.7198819620051040 [Eh]
	 Singles Energy            =      -0.0000000000000000 [Eh]
	 Same-Spin Energy          =      -0.2553086769012203 [Eh]
	 Opposite-Spin Energy      =      -0.7932855591375561 [Eh]
	 Correlation Energy        =      -1.0485942360387763 [Eh]
	 Total Energy              =    -266.7684761980438566 [Eh]

	 ================> DF-SCS-MP2 Energies <==================
	-----------------------------------------------------------
	 SCS Same-Spin Scale       =       0.3333333333333333 [-]
	 SCS Opposite-Spin Scale   =       1.2000000000000000 [-]
	 SCS Same-Spin Energy      =      -0.0851028923004068 [Eh]
	 SCS Opposite-Spin Energy  =      -0.9519426709650672 [Eh]
	 SCS Correlation Energy    =      -1.0370455632654740 [Eh]
	 SCS Total Energy          =    -266.7569275252705552 [Eh]
	-----------------------------------------------------------

  Dipole Moment: [D]
     X:    -2.1375      Y:    -0.2329      Z:    -0.0005     Total:     2.1502

*** Psi4 exiting successfully. Buy a developer a beer!
