                               Psi4 1.3.2 release

  ==> Input File <==

--------------------------------------------------------------------------
#psi4
#
memory 32 gb

molecule  {
0 1
  O        1.5857337    -0.6929683     0.0001166
  O        0.6145710     1.3078690     0.0000680
  C       -0.8109530    -0.6383160    -0.0001140
  C        0.4754770     0.0955910    -0.0004470
  C       -1.9669030     0.0367350     0.0001300
  H       -0.7664070    -1.7224440    -0.0001000
  H       -2.9239270    -0.4730490     0.0003210
  H       -1.9656330     1.1220070     0.0001100
  H        2.3294960    -0.2055650     0.0004620
units angstrom
no_reorient  #important for SAPT in psi4, default
symmetry c1  #important for SAPT in psi4, default
}

set PROPERTIES_ORIGIN ["COM"]
properties('MP2/aug-cc-pvtz', properties = ['dipole'])
--------------------------------------------------------------------------

    Molecular point group: c1
  Charge       = 0
  Multiplicity = 1
  Basis Set: AUG-CC-PVTZ
    Blend: AUG-CC-PVTZ
  Basis Set: (AUG-CC-PVTZ AUX)
    Blend: AUG-CC-PVTZ-JKFIT

    Orbital Energies [Eh]
    ---------------------

    Doubly Occupied:

       1A    -20.604644     2A    -20.545896     3A    -11.395476
       4A    -11.272054     5A    -11.262660     6A     -1.471067
       7A     -1.357881     8A     -1.086530     9A     -0.919624
      10A     -0.790768    11A     -0.720091    12A     -0.697249
      13A     -0.630200    14A     -0.624862    15A     -0.603551
      16A     -0.551704    17A     -0.488754    18A     -0.457747
      19A     -0.402568

  @DF-RHF Final Energy:  -265.75442450060484

   => Energetics <=

    Nuclear Repulsion Energy =            162.0878612668791448
    One-Electron Energy =                -683.9179172712581476
    Two-Electron Energy =                 256.0756315037741615
    Total Energy =                       -265.7544245006048413
  Basis Set: (AUG-CC-PVTZ AUX)
    Blend: AUG-CC-PVTZ-RI
    Molecular point group: c1

    Geometry (in Angstrom), charge = 0, multiplicity = 1:

       Center              X                  Y                   Z               Mass
    ------------   -----------------  -----------------  -----------------  -----------------
         O            1.527242016966    -0.727324114779     0.000136318290    15.994914619570
         O            0.556079316966     1.273513185221     0.000087718290    15.994914619570
         C           -0.869444683034    -0.672671814779    -0.000094281710    12.000000000000
         C            0.416985316966     0.061235185221    -0.000427281710    12.000000000000
         C           -2.025394683034     0.002379185221     0.000149718290    12.000000000000
         H           -0.824898683034    -1.756799814779    -0.000080281710     1.007825032230
         H           -2.982418683034    -0.507404814779     0.000340718290     1.007825032230
         H           -2.024124683034     1.087651185221     0.000129718290     1.007825032230
         H            2.271004316966    -0.239920814779     0.000481718290     1.007825032230

  Basis Set: AUG-CC-PVTZ
    Blend: AUG-CC-PVTZ
  Basis Set: (AUG-CC-PVTZ AUX)
    Blend: AUG-CC-PVTZ-JKFIT
	 Reference Energy          =    -265.7544245006048413 [Eh]
	 Singles Energy            =      -0.0000000000000000 [Eh]
	 Same-Spin Energy          =      -0.2529466034763684 [Eh]
	 Opposite-Spin Energy      =      -0.7881046004377974 [Eh]
	 Correlation Energy        =      -1.0410512039141659 [Eh]
	 Total Energy              =    -266.7954757045189922 [Eh]

	 ================> DF-SCS-MP2 Energies <==================
	-----------------------------------------------------------
	 SCS Same-Spin Scale       =       0.3333333333333333 [-]
	 SCS Opposite-Spin Scale   =       1.2000000000000000 [-]
	 SCS Same-Spin Energy      =      -0.0843155344921228 [Eh]
	 SCS Opposite-Spin Energy  =      -0.9457255205253569 [Eh]
	 SCS Correlation Energy    =      -1.0300410550174797 [Eh]
	 SCS Total Energy          =    -266.7844655556223188 [Eh]
	-----------------------------------------------------------

  Dipole Moment: [D]
     X:    -0.7959      Y:    -1.4486      Z:    -0.0001     Total:     1.6529

*** Psi4 exiting successfully. Buy a developer a beer!
