                               Psi4 1.3.2 release

  ==> Input File <==

--------------------------------------------------------------------------
#psi4
#
memory 32 gb

molecule  {
0 1
  O        1.5280220    -0.7684950     0.0001570
  O        0.4870915     1.3157673     0.0001402
  C       -0.8109530    -0.6383160    -0.0001140
  C        0.4754770     0.0955910    -0.0004470
  C       -1.9669030     0.0367350     0.0001300
  H       -0.7664070    -1.7224440    -0.0001000
  H       -2.9239270    -0.4730490     0.0003210
  H       -1.9656330     1.1220070     0.0001100
  H        2.3294960    -0.2055650     0.0004620
units angstrom
no_reorient  #important for SAPT in psi4, default
symmetry c1  #important for SAPT in psi4, default
}

set PROPERTIES_ORIGIN ["COM"]
properties('MP2/aug-cc-pvtz', properties = ['dipole'])
--------------------------------------------------------------------------

    Molecular point group: c1
  Charge       = 0
  Multiplicity = 1
  Basis Set: AUG-CC-PVTZ
    Blend: AUG-CC-PVTZ
  Basis Set: (AUG-CC-PVTZ AUX)
    Blend: AUG-CC-PVTZ-JKFIT

    Orbital Energies [Eh]
    ---------------------

    Doubly Occupied:

       1A    -20.628430     2A    -20.551570     3A    -11.395779
       4A    -11.262376     5A    -11.251191     6A     -1.461920
       7A     -1.365975     8A     -1.076056     9A     -0.905434
      10A     -0.771714    11A     -0.716006    12A     -0.701359
      13A     -0.634384    14A     -0.623022    15A     -0.598458
      16A     -0.545853    17A     -0.496823    18A     -0.458364
      19A     -0.394311

  @DF-RHF Final Energy:  -265.75393172311817

   => Energetics <=

    Nuclear Repulsion Energy =            162.0575903232421524
    One-Electron Energy =                -683.9449951193782908
    Two-Electron Energy =                 256.1334730730179672
    Total Energy =                       -265.7539317231181712
  Basis Set: (AUG-CC-PVTZ AUX)
    Blend: AUG-CC-PVTZ-RI
    Molecular point group: c1

    Geometry (in Angstrom), charge = 0, multiplicity = 1:

       Center              X                  Y                   Z               Mass
    ------------   -----------------  -----------------  -----------------  -----------------
         O            1.510658767162    -0.787831465688     0.000151711359    15.994914619570
         O            0.469728267162     1.296430834312     0.000134911359    15.994914619570
         C           -0.828316232838    -0.657652465688    -0.000119288641    12.000000000000
         C            0.458113767162     0.076254534312    -0.000452288641    12.000000000000
         C           -1.984266232838     0.017398534312     0.000124711359    12.000000000000
         H           -0.783770232838    -1.741780465688    -0.000105288641     1.007825032230
         H           -2.941290232838    -0.492385465688     0.000315711359     1.007825032230
         H           -1.982996232838     1.102670534312     0.000104711359     1.007825032230
         H            2.312132767162    -0.224901465688     0.000456711359     1.007825032230

  Basis Set: AUG-CC-PVTZ
    Blend: AUG-CC-PVTZ
  Basis Set: (AUG-CC-PVTZ AUX)
    Blend: AUG-CC-PVTZ-JKFIT
	 Reference Energy          =    -265.7539317231181712 [Eh]
	 Singles Energy            =      -0.0000000000000000 [Eh]
	 Same-Spin Energy          =      -0.2549743781874019 [Eh]
	 Opposite-Spin Energy      =      -0.7923720230639190 [Eh]
	 Correlation Energy        =      -1.0473464012513209 [Eh]
	 Total Energy              =    -266.8012781243695031 [Eh]

	 ================> DF-SCS-MP2 Energies <==================
	-----------------------------------------------------------
	 SCS Same-Spin Scale       =       0.3333333333333333 [-]
	 SCS Opposite-Spin Scale   =       1.2000000000000000 [-]
	 SCS Same-Spin Energy      =      -0.0849914593958006 [Eh]
	 SCS Opposite-Spin Energy  =      -0.9508464276767027 [Eh]
	 SCS Correlation Energy    =      -1.0358378870725033 [Eh]
	 SCS Total Energy          =    -266.7897696101906604 [Eh]
	-----------------------------------------------------------

  Dipole Moment: [D]
     X:    -0.1594      Y:    -1.3403      Z:    -0.0002     Total:     1.3497

*** Psi4 exiting successfully. Buy a developer a beer!
