                               Psi4 1.3.2 release

  ==> Input File <==

--------------------------------------------------------------------------
#psi4
#
memory 32 gb

molecule  {
0 1
  O        1.5281450    -0.7681140     0.0000130
  O        0.6140580     1.3077470    -0.0000100
  C       -0.8107600    -0.6385920    -0.0000170
  C        0.4581958     0.0852811    -0.0000052
  C       -1.9665160     0.0368920     0.0000130
  H       -0.7670810    -1.7227100    -0.0000460
  H       -2.9234270    -0.4732330     0.0000090
  H       -1.9658970     1.1221510     0.0000420
  H        2.3290270    -0.2042190     0.0000210
units angstrom
no_reorient  #important for SAPT in psi4, default
symmetry c1  #important for SAPT in psi4, default
}

set PROPERTIES_ORIGIN ["COM"]
properties('MP2/aug-cc-pvtz', properties = ['dipole'])
--------------------------------------------------------------------------

    Molecular point group: c1
  Charge       = 0
  Multiplicity = 1
  Basis Set: AUG-CC-PVTZ
    Blend: AUG-CC-PVTZ
  Basis Set: (AUG-CC-PVTZ AUX)
    Blend: AUG-CC-PVTZ-JKFIT

    Orbital Energies [Eh]
    ---------------------

    Doubly Occupied:

       1A    -20.616086     2A    -20.548093     3A    -11.395254
       4A    -11.271977     5A    -11.258518     6A     -1.454743
       7A     -1.348453     8A     -1.087742     9A     -0.910471
      10A     -0.771693    11A     -0.716699    12A     -0.696245
      13A     -0.626768    14A     -0.621433    15A     -0.600751
      16A     -0.552529    17A     -0.487355    18A     -0.458646
      19A     -0.401853

  @DF-RHF Final Energy:  -265.75601492372732

   => Energetics <=

    Nuclear Repulsion Energy =            161.7011569530255315
    One-Electron Energy =                -683.2637224252564465
    Two-Electron Energy =                 255.8065505485036510
    Total Energy =                       -265.7560149237273208
  Basis Set: (AUG-CC-PVTZ AUX)
    Blend: AUG-CC-PVTZ-RI
    Molecular point group: c1

    Geometry (in Angstrom), charge = 0, multiplicity = 1:

       Center              X                  Y                   Z               Mass
    ------------   -----------------  -----------------  -----------------  -----------------
         O            1.485352324160    -0.784030794053     0.000013502794    15.994914619570
         O            0.571265324160     1.291830205947    -0.000009497206    15.994914619570
         C           -0.853552675840    -0.654508794053    -0.000016497206    12.000000000000
         C            0.415403124160     0.069364305947    -0.000004697206    12.000000000000
         C           -2.009308675840     0.020975205947     0.000013502794    12.000000000000
         H           -0.809873675840    -1.738626794053    -0.000045497206     1.007825032230
         H           -2.966219675840    -0.489149794053     0.000009502794     1.007825032230
         H           -2.008689675840     1.106234205947     0.000042502794     1.007825032230
         H            2.286234324160    -0.220135794053     0.000021502794     1.007825032230

  Basis Set: AUG-CC-PVTZ
    Blend: AUG-CC-PVTZ
  Basis Set: (AUG-CC-PVTZ AUX)
    Blend: AUG-CC-PVTZ-JKFIT
	 Reference Energy          =    -265.7560149237273208 [Eh]
	 Singles Energy            =      -0.0000000000000000 [Eh]
	 Same-Spin Energy          =      -0.2549623217264761 [Eh]
	 Opposite-Spin Energy      =      -0.7922412701989621 [Eh]
	 Correlation Energy        =      -1.0472035919254381 [Eh]
	 Total Energy              =    -266.8032185156527589 [Eh]

	 ================> DF-SCS-MP2 Energies <==================
	-----------------------------------------------------------
	 SCS Same-Spin Scale       =       0.3333333333333333 [-]
	 SCS Opposite-Spin Scale   =       1.2000000000000000 [-]
	 SCS Same-Spin Energy      =      -0.0849874405754920 [Eh]
	 SCS Opposite-Spin Energy  =      -0.9506895242387544 [Eh]
	 SCS Correlation Energy    =      -1.0356769648142465 [Eh]
	 SCS Total Energy          =    -266.7916918885415498 [Eh]
	-----------------------------------------------------------

  Dipole Moment: [D]
     X:    -0.7294      Y:    -1.4188      Z:     0.0000     Total:     1.5953

*** Psi4 exiting successfully. Buy a developer a beer!
