                               Psi4 1.3.2 release

  ==> Input File <==

--------------------------------------------------------------------------
#psi4
#
memory 32 gb

molecule  {
0 1
  O        1.5280220    -0.7684950     0.0001570
  O        0.6145710     1.3078690     0.0000680
  C       -0.8109530    -0.6383160    -0.0001140
  C        0.3917156     0.2260391    -0.0004294
  C       -1.9669030     0.0367350     0.0001300
  H       -0.7664070    -1.7224440    -0.0001000
  H       -2.9239270    -0.4730490     0.0003210
  H       -1.9656330     1.1220070     0.0001100
  H        2.3294960    -0.2055650     0.0004620
units angstrom
no_reorient  #important for SAPT in psi4, default
symmetry c1  #important for SAPT in psi4, default
}

set PROPERTIES_ORIGIN ["COM"]
properties('MP2/aug-cc-pvtz', properties = ['dipole'])
--------------------------------------------------------------------------

    Molecular point group: c1
  Charge       = 0
  Multiplicity = 1
  Basis Set: AUG-CC-PVTZ
    Blend: AUG-CC-PVTZ
  Basis Set: (AUG-CC-PVTZ AUX)
    Blend: AUG-CC-PVTZ-JKFIT

    Orbital Energies [Eh]
    ---------------------

    Doubly Occupied:

       1A    -20.578888     2A    -20.571349     3A    -11.388784
       4A    -11.270946     5A    -11.263606     6A     -1.505293
       7A     -1.333657     8A     -1.091730     9A     -0.887667
      10A     -0.757935    11A     -0.720749    12A     -0.705168
      13A     -0.640375    14A     -0.633284    15A     -0.587462
      16A     -0.567817    17A     -0.492220    18A     -0.455903
      19A     -0.409473

  @DF-RHF Final Energy:  -265.73006145395294

   => Energetics <=

    Nuclear Repulsion Energy =            162.2941153393846321
    One-Electron Energy =                -684.3237401364286825
    Two-Electron Energy =                 256.2995633430911653
    Total Energy =                       -265.7300614539529420
  Basis Set: (AUG-CC-PVTZ AUX)
    Blend: AUG-CC-PVTZ-RI
    Molecular point group: c1

    Geometry (in Angstrom), charge = 0, multiplicity = 1:

       Center              X                  Y                   Z               Mass
    ------------   -----------------  -----------------  -----------------  -----------------
         O            1.496303439395    -0.807812332116     0.000164813526    15.994914619570
         O            0.582852439395     1.268551667884     0.000075813526    15.994914619570
         C           -0.842671560605    -0.677633332116    -0.000106186474    12.000000000000
         C            0.359997039395     0.186721767884    -0.000421586474    12.000000000000
         C           -1.998621560605    -0.002582332116     0.000137813526    12.000000000000
         H           -0.798125560605    -1.761761332116    -0.000092186474     1.007825032230
         H           -2.955645560605    -0.512366332116     0.000328813526     1.007825032230
         H           -1.997351560605     1.082689667884     0.000117813526     1.007825032230
         H            2.297777439395    -0.244882332116     0.000469813526     1.007825032230

  Basis Set: AUG-CC-PVTZ
    Blend: AUG-CC-PVTZ
  Basis Set: (AUG-CC-PVTZ AUX)
    Blend: AUG-CC-PVTZ-JKFIT
	 Reference Energy          =    -265.7300614539529420 [Eh]
	 Singles Energy            =      -0.0000000000000000 [Eh]
	 Same-Spin Energy          =      -0.2537504822682843 [Eh]
	 Opposite-Spin Energy      =      -0.7903772004392557 [Eh]
	 Correlation Energy        =      -1.0441276827075401 [Eh]
	 Total Energy              =    -266.7741891366604818 [Eh]

	 ================> DF-SCS-MP2 Energies <==================
	-----------------------------------------------------------
	 SCS Same-Spin Scale       =       0.3333333333333333 [-]
	 SCS Opposite-Spin Scale   =       1.2000000000000000 [-]
	 SCS Same-Spin Energy      =      -0.0845834940894281 [Eh]
	 SCS Opposite-Spin Energy  =      -0.9484526405271069 [Eh]
	 SCS Correlation Energy    =      -1.0330361346165349 [Eh]
	 SCS Total Energy          =    -266.7630975885694511 [Eh]
	-----------------------------------------------------------

  Dipole Moment: [D]
     X:    -1.4790      Y:    -0.2973      Z:    -0.0003     Total:     1.5086

*** Psi4 exiting successfully. Buy a developer a beer!
