                               Psi4 1.3.2 release

  ==> Input File <==

--------------------------------------------------------------------------
#psi4
#
memory 32 gb

molecule  {
0 1
  O        1.5280220    -0.7684950     0.0001570
  O        0.6145710     1.3078690     0.0000680
  C       -0.8109530    -0.6383160    -0.0001140
  C        0.6491951     0.1946970    -0.0004920
  C       -1.9669030     0.0367350     0.0001300
  H       -0.7664070    -1.7224440    -0.0001000
  H       -2.9239270    -0.4730490     0.0003210
  H       -1.9656330     1.1220070     0.0001100
  H        2.3294960    -0.2055650     0.0004620
units angstrom
no_reorient  #important for SAPT in psi4, default
symmetry c1  #important for SAPT in psi4, default
}

set PROPERTIES_ORIGIN ["COM"]
properties('MP2/aug-cc-pvtz', properties = ['dipole'])
--------------------------------------------------------------------------

    Molecular point group: c1
  Charge       = 0
  Multiplicity = 1
  Basis Set: AUG-CC-PVTZ
    Blend: AUG-CC-PVTZ
  Basis Set: (AUG-CC-PVTZ AUX)
    Blend: AUG-CC-PVTZ-JKFIT

    Orbital Energies [Eh]
    ---------------------

    Doubly Occupied:

       1A    -20.642842     2A    -20.571651     3A    -11.395608
       4A    -11.243023     5A    -11.238048     6A     -1.521316
       7A     -1.440071     8A     -1.040468     9A     -0.878638
      10A     -0.771591    11A     -0.738405    12A     -0.712180
      13A     -0.676600    14A     -0.643049    15A     -0.582786
      16A     -0.550297    17A     -0.532014    18A     -0.428669
      19A     -0.379584

  @DF-RHF Final Energy:  -265.71741269784786

   => Energetics <=

    Nuclear Repulsion Energy =            162.4445723329625650
    One-Electron Energy =                -684.3502902790186226
    Two-Electron Energy =                 256.1883052482081666
    Total Energy =                       -265.7174126978478625
  Basis Set: (AUG-CC-PVTZ AUX)
    Blend: AUG-CC-PVTZ-RI
    Molecular point group: c1

    Geometry (in Angstrom), charge = 0, multiplicity = 1:

       Center              X                  Y                   Z               Mass
    ------------   -----------------  -----------------  -----------------  -----------------
         O            1.453402779171    -0.802590181293     0.000175243798    15.994914619570
         O            0.539951779171     1.273773818707     0.000086243798    15.994914619570
         C           -0.885572220829    -0.672411181293    -0.000095756202    12.000000000000
         C            0.574575879171     0.160601818707    -0.000473756202    12.000000000000
         C           -2.041522220829     0.002639818707     0.000148243798    12.000000000000
         H           -0.841026220829    -1.756539181293    -0.000081756202     1.007825032230
         H           -2.998546220829    -0.507144181293     0.000339243798     1.007825032230
         H           -2.040252220829     1.087911818707     0.000128243798     1.007825032230
         H            2.254876779171    -0.239660181293     0.000480243798     1.007825032230

  Basis Set: AUG-CC-PVTZ
    Blend: AUG-CC-PVTZ
  Basis Set: (AUG-CC-PVTZ AUX)
    Blend: AUG-CC-PVTZ-JKFIT
	 Reference Energy          =    -265.7174126978478625 [Eh]
	 Singles Energy            =      -0.0000000000000000 [Eh]
	 Same-Spin Energy          =      -0.2530047656750704 [Eh]
	 Opposite-Spin Energy      =      -0.7883522190223589 [Eh]
	 Correlation Energy        =      -1.0413569846974293 [Eh]
	 Total Energy              =    -266.7587696825452781 [Eh]

	 ================> DF-SCS-MP2 Energies <==================
	-----------------------------------------------------------
	 SCS Same-Spin Scale       =       0.3333333333333333 [-]
	 SCS Opposite-Spin Scale   =       1.2000000000000000 [-]
	 SCS Same-Spin Energy      =      -0.0843349218916901 [Eh]
	 SCS Opposite-Spin Energy  =      -0.9460226628268306 [Eh]
	 SCS Correlation Energy    =      -1.0303575847185207 [Eh]
	 SCS Total Energy          =    -266.7477702825663641 [Eh]
	-----------------------------------------------------------

  Dipole Moment: [D]
     X:     0.8644      Y:    -0.8429      Z:    -0.0002     Total:     1.2074

*** Psi4 exiting successfully. Buy a developer a beer!
