                               Psi4 1.3.2 release

  ==> Input File <==

--------------------------------------------------------------------------
#psi4
#
memory 32 gb

molecule  {
0 1
  O        1.4319344    -0.8737823     0.0002121
  O        0.6145710     1.3078690     0.0000680
  C       -0.8109530    -0.6383160    -0.0001140
  C        0.4754770     0.0955910    -0.0004470
  C       -1.9669030     0.0367350     0.0001300
  H       -0.7664070    -1.7224440    -0.0001000
  H       -2.9239270    -0.4730490     0.0003210
  H       -1.9656330     1.1220070     0.0001100
  H        2.3294960    -0.2055650     0.0004620
units angstrom
no_reorient  #important for SAPT in psi4, default
symmetry c1  #important for SAPT in psi4, default
}

set PROPERTIES_ORIGIN ["COM"]
properties('MP2/aug-cc-pvtz', properties = ['dipole'])
--------------------------------------------------------------------------

    Molecular point group: c1
  Charge       = 0
  Multiplicity = 1
  Basis Set: AUG-CC-PVTZ
    Blend: AUG-CC-PVTZ
  Basis Set: (AUG-CC-PVTZ AUX)
    Blend: AUG-CC-PVTZ-JKFIT

    Orbital Energies [Eh]
    ---------------------

    Doubly Occupied:

       1A    -20.634618     2A    -20.556589     3A    -11.395576
       4A    -11.263402     5A    -11.251554     6A     -1.450698
       7A     -1.358038     8A     -1.077072     9A     -0.892727
      10A     -0.756211    11A     -0.703999    12A     -0.698666
      13A     -0.632178    14A     -0.626506    15A     -0.582398
      16A     -0.550155    17A     -0.494161    18A     -0.460356
      19A     -0.397164

  @DF-RHF Final Energy:  -265.72986863202556

   => Energetics <=

    Nuclear Repulsion Energy =            161.4933223229302257
    One-Electron Energy =                -682.8822481965496536
    Two-Electron Energy =                 255.6590572415938709
    Total Energy =                       -265.7298686320255570
  Basis Set: (AUG-CC-PVTZ AUX)
    Blend: AUG-CC-PVTZ-RI
    Molecular point group: c1

    Geometry (in Angstrom), charge = 0, multiplicity = 1:

       Center              X                  Y                   Z               Mass
    ------------   -----------------  -----------------  -----------------  -----------------
         O            1.407599452547    -0.867981781250     0.000210609037    15.994914619570
         O            0.590236052547     1.313669518750     0.000066509037    15.994914619570
         C           -0.835287947453    -0.632515481250    -0.000115490963    12.000000000000
         C            0.451142052547     0.101391518750    -0.000448490963    12.000000000000
         C           -1.991237947453     0.042535518750     0.000128509037    12.000000000000
         H           -0.790741947453    -1.716643481250    -0.000101490963     1.007825032230
         H           -2.948261947453    -0.467248481250     0.000319509037     1.007825032230
         H           -1.989967947453     1.127807518750     0.000108509037     1.007825032230
         H            2.305161052547    -0.199764481250     0.000460509037     1.007825032230

  Basis Set: AUG-CC-PVTZ
    Blend: AUG-CC-PVTZ
  Basis Set: (AUG-CC-PVTZ AUX)
    Blend: AUG-CC-PVTZ-JKFIT
	 Reference Energy          =    -265.7298686320255570 [Eh]
	 Singles Energy            =      -0.0000000000000000 [Eh]
	 Same-Spin Energy          =      -0.2575494856599054 [Eh]
	 Opposite-Spin Energy      =      -0.7981141527530320 [Eh]
	 Correlation Energy        =      -1.0556636384129374 [Eh]
	 Total Energy              =    -266.7855322704384662 [Eh]

	 ================> DF-SCS-MP2 Energies <==================
	-----------------------------------------------------------
	 SCS Same-Spin Scale       =       0.3333333333333333 [-]
	 SCS Opposite-Spin Scale   =       1.2000000000000000 [-]
	 SCS Same-Spin Energy      =      -0.0858498285533018 [Eh]
	 SCS Opposite-Spin Energy  =      -0.9577369833036383 [Eh]
	 SCS Correlation Energy    =      -1.0435868118569402 [Eh]
	 SCS Total Energy          =    -266.7734554438824830 [Eh]
	-----------------------------------------------------------

  Dipole Moment: [D]
     X:    -0.3242      Y:    -1.2809      Z:    -0.0002     Total:     1.3213

*** Psi4 exiting successfully. Buy a developer a beer!
