                               Psi4 1.3.2 release

  ==> Input File <==

--------------------------------------------------------------------------
#psi4
#
memory 32 gb

molecule  {
0 1
  O        1.5280220    -0.7684950     0.0001570
  O        0.6145710     1.3078690     0.0000680
  C       -0.8109530    -0.6383160    -0.0001140
  C        0.4754770     0.0955910    -0.0004470
  C       -1.9669030     0.0367350     0.0001300
  H       -0.7664070    -1.7224440    -0.0001000
  H       -2.9239270    -0.4730490     0.0003210
  H       -1.9656330     1.1220070     0.0001100
  H        2.1658319    -0.3205175     0.0003997
units angstrom
no_reorient  #important for SAPT in psi4, default
symmetry c1  #important for SAPT in psi4, default
}

set PROPERTIES_ORIGIN ["COM"]
properties('MP2/aug-cc-pvtz', properties = ['dipole'])
--------------------------------------------------------------------------

    Molecular point group: c1
  Charge       = 0
  Multiplicity = 1
  Basis Set: AUG-CC-PVTZ
    Blend: AUG-CC-PVTZ
  Basis Set: (AUG-CC-PVTZ AUX)
    Blend: AUG-CC-PVTZ-JKFIT

    Orbital Energies [Eh]
    ---------------------

    Doubly Occupied:

       1A    -20.601173     2A    -20.554131     3A    -11.398737
       4A    -11.270231     5A    -11.259146     6A     -1.506522
       7A     -1.376185     8A     -1.087290     9A     -0.936558
      10A     -0.794879    11A     -0.728536    12A     -0.706829
      13A     -0.638735    14A     -0.627117    15A     -0.611851
      16A     -0.554963    17A     -0.497858    18A     -0.463309
      19A     -0.402026

  @DF-RHF Final Energy:  -265.71401976123013

   => Energetics <=

    Nuclear Repulsion Energy =            163.1250472723028793
    One-Electron Energy =                -685.6459793015075093
    Two-Electron Energy =                 256.8069122679745533
    Total Energy =                       -265.7140197612301336
  Basis Set: (AUG-CC-PVTZ AUX)
    Blend: AUG-CC-PVTZ-RI
    Molecular point group: c1

    Geometry (in Angstrom), charge = 0, multiplicity = 1:

       Center              X                  Y                   Z               Mass
    ------------   -----------------  -----------------  -----------------  -----------------
         O            1.484637529258    -0.784468776943     0.000168617791    15.994914619570
         O            0.571186529258     1.291895223057     0.000079617791    15.994914619570
         C           -0.854337470742    -0.654289776943    -0.000102382209    12.000000000000
         C            0.432092529258     0.079617223057    -0.000435382209    12.000000000000
         C           -2.010287470742     0.020761223057     0.000141617791    12.000000000000
         H           -0.809791470742    -1.738417776943    -0.000088382209     1.007825032230
         H           -2.967311470742    -0.489022776943     0.000332617791     1.007825032230
         H           -2.009017470742     1.106033223057     0.000121617791     1.007825032230
         H            2.122447429258    -0.336491276943     0.000411317791     1.007825032230

  Basis Set: AUG-CC-PVTZ
    Blend: AUG-CC-PVTZ
  Basis Set: (AUG-CC-PVTZ AUX)
    Blend: AUG-CC-PVTZ-JKFIT
	 Reference Energy          =    -265.7140197612301336 [Eh]
	 Singles Energy            =      -0.0000000000000000 [Eh]
	 Same-Spin Energy          =      -0.2521316887995330 [Eh]
	 Opposite-Spin Energy      =      -0.7861976794896474 [Eh]
	 Correlation Energy        =      -1.0383293682891803 [Eh]
	 Total Energy              =    -266.7523491295193026 [Eh]

	 ================> DF-SCS-MP2 Energies <==================
	-----------------------------------------------------------
	 SCS Same-Spin Scale       =       0.3333333333333333 [-]
	 SCS Opposite-Spin Scale   =       1.2000000000000000 [-]
	 SCS Same-Spin Energy      =      -0.0840438962665110 [Eh]
	 SCS Opposite-Spin Energy  =      -0.9434372153875767 [Eh]
	 SCS Correlation Energy    =      -1.0274811116540876 [Eh]
	 SCS Total Energy          =    -266.7415008728842167 [Eh]
	-----------------------------------------------------------

  Dipole Moment: [D]
     X:    -0.8559      Y:    -1.4354      Z:    -0.0002     Total:     1.6712

*** Psi4 exiting successfully. Buy a developer a beer!
