                               Psi4 1.3.2 release

  ==> Input File <==

--------------------------------------------------------------------------
#psi4
#
memory 32 gb

molecule  {
0 1
  O        1.5280220    -0.7684950     0.0001570
  O        0.7405266     1.2866888    -0.0000099
  C       -0.8109530    -0.6383160    -0.0001140
  C        0.4754770     0.0955910    -0.0004470
  C       -1.9669030     0.0367350     0.0001300
  H       -0.7664070    -1.7224440    -0.0001000
  H       -2.9239270    -0.4730490     0.0003210
  H       -1.9656330     1.1220070     0.0001100
  H        2.3294960    -0.2055650     0.0004620
units angstrom
no_reorient  #important for SAPT in psi4, default
symmetry c1  #important for SAPT in psi4, default
}

set PROPERTIES_ORIGIN ["COM"]
properties('MP2/aug-cc-pvtz', properties = ['dipole'])
--------------------------------------------------------------------------

    Molecular point group: c1
  Charge       = 0
  Multiplicity = 1
  Basis Set: AUG-CC-PVTZ
    Blend: AUG-CC-PVTZ
  Basis Set: (AUG-CC-PVTZ AUX)
    Blend: AUG-CC-PVTZ-JKFIT

    Orbital Energies [Eh]
    ---------------------

    Doubly Occupied:

       1A    -20.607451     2A    -20.547814     3A    -11.394023
       4A    -11.274280     5A    -11.264683     6A     -1.460535
       7A     -1.346537     8A     -1.088892     9A     -0.908000
      10A     -0.771733    11A     -0.714955    12A     -0.696731
      13A     -0.627435    14A     -0.624389    15A     -0.600777
      16A     -0.556048    17A     -0.484073    18A     -0.457564
      19A     -0.406159

  @DF-RHF Final Energy:  -265.75560350334240

   => Energetics <=

    Nuclear Repulsion Energy =            161.6170971734154307
    One-Electron Energy =                -683.0812414225915745
    Two-Electron Energy =                 255.7085407458336874
    Total Energy =                       -265.7556035033423996
  Basis Set: (AUG-CC-PVTZ AUX)
    Blend: AUG-CC-PVTZ-RI
    Molecular point group: c1

    Geometry (in Angstrom), charge = 0, multiplicity = 1:

       Center              X                  Y                   Z               Mass
    ------------   -----------------  -----------------  -----------------  -----------------
         O            1.454374273686    -0.781373525791     0.000185046531    15.994914619570
         O            0.666878873686     1.273810274209     0.000018146531    15.994914619570
         C           -0.884600726314    -0.651194525791    -0.000085953469    12.000000000000
         C            0.401829273686     0.082712474209    -0.000418953469    12.000000000000
         C           -2.040550726314     0.023856474209     0.000158046531    12.000000000000
         H           -0.840054726314    -1.735322525791    -0.000071953469     1.007825032230
         H           -2.997574726314    -0.485927525791     0.000349046531     1.007825032230
         H           -2.039280726314     1.109128474209     0.000138046531     1.007825032230
         H            2.255848273686    -0.218443525791     0.000490046531     1.007825032230

  Basis Set: AUG-CC-PVTZ
    Blend: AUG-CC-PVTZ
  Basis Set: (AUG-CC-PVTZ AUX)
    Blend: AUG-CC-PVTZ-JKFIT
	 Reference Energy          =    -265.7556035033423996 [Eh]
	 Singles Energy            =      -0.0000000000000000 [Eh]
	 Same-Spin Energy          =      -0.2543824224717807 [Eh]
	 Opposite-Spin Energy      =      -0.7910403534562948 [Eh]
	 Correlation Energy        =      -1.0454227759280754 [Eh]
	 Total Energy              =    -266.8010262792705021 [Eh]

	 ================> DF-SCS-MP2 Energies <==================
	-----------------------------------------------------------
	 SCS Same-Spin Scale       =       0.3333333333333333 [-]
	 SCS Opposite-Spin Scale   =       1.2000000000000000 [-]
	 SCS Same-Spin Energy      =      -0.0847941408239269 [Eh]
	 SCS Opposite-Spin Energy  =      -0.9492484241475536 [Eh]
	 SCS Correlation Energy    =      -1.0340425649714806 [Eh]
	 SCS Total Energy          =    -266.7896460683138571 [Eh]
	-----------------------------------------------------------

  Dipole Moment: [D]
     X:    -1.0161      Y:    -1.3756      Z:     0.0000     Total:     1.7102

*** Psi4 exiting successfully. Buy a developer a beer!
