                               Psi4 1.4a3.dev225

  ==> Input File <==

--------------------------------------------------------------------------
#psi4
#
memory 32 gb

molecule  {
0 1
  O        1.5281450    -0.7681140     0.0000130
  O        0.6140580     1.3077470    -0.0000100
  C       -0.8107600    -0.6385920    -0.0000170
  C        0.4321375     0.0704162    -0.0000054
  C       -1.9665160     0.0368920     0.0000130
  H       -0.7670810    -1.7227100    -0.0000460
  H       -2.9234270    -0.4732330     0.0000090
  H       -1.9658970     1.1221510     0.0000420
  H        2.3290270    -0.2042190     0.0000210
units angstrom
no_reorient  #important for SAPT in psi4, default
symmetry c1  #important for SAPT in psi4, default
}

set PROPERTIES_ORIGIN ["COM"]
properties('MP2/aug-cc-pvtz', properties = ['dipole'])
--------------------------------------------------------------------------

    Molecular point group: c1
  Charge       = 0
  Multiplicity = 1
  Basis Set: AUG-CC-PVTZ
    Blend: AUG-CC-PVTZ
  Basis Set: (AUG-CC-PVTZ AUX)
    Blend: AUG-CC-PVTZ-JKFIT

    Orbital Energies [Eh]
    ---------------------

    Doubly Occupied:

       1A    -20.612505     2A    -20.545302     3A    -11.396003
       4A    -11.277329     5A    -11.259009     6A     -1.445639
       7A     -1.335970     8A     -1.095668     9A     -0.916627
      10A     -0.771244    11A     -0.719596    12A     -0.690821
      13A     -0.620824    14A     -0.620350    15A     -0.600367
      16A     -0.554353    17A     -0.482770    18A     -0.456365
      19A     -0.403590

  @DF-RHF Final Energy:  -265.75074045980898

   => Energetics <=

    Nuclear Repulsion Energy =            161.6199050700788291
    One-Electron Energy =                -683.1326281866703312
    Two-Electron Energy =                 255.7619826567825214
    Total Energy =                       -265.7507404598089806
  Basis Set: (AUG-CC-PVTZ AUX)
    Blend: AUG-CC-PVTZ-RI
    Molecular point group: c1

    Geometry (in Angstrom), charge = 0, multiplicity = 1:

       Center              X                  Y                   Z               Mass
    ------------   -----------------  -----------------  -----------------  -----------------
         O            1.489694100007    -0.781554037557     0.000013536118    15.994914619570
         O            0.575607100007     1.294306962443    -0.000009463882    15.994914619570
         C           -0.849210899993    -0.652032037557    -0.000016463882    12.000000000000
         C            0.393686600007     0.056976162443    -0.000004863882    12.000000000000
         C           -2.004966899993     0.023451962443     0.000013536118    12.000000000000
         H           -0.805531899993    -1.736150037557    -0.000045463882     1.007825032230
         H           -2.961877899993    -0.486673037557     0.000009536118     1.007825032230
         H           -2.004347899993     1.108710962443     0.000042536118     1.007825032230
         H            2.290576100007    -0.217659037557     0.000021536118     1.007825032230

  Basis Set: AUG-CC-PVTZ
    Blend: AUG-CC-PVTZ
  Basis Set: (AUG-CC-PVTZ AUX)
    Blend: AUG-CC-PVTZ-JKFIT
	 Reference Energy          =    -265.7507404598089806 [Eh]
	 Singles Energy            =      -0.0000000000000000 [Eh]
	 Same-Spin Energy          =      -0.2556296738621192 [Eh]
	 Opposite-Spin Energy      =      -0.7934944682174242 [Eh]
	 Correlation Energy        =      -1.0491241420795434 [Eh]
	 Total Energy              =    -266.7998646018885438 [Eh]

	 ================> DF-SCS-MP2 Energies <==================
	-----------------------------------------------------------
	 SCS Same-Spin Scale       =       0.3333333333333333 [-]
	 SCS Opposite-Spin Scale   =       1.2000000000000000 [-]
	 SCS Same-Spin Energy      =      -0.0852098912873731 [Eh]
	 SCS Opposite-Spin Energy  =      -0.9521933618609090 [Eh]
	 SCS Correlation Energy    =      -1.0374032531482820 [Eh]
	 SCS Total Energy          =    -266.7881437129572646 [Eh]
	-----------------------------------------------------------

  Dipole Moment: [D]
     X:    -0.9403      Y:    -1.4751      Z:     0.0000     Total:     1.7493

*** Psi4 exiting successfully. Buy a developer a beer!
