                               Psi4 1.3.2 release

  ==> Input File <==

--------------------------------------------------------------------------
#psi4
#
memory 32 gb

molecule  {
0 1
  O        1.5280220    -0.7684950     0.0001570
  O        0.6145710     1.3078690     0.0000680
  C       -0.8109530    -0.6383160    -0.0001140
  C        0.5715645     0.2008784    -0.0004152
  C       -1.9669030     0.0367350     0.0001300
  H       -0.7664070    -1.7224440    -0.0001000
  H       -2.9239270    -0.4730490     0.0003210
  H       -1.9656330     1.1220070     0.0001100
  H        2.3294960    -0.2055650     0.0004620
units angstrom
no_reorient  #important for SAPT in psi4, default
symmetry c1  #important for SAPT in psi4, default
}

set PROPERTIES_ORIGIN ["COM"]
properties('MP2/aug-cc-pvtz', properties = ['dipole'])
--------------------------------------------------------------------------

    Molecular point group: c1
  Charge       = 0
  Multiplicity = 1
  Basis Set: AUG-CC-PVTZ
    Blend: AUG-CC-PVTZ
  Basis Set: (AUG-CC-PVTZ AUX)
    Blend: AUG-CC-PVTZ-JKFIT

    Orbital Energies [Eh]
    ---------------------

    Doubly Occupied:

       1A    -20.621805     2A    -20.571540     3A    -11.389796
       4A    -11.250485     5A    -11.247319     6A     -1.510325
       7A     -1.411411     8A     -1.053899     9A     -0.874909
      10A     -0.764465    11A     -0.728496    12A     -0.712185
      13A     -0.659883    14A     -0.642279    15A     -0.586632
      16A     -0.554598    17A     -0.523900    18A     -0.446620
      19A     -0.388489

  @DF-RHF Final Energy:  -265.73399505892610

   => Energetics <=

    Nuclear Repulsion Energy =            162.3989037502599331
    One-Electron Energy =                -684.3877281390094822
    Two-Electron Energy =                 256.2548293298234512
    Total Energy =                       -265.7339950589260980
  Basis Set: (AUG-CC-PVTZ AUX)
    Blend: AUG-CC-PVTZ-RI
    Molecular point group: c1

    Geometry (in Angstrom), charge = 0, multiplicity = 1:

       Center              X                  Y                   Z               Mass
    ------------   -----------------  -----------------  -----------------  -----------------
         O            1.466337416661    -0.803620112379     0.000162447554    15.994914619570
         O            0.552886416661     1.272743887621     0.000073447554    15.994914619570
         C           -0.872637583339    -0.673441112379    -0.000108552446    12.000000000000
         C            0.509879916661     0.165753287621    -0.000409752446    12.000000000000
         C           -2.028587583339     0.001609887621     0.000135447554    12.000000000000
         H           -0.828091583339    -1.757569112379    -0.000094552446     1.007825032230
         H           -2.985611583339    -0.508174112379     0.000326447554     1.007825032230
         H           -2.027317583339     1.086881887621     0.000115447554     1.007825032230
         H            2.267811416661    -0.240690112379     0.000467447554     1.007825032230

  Basis Set: AUG-CC-PVTZ
    Blend: AUG-CC-PVTZ
  Basis Set: (AUG-CC-PVTZ AUX)
    Blend: AUG-CC-PVTZ-JKFIT
	 Reference Energy          =    -265.7339950589260980 [Eh]
	 Singles Energy            =      -0.0000000000000000 [Eh]
	 Same-Spin Energy          =      -0.2525566615947498 [Eh]
	 Opposite-Spin Energy      =      -0.7877593539497758 [Eh]
	 Correlation Energy        =      -1.0403160155445255 [Eh]
	 Total Energy              =    -266.7743110744706314 [Eh]

	 ================> DF-SCS-MP2 Energies <==================
	-----------------------------------------------------------
	 SCS Same-Spin Scale       =       0.3333333333333333 [-]
	 SCS Opposite-Spin Scale   =       1.2000000000000000 [-]
	 SCS Same-Spin Energy      =      -0.0841855538649166 [Eh]
	 SCS Opposite-Spin Energy  =      -0.9453112247397309 [Eh]
	 SCS Correlation Energy    =      -1.0294967786046476 [Eh]
	 SCS Total Energy          =    -266.7634918375307507 [Eh]
	-----------------------------------------------------------

  Dipole Moment: [D]
     X:     0.1761      Y:    -0.7153      Z:    -0.0002     Total:     0.7367

*** Psi4 exiting successfully. Buy a developer a beer!
