                               Psi4 1.4a3.dev225

  ==> Input File <==

--------------------------------------------------------------------------
#psi4
#
memory 32 gb

molecule  {
0 1
  O        1.5281450    -0.7681140     0.0000130
  O        0.6140580     1.3077470    -0.0000100
  C       -0.8107600    -0.6385920    -0.0000170
  C        0.4929402     0.1051009    -0.0000048
  C       -1.9665160     0.0368920     0.0000130
  H       -0.7670810    -1.7227100    -0.0000460
  H       -2.9234270    -0.4732330     0.0000090
  H       -1.9658970     1.1221510     0.0000420
  H        2.3290270    -0.2042190     0.0000210
units angstrom
no_reorient  #important for SAPT in psi4, default
symmetry c1  #important for SAPT in psi4, default
}

set PROPERTIES_ORIGIN ["COM"]
properties('MP2/aug-cc-pvtz', properties = ['dipole'])
--------------------------------------------------------------------------

    Molecular point group: c1
  Charge       = 0
  Multiplicity = 1
  Basis Set: AUG-CC-PVTZ
    Blend: AUG-CC-PVTZ
  Basis Set: (AUG-CC-PVTZ AUX)
    Blend: AUG-CC-PVTZ-JKFIT

    Orbital Energies [Eh]
    ---------------------

    Doubly Occupied:

       1A    -20.620747     2A    -20.551730     3A    -11.394217
       4A    -11.265289     5A    -11.257322     6A     -1.466758
       7A     -1.365158     8A     -1.077853     9A     -0.902920
      10A     -0.771922    11A     -0.714627    12A     -0.702354
      13A     -0.634994    14A     -0.625850    15A     -0.598072
      16A     -0.550370    17A     -0.494237    18A     -0.459626
      19A     -0.398853

  @DF-RHF Final Energy:  -265.75885901123218

   => Energetics <=

    Nuclear Repulsion Energy =            161.8235311279129007
    One-Electron Energy =                -683.4589836255931914
    Two-Electron Energy =                 255.8765934864480585
    Total Energy =                       -265.7588590112321754
  Basis Set: (AUG-CC-PVTZ AUX)
    Blend: AUG-CC-PVTZ-RI
    Molecular point group: c1

    Geometry (in Angstrom), charge = 0, multiplicity = 1:

       Center              X                  Y                   Z               Mass
    ------------   -----------------  -----------------  -----------------  -----------------
         O            1.479563289696    -0.787333124940     0.000013436147    15.994914619570
         O            0.565476289696     1.288527875060    -0.000009563853    15.994914619570
         C           -0.859341710304    -0.657811124940    -0.000016563853    12.000000000000
         C            0.444358489696     0.085881775060    -0.000004363853    12.000000000000
         C           -2.015097710304     0.017672875060     0.000013436147    12.000000000000
         H           -0.815662710304    -1.741929124940    -0.000045563853     1.007825032230
         H           -2.972008710304    -0.492452124940     0.000009436147     1.007825032230
         H           -2.014478710304     1.102931875060     0.000042436147     1.007825032230
         H            2.280445289696    -0.223438124940     0.000021436147     1.007825032230

  Basis Set: AUG-CC-PVTZ
    Blend: AUG-CC-PVTZ
  Basis Set: (AUG-CC-PVTZ AUX)
    Blend: AUG-CC-PVTZ-JKFIT
	 Reference Energy          =    -265.7588590112321754 [Eh]
	 Singles Energy            =      -0.0000000000000000 [Eh]
	 Same-Spin Energy          =      -0.2542134877161408 [Eh]
	 Opposite-Spin Energy      =      -0.7908281395250705 [Eh]
	 Correlation Energy        =      -1.0450416272412113 [Eh]
	 Total Energy              =    -266.8039006384734080 [Eh]

	 ================> DF-SCS-MP2 Energies <==================
	-----------------------------------------------------------
	 SCS Same-Spin Scale       =       0.3333333333333333 [-]
	 SCS Opposite-Spin Scale   =       1.2000000000000000 [-]
	 SCS Same-Spin Energy      =      -0.0847378292387136 [Eh]
	 SCS Opposite-Spin Energy  =      -0.9489937674300846 [Eh]
	 SCS Correlation Energy    =      -1.0337315966687981 [Eh]
	 SCS Total Energy          =    -266.7925906079009906 [Eh]
	-----------------------------------------------------------

  Dipole Moment: [D]
     X:    -0.4486      Y:    -1.3369      Z:     0.0000     Total:     1.4102

*** Psi4 exiting successfully. Buy a developer a beer!
