                               Psi4 1.3.2 release

  ==> Input File <==

--------------------------------------------------------------------------
#psi4
#
memory 32 gb

molecule  {
0 1
  O        1.5280220    -0.7684950     0.0001570
  O        0.6145710     1.3078690     0.0000680
  C       -0.8109530    -0.6383160    -0.0001140
  C        0.3909214    -0.0191635    -0.0004722
  C       -1.9669030     0.0367350     0.0001300
  H       -0.7664070    -1.7224440    -0.0001000
  H       -2.9239270    -0.4730490     0.0003210
  H       -1.9656330     1.1220070     0.0001100
  H        2.3294960    -0.2055650     0.0004620
units angstrom
no_reorient  #important for SAPT in psi4, default
symmetry c1  #important for SAPT in psi4, default
}

set PROPERTIES_ORIGIN ["COM"]
properties('MP2/aug-cc-pvtz', properties = ['dipole'])
--------------------------------------------------------------------------

    Molecular point group: c1
  Charge       = 0
  Multiplicity = 1
  Basis Set: AUG-CC-PVTZ
    Blend: AUG-CC-PVTZ
  Basis Set: (AUG-CC-PVTZ AUX)
    Blend: AUG-CC-PVTZ-JKFIT

    Orbital Energies [Eh]
    ---------------------

    Doubly Occupied:

       1A    -20.616770     2A    -20.526121     3A    -11.397684
       4A    -11.293377     5A    -11.258028     6A     -1.441100
       7A     -1.281481     8A     -1.115115     9A     -0.940690
      10A     -0.784402    11A     -0.727928    12A     -0.680927
      13A     -0.634679    14A     -0.617279    15A     -0.589546
      16A     -0.539378    17A     -0.467793    18A     -0.437936
      19A     -0.397955

  @DF-RHF Final Energy:  -265.71533367329505

   => Energetics <=

    Nuclear Repulsion Energy =            161.3958035208198112
    One-Electron Energy =                -682.7258957203426917
    Two-Electron Energy =                 255.6147585262278028
    Total Energy =                       -265.7153336732950493
  Basis Set: (AUG-CC-PVTZ AUX)
    Blend: AUG-CC-PVTZ-RI
    Molecular point group: c1

    Geometry (in Angstrom), charge = 0, multiplicity = 1:

       Center              X                  Y                   Z               Mass
    ------------   -----------------  -----------------  -----------------  -----------------
         O            1.496435767228    -0.766957221597     0.000171944766    15.994914619570
         O            0.582984767228     1.309406778403     0.000082944766    15.994914619570
         C           -0.842539232772    -0.636778221597    -0.000099055234    12.000000000000
         C            0.359335167228    -0.017625721597    -0.000457255234    12.000000000000
         C           -1.998489232772     0.038272778403     0.000144944766    12.000000000000
         H           -0.797993232772    -1.720906221597    -0.000085055234     1.007825032230
         H           -2.955513232772    -0.471511221597     0.000335944766     1.007825032230
         H           -1.997219232772     1.123544778403     0.000124944766     1.007825032230
         H            2.297909767228    -0.204027221597     0.000476944766     1.007825032230

  Basis Set: AUG-CC-PVTZ
    Blend: AUG-CC-PVTZ
  Basis Set: (AUG-CC-PVTZ AUX)
    Blend: AUG-CC-PVTZ-JKFIT
	 Reference Energy          =    -265.7153336732950493 [Eh]
	 Singles Energy            =      -0.0000000000000000 [Eh]
	 Same-Spin Energy          =      -0.2581761335182015 [Eh]
	 Opposite-Spin Energy      =      -0.7980719069401039 [Eh]
	 Correlation Energy        =      -1.0562480404583052 [Eh]
	 Total Energy              =    -266.7715817137533350 [Eh]

	 ================> DF-SCS-MP2 Energies <==================
	-----------------------------------------------------------
	 SCS Same-Spin Scale       =       0.3333333333333333 [-]
	 SCS Opposite-Spin Scale   =       1.2000000000000000 [-]
	 SCS Same-Spin Energy      =      -0.0860587111727338 [Eh]
	 SCS Opposite-Spin Energy  =      -0.9576862883281246 [Eh]
	 SCS Correlation Energy    =      -1.0437449995008585 [Eh]
	 SCS Total Energy          =    -266.7590786727959085 [Eh]
	-----------------------------------------------------------

  Dipole Moment: [D]
     X:    -1.2007      Y:    -1.9412      Z:     0.0000     Total:     2.2826

*** Psi4 exiting successfully. Buy a developer a beer!
