                               Psi4 1.3.2 release

  ==> Input File <==

--------------------------------------------------------------------------
#psi4
#
memory 32 gb

molecule  {
0 1
  O        1.5280220    -0.7684950     0.0001570
  O        0.6145710     1.3078690     0.0000680
  C       -0.8109530    -0.6383160    -0.0001140
  C        0.4907177     0.1138288    -0.0004422
  C       -1.9669030     0.0367350     0.0001300
  H       -0.7664070    -1.7224440    -0.0001000
  H       -2.9239270    -0.4730490     0.0003210
  H       -1.9656330     1.1220070     0.0001100
  H        2.3294960    -0.2055650     0.0004620
units angstrom
no_reorient  #important for SAPT in psi4, default
symmetry c1  #important for SAPT in psi4, default
}

set PROPERTIES_ORIGIN ["COM"]
properties('MP2/aug-cc-pvtz', properties = ['dipole'])
--------------------------------------------------------------------------

    Molecular point group: c1
  Charge       = 0
  Multiplicity = 1
  Basis Set: AUG-CC-PVTZ
    Blend: AUG-CC-PVTZ
  Basis Set: (AUG-CC-PVTZ AUX)
    Blend: AUG-CC-PVTZ-JKFIT

    Orbital Energies [Eh]
    ---------------------

    Doubly Occupied:

       1A    -20.618623     2A    -20.553599     3A    -11.393782
       4A    -11.264935     5A    -11.257363     6A     -1.465916
       7A     -1.368395     8A     -1.077628     9A     -0.901036
      10A     -0.770084    11A     -0.714962    12A     -0.702249
      13A     -0.634238    14A     -0.626862    15A     -0.597705
      16A     -0.551437    17A     -0.496207    18A     -0.460296
      19A     -0.399111

  @DF-RHF Final Energy:  -265.75897689276144

   => Energetics <=

    Nuclear Repulsion Energy =            161.8383842753523538
    One-Electron Energy =                -683.4858673966276683
    Two-Electron Energy =                 255.8885062285138474
    Total Energy =                       -265.7589768927614386
  Basis Set: (AUG-CC-PVTZ AUX)
    Blend: AUG-CC-PVTZ-RI
    Molecular point group: c1

    Geometry (in Angstrom), charge = 0, multiplicity = 1:

       Center              X                  Y                   Z               Mass
    ------------   -----------------  -----------------  -----------------  -----------------
         O            1.479807930224    -0.789116102109     0.000166946233    15.994914619570
         O            0.566356930224     1.287247897891     0.000077946233    15.994914619570
         C           -0.859167069776    -0.658937102109    -0.000104053767    12.000000000000
         C            0.442503630224     0.093207697891    -0.000432253767    12.000000000000
         C           -2.015117069776     0.016113897891     0.000139946233    12.000000000000
         H           -0.814621069776    -1.743065102109    -0.000090053767     1.007825032230
         H           -2.972141069776    -0.493670102109     0.000330946233     1.007825032230
         H           -2.013847069776     1.101385897891     0.000119946233     1.007825032230
         H            2.281281930224    -0.226186102109     0.000471946233     1.007825032230

  Basis Set: AUG-CC-PVTZ
    Blend: AUG-CC-PVTZ
  Basis Set: (AUG-CC-PVTZ AUX)
    Blend: AUG-CC-PVTZ-JKFIT
	 Reference Energy          =    -265.7589768927614386 [Eh]
	 Singles Energy            =      -0.0000000000000000 [Eh]
	 Same-Spin Energy          =      -0.2540949309852756 [Eh]
	 Opposite-Spin Energy      =      -0.7906372624810477 [Eh]
	 Correlation Energy        =      -1.0447321934663232 [Eh]
	 Total Energy              =    -266.8037090862277410 [Eh]

	 ================> DF-SCS-MP2 Energies <==================
	-----------------------------------------------------------
	 SCS Same-Spin Scale       =       0.3333333333333333 [-]
	 SCS Opposite-Spin Scale   =       1.2000000000000000 [-]
	 SCS Same-Spin Energy      =      -0.0846983103284252 [Eh]
	 SCS Opposite-Spin Energy  =      -0.9487647149772572 [Eh]
	 SCS Correlation Energy    =      -1.0334630253056825 [Eh]
	 SCS Total Energy          =    -266.7924399180671458 [Eh]
	-----------------------------------------------------------

  Dipole Moment: [D]
     X:    -0.4748      Y:    -1.2737      Z:    -0.0001     Total:     1.3593

*** Psi4 exiting successfully. Buy a developer a beer!
