                               Psi4 1.4a3.dev225

  ==> Input File <==

--------------------------------------------------------------------------
#psi4
#
memory 32 gb

molecule  {
0 1
  O        1.5281450    -0.7681140     0.0000130
  O        0.6140580     1.3077470    -0.0000100
  C       -0.8107600    -0.6385920    -0.0000170
  C        0.4778375     0.1150618    -0.0000051
  C       -1.9665160     0.0368920     0.0000130
  H       -0.7670810    -1.7227100    -0.0000460
  H       -2.9234270    -0.4732330     0.0000090
  H       -1.9658970     1.1221510     0.0000420
  H        2.3290270    -0.2042190     0.0000210
units angstrom
no_reorient  #important for SAPT in psi4, default
symmetry c1  #important for SAPT in psi4, default
}

set PROPERTIES_ORIGIN ["COM"]
properties('MP2/aug-cc-pvtz', properties = ['dipole'])
--------------------------------------------------------------------------

    Molecular point group: c1
  Charge       = 0
  Multiplicity = 1
  Basis Set: AUG-CC-PVTZ
    Blend: AUG-CC-PVTZ
  Basis Set: (AUG-CC-PVTZ AUX)
    Blend: AUG-CC-PVTZ-JKFIT

    Orbital Energies [Eh]
    ---------------------

    Doubly Occupied:

       1A    -20.615366     2A    -20.554035     3A    -11.393665
       4A    -11.266643     5A    -11.257837     6A     -1.461936
       7A     -1.365787     8A     -1.080438     9A     -0.901712
      10A     -0.768462    11A     -0.715512    12A     -0.700726
      13A     -0.631198    14A     -0.625906    15A     -0.598507
      16A     -0.552927    17A     -0.495542    18A     -0.460950
      19A     -0.400362

  @DF-RHF Final Energy:  -265.75877554168289

   => Energetics <=

    Nuclear Repulsion Energy =            161.8354483971975810
    One-Electron Energy =                -683.4934257082195472
    Two-Electron Energy =                 255.8992017693391290
    Total Energy =                       -265.7587755416828941
  Basis Set: (AUG-CC-PVTZ AUX)
    Blend: AUG-CC-PVTZ-RI
    Molecular point group: c1

    Geometry (in Angstrom), charge = 0, multiplicity = 1:

       Center              X                  Y                   Z               Mass
    ------------   -----------------  -----------------  -----------------  -----------------
         O            1.482079667898    -0.788992787889     0.000013486132    15.994914619570
         O            0.567992667898     1.286868212111    -0.000009513868    15.994914619570
         C           -0.856825332102    -0.659470787889    -0.000016513868    12.000000000000
         C            0.431772167898     0.094183012111    -0.000004613868    12.000000000000
         C           -2.012581332102     0.016013212111     0.000013486132    12.000000000000
         H           -0.813146332102    -1.743588787889    -0.000045513868     1.007825032230
         H           -2.969492332102    -0.494111787889     0.000009486132     1.007825032230
         H           -2.011962332102     1.101272212111     0.000042486132     1.007825032230
         H            2.282961667898    -0.225097787889     0.000021486132     1.007825032230

  Basis Set: AUG-CC-PVTZ
    Blend: AUG-CC-PVTZ
  Basis Set: (AUG-CC-PVTZ AUX)
    Blend: AUG-CC-PVTZ-JKFIT
	 Reference Energy          =    -265.7587755416828941 [Eh]
	 Singles Energy            =      -0.0000000000000000 [Eh]
	 Same-Spin Energy          =      -0.2542098223827799 [Eh]
	 Opposite-Spin Energy      =      -0.7908721522397996 [Eh]
	 Correlation Energy        =      -1.0450819746225795 [Eh]
	 Total Energy              =    -266.8038575163054702 [Eh]

	 ================> DF-SCS-MP2 Energies <==================
	-----------------------------------------------------------
	 SCS Same-Spin Scale       =       0.3333333333333333 [-]
	 SCS Opposite-Spin Scale   =       1.2000000000000000 [-]
	 SCS Same-Spin Energy      =      -0.0847366074609266 [Eh]
	 SCS Opposite-Spin Energy  =      -0.9490465826877594 [Eh]
	 SCS Correlation Energy    =      -1.0337831901486860 [Eh]
	 SCS Total Energy          =    -266.7925587318316047 [Eh]
	-----------------------------------------------------------

  Dipole Moment: [D]
     X:    -0.5863      Y:    -1.2446      Z:     0.0000     Total:     1.3758

*** Psi4 exiting successfully. Buy a developer a beer!
