                               Psi4 1.3.2 release

  ==> Input File <==

--------------------------------------------------------------------------
#psi4
#
memory 32 gb

molecule  {
0 1
  O        1.5280220    -0.7684950     0.0001570
  O        0.6145710     1.3078690     0.0000680
  C       -0.8109530    -0.6383160    -0.0001140
  C        0.4640780    -0.0037572    -0.0004892
  C       -1.9669030     0.0367350     0.0001300
  H       -0.7664070    -1.7224440    -0.0001000
  H       -2.9239270    -0.4730490     0.0003210
  H       -1.9656330     1.1220070     0.0001100
  H        2.3294960    -0.2055650     0.0004620
units angstrom
no_reorient  #important for SAPT in psi4, default
symmetry c1  #important for SAPT in psi4, default
}

set PROPERTIES_ORIGIN ["COM"]
properties('MP2/aug-cc-pvtz', properties = ['dipole'])
--------------------------------------------------------------------------

    Molecular point group: c1
  Charge       = 0
  Multiplicity = 1
  Basis Set: AUG-CC-PVTZ
    Blend: AUG-CC-PVTZ
  Basis Set: (AUG-CC-PVTZ AUX)
    Blend: AUG-CC-PVTZ-JKFIT

    Orbital Energies [Eh]
    ---------------------

    Doubly Occupied:

       1A    -20.632295     2A    -20.528919     3A    -11.398384
       4A    -11.278958     5A    -11.258393     6A     -1.474834
       7A     -1.298479     8A     -1.094061     9A     -0.929945
      10A     -0.793278    11A     -0.716873    12A     -0.698940
      13A     -0.637367    14A     -0.627919    15A     -0.590900
      16A     -0.537539    17A     -0.467489    18A     -0.443655
      19A     -0.396965

  @DF-RHF Final Energy:  -265.73635755012083

   => Energetics <=

    Nuclear Repulsion Energy =            161.5120716798422507
    One-Electron Energy =                -682.8864721045514443
    Two-Electron Energy =                 255.6380428745883080
    Total Energy =                       -265.7363575501208288
  Basis Set: (AUG-CC-PVTZ AUX)
    Blend: AUG-CC-PVTZ-RI
    Molecular point group: c1

    Geometry (in Angstrom), charge = 0, multiplicity = 1:

       Center              X                  Y                   Z               Mass
    ------------   -----------------  -----------------  -----------------  -----------------
         O            1.484246577643    -0.769524184954     0.000174777269    15.994914619570
         O            0.570795577643     1.306839815046     0.000085777269    15.994914619570
         C           -0.854728422357    -0.639345184954    -0.000096222731    12.000000000000
         C            0.420302577643    -0.004786384954    -0.000471422731    12.000000000000
         C           -2.010678422357     0.035705815046     0.000147777269    12.000000000000
         H           -0.810182422357    -1.723473184954    -0.000082222731     1.007825032230
         H           -2.967702422357    -0.474078184954     0.000338777269     1.007825032230
         H           -2.009408422357     1.120977815046     0.000127777269     1.007825032230
         H            2.285720577643    -0.206594184954     0.000479777269     1.007825032230

  Basis Set: AUG-CC-PVTZ
    Blend: AUG-CC-PVTZ
  Basis Set: (AUG-CC-PVTZ AUX)
    Blend: AUG-CC-PVTZ-JKFIT
	 Reference Energy          =    -265.7363575501208288 [Eh]
	 Singles Energy            =      -0.0000000000000000 [Eh]
	 Same-Spin Energy          =      -0.2565374626569218 [Eh]
	 Opposite-Spin Energy      =      -0.7949217621360436 [Eh]
	 Correlation Energy        =      -1.0514592247929655 [Eh]
	 Total Energy              =    -266.7878167749137788 [Eh]

	 ================> DF-SCS-MP2 Energies <==================
	-----------------------------------------------------------
	 SCS Same-Spin Scale       =       0.3333333333333333 [-]
	 SCS Opposite-Spin Scale   =       1.2000000000000000 [-]
	 SCS Same-Spin Energy      =      -0.0855124875523073 [Eh]
	 SCS Opposite-Spin Energy  =      -0.9539061145632522 [Eh]
	 SCS Correlation Energy    =      -1.0394186021155596 [Eh]
	 SCS Total Energy          =    -266.7757761522364035 [Eh]
	-----------------------------------------------------------

  Dipole Moment: [D]
     X:    -0.5978      Y:    -1.9913      Z:    -0.0000     Total:     2.0791

*** Psi4 exiting successfully. Buy a developer a beer!
