                               Psi4 1.3.2 release

  ==> Input File <==

--------------------------------------------------------------------------
#psi4
#
memory 32 gb

molecule  {
0 1
  O        1.6125776    -0.6537405     0.0002659
  O        0.6145710     1.3078690     0.0000680
  C       -0.8109530    -0.6383160    -0.0001140
  C        0.4754770     0.0955910    -0.0004470
  C       -1.9669030     0.0367350     0.0001300
  H       -0.7664070    -1.7224440    -0.0001000
  H       -2.9239270    -0.4730490     0.0003210
  H       -1.9656330     1.1220070     0.0001100
  H        2.3294960    -0.2055650     0.0004620
units angstrom
no_reorient  #important for SAPT in psi4, default
symmetry c1  #important for SAPT in psi4, default
}

set PROPERTIES_ORIGIN ["COM"]
properties('MP2/aug-cc-pvtz', properties = ['dipole'])
--------------------------------------------------------------------------

    Molecular point group: c1
  Charge       = 0
  Multiplicity = 1
  Basis Set: AUG-CC-PVTZ
    Blend: AUG-CC-PVTZ
  Basis Set: (AUG-CC-PVTZ AUX)
    Blend: AUG-CC-PVTZ-JKFIT

    Orbital Energies [Eh]
    ---------------------

    Doubly Occupied:

       1A    -20.596985     2A    -20.543908     3A    -11.396280
       4A    -11.273804     5A    -11.265051     6A     -1.477629
       7A     -1.358932     8A     -1.088441     9A     -0.927561
      10A     -0.801330    11A     -0.721893    12A     -0.695426
      13A     -0.630023    14A     -0.626961    15A     -0.603082
      16A     -0.551633    17A     -0.487799    18A     -0.456511
      19A     -0.403569

  @DF-RHF Final Energy:  -265.74233524029160

   => Energetics <=

    Nuclear Repulsion Energy =            162.3115181703210226
    One-Electron Energy =                -684.2940693853408902
    Two-Electron Energy =                 256.2402159747282440
    Total Energy =                       -265.7423352402915953
  Basis Set: (AUG-CC-PVTZ AUX)
    Blend: AUG-CC-PVTZ-RI
    Molecular point group: c1

    Geometry (in Angstrom), charge = 0, multiplicity = 1:

       Center              X                  Y                   Z               Mass
    ------------   -----------------  -----------------  -----------------  -----------------
         O            1.548124251378    -0.696808276355     0.000252460788    15.994914619570
         O            0.550117651378     1.264801223645     0.000054560788    15.994914619570
         C           -0.875406348622    -0.681383776355    -0.000127439212    12.000000000000
         C            0.411023651378     0.052523223645    -0.000460439212    12.000000000000
         C           -2.031356348622    -0.006332776355     0.000116560788    12.000000000000
         H           -0.830860348622    -1.765511776355    -0.000113439212     1.007825032230
         H           -2.988380348622    -0.516116776355     0.000307560788     1.007825032230
         H           -2.030086348622     1.078939223645     0.000096560788     1.007825032230
         H            2.265042651378    -0.248632776355     0.000448560788     1.007825032230

  Basis Set: AUG-CC-PVTZ
    Blend: AUG-CC-PVTZ
  Basis Set: (AUG-CC-PVTZ AUX)
    Blend: AUG-CC-PVTZ-JKFIT
	 Reference Energy          =    -265.7423352402915953 [Eh]
	 Singles Energy            =      -0.0000000000000000 [Eh]
	 Same-Spin Energy          =      -0.2522791760189764 [Eh]
	 Opposite-Spin Energy      =      -0.7867401511259224 [Eh]
	 Correlation Energy        =      -1.0390193271448989 [Eh]
	 Total Energy              =    -266.7813545674364946 [Eh]

	 ================> DF-SCS-MP2 Energies <==================
	-----------------------------------------------------------
	 SCS Same-Spin Scale       =       0.3333333333333333 [-]
	 SCS Opposite-Spin Scale   =       1.2000000000000000 [-]
	 SCS Same-Spin Energy      =      -0.0840930586729921 [Eh]
	 SCS Opposite-Spin Energy  =      -0.9440881813511068 [Eh]
	 SCS Correlation Energy    =      -1.0281812400240991 [Eh]
	 SCS Total Energy          =    -266.7705164803156777 [Eh]
	-----------------------------------------------------------

  Dipole Moment: [D]
     X:    -0.9056      Y:    -1.4871      Z:    -0.0003     Total:     1.7411

*** Psi4 exiting successfully. Buy a developer a beer!
