                               Psi4 1.4a3.dev225

  ==> Input File <==

--------------------------------------------------------------------------
#psi4
#
memory 32 gb

molecule  {
0 1
  O        1.5281450    -0.7681140     0.0000130
  O        0.6140580     1.3077470    -0.0000100
  C       -0.8107600    -0.6385920    -0.0000170
  C        0.5189985     0.1199658    -0.0000046
  C       -1.9665160     0.0368920     0.0000130
  H       -0.7670810    -1.7227100    -0.0000460
  H       -2.9234270    -0.4732330     0.0000090
  H       -1.9658970     1.1221510     0.0000420
  H        2.3290270    -0.2042190     0.0000210
units angstrom
no_reorient  #important for SAPT in psi4, default
symmetry c1  #important for SAPT in psi4, default
}

set PROPERTIES_ORIGIN ["COM"]
properties('MP2/aug-cc-pvtz', properties = ['dipole'])
--------------------------------------------------------------------------

    Molecular point group: c1
  Charge       = 0
  Multiplicity = 1
  Basis Set: AUG-CC-PVTZ
    Blend: AUG-CC-PVTZ
  Basis Set: (AUG-CC-PVTZ AUX)
    Blend: AUG-CC-PVTZ-JKFIT

    Orbital Energies [Eh]
    ---------------------

    Doubly Occupied:

       1A    -20.624215     2A    -20.554490     3A    -11.393555
       4A    -11.260576     5A    -11.255953     6A     -1.475711
       7A     -1.377714     8A     -1.070908     9A     -0.897771
      10A     -0.771853    11A     -0.715798    12A     -0.704878
      13A     -0.641384    14A     -0.629830    15A     -0.595044
      16A     -0.549330    17A     -0.499852    18A     -0.458540
      19A     -0.396211

  @DF-RHF Final Energy:  -265.75795008480173

   => Energetics <=

    Nuclear Repulsion Energy =            161.9234074580367917
    One-Electron Energy =                -683.6154900467669222
    Two-Electron Energy =                 255.9341325039284527
    Total Energy =                       -265.7579500848016778
  Basis Set: (AUG-CC-PVTZ AUX)
    Blend: AUG-CC-PVTZ-RI
    Molecular point group: c1

    Geometry (in Angstrom), charge = 0, multiplicity = 1:

       Center              X                  Y                   Z               Mass
    ------------   -----------------  -----------------  -----------------  -----------------
         O            1.475221513849    -0.789809881436     0.000013402824    15.994914619570
         O            0.561134513849     1.286051118564    -0.000009597176    15.994914619570
         C           -0.863683486151    -0.660287881436    -0.000016597176    12.000000000000
         C            0.466075013849     0.098269918564    -0.000004197176    12.000000000000
         C           -2.019439486151     0.015196118564     0.000013402824    12.000000000000
         H           -0.820004486151    -1.744405881436    -0.000045597176     1.007825032230
         H           -2.976350486151    -0.494928881436     0.000009402824     1.007825032230
         H           -2.018820486151     1.100455118564     0.000042402824     1.007825032230
         H            2.276103513849    -0.225914881436     0.000021402824     1.007825032230

  Basis Set: AUG-CC-PVTZ
    Blend: AUG-CC-PVTZ
  Basis Set: (AUG-CC-PVTZ AUX)
    Blend: AUG-CC-PVTZ-JKFIT
	 Reference Energy          =    -265.7579500848017346 [Eh]
	 Singles Energy            =      -0.0000000000000000 [Eh]
	 Same-Spin Energy          =      -0.2537644148237277 [Eh]
	 Opposite-Spin Energy      =      -0.7899720154666214 [Eh]
	 Correlation Energy        =      -1.0437364302903491 [Eh]
	 Total Energy              =    -266.8016865150920580 [Eh]

	 ================> DF-SCS-MP2 Energies <==================
	-----------------------------------------------------------
	 SCS Same-Spin Scale       =       0.3333333333333333 [-]
	 SCS Opposite-Spin Scale   =       1.2000000000000000 [-]
	 SCS Same-Spin Energy      =      -0.0845881382745759 [Eh]
	 SCS Opposite-Spin Energy  =      -0.9479664185599457 [Eh]
	 SCS Correlation Energy    =      -1.0325545568345216 [Eh]
	 SCS Total Energy          =    -266.7905046416362325 [Eh]
	-----------------------------------------------------------

  Dipole Moment: [D]
     X:    -0.2374      Y:    -1.2698      Z:     0.0000     Total:     1.2918

*** Psi4 exiting successfully. Buy a developer a beer!
