                               Psi4 1.3.2 release

  ==> Input File <==

--------------------------------------------------------------------------
#psi4
#
memory 32 gb

molecule  {
0 1
  O        1.5280220    -0.7684950     0.0001570
  O        0.6145710     1.3078690     0.0000680
  C       -0.8109530    -0.6383160    -0.0001140
  C        0.6300586    -0.0313126    -0.0003583
  C       -1.9669030     0.0367350     0.0001300
  H       -0.7664070    -1.7224440    -0.0001000
  H       -2.9239270    -0.4730490     0.0003210
  H       -1.9656330     1.1220070     0.0001100
  H        2.3294960    -0.2055650     0.0004620
units angstrom
no_reorient  #important for SAPT in psi4, default
symmetry c1  #important for SAPT in psi4, default
}

set PROPERTIES_ORIGIN ["COM"]
properties('MP2/aug-cc-pvtz', properties = ['dipole'])
--------------------------------------------------------------------------

    Molecular point group: c1
  Charge       = 0
  Multiplicity = 1
  Basis Set: AUG-CC-PVTZ
    Blend: AUG-CC-PVTZ
  Basis Set: (AUG-CC-PVTZ AUX)
    Blend: AUG-CC-PVTZ-JKFIT

    Orbital Energies [Eh]
    ---------------------

    Doubly Occupied:

       1A    -20.676749     2A    -20.518241     3A    -11.400487
       4A    -11.257515     5A    -11.255583     6A     -1.586736
       7A     -1.288067     8A     -1.061316     9A     -0.947079
      10A     -0.814532    11A     -0.754346    12A     -0.706768
      13A     -0.689065    14A     -0.621554    15A     -0.579095
      16A     -0.508895    17A     -0.453729    18A     -0.426415
      19A     -0.385223

  @DF-RHF Final Energy:  -265.69556139376016

   => Energetics <=

    Nuclear Repulsion Energy =            162.0232525262573802
    One-Electron Energy =                -683.5748367748024066
    Two-Electron Energy =                 255.8560228547848965
    Total Energy =                       -265.6955613937601584
  Basis Set: (AUG-CC-PVTZ AUX)
    Blend: AUG-CC-PVTZ-RI
    Molecular point group: c1

    Geometry (in Angstrom), charge = 0, multiplicity = 1:

       Center              X                  Y                   Z               Mass
    ------------   -----------------  -----------------  -----------------  -----------------
         O            1.456591260135    -0.764932965642     0.000152967002    15.994914619570
         O            0.543140260135     1.311431034358     0.000063967002    15.994914619570
         C           -0.882383739865    -0.634753965642    -0.000118032998    12.000000000000
         C            0.558627860135    -0.027750565642    -0.000362332998    12.000000000000
         C           -2.038333739865     0.040297034358     0.000125967002    12.000000000000
         H           -0.837837739865    -1.718881965642    -0.000104032998     1.007825032230
         H           -2.995357739865    -0.469486965642     0.000316967002     1.007825032230
         H           -2.037063739865     1.125569034358     0.000105967002     1.007825032230
         H            2.258065260135    -0.202002965642     0.000457967002     1.007825032230

  Basis Set: AUG-CC-PVTZ
    Blend: AUG-CC-PVTZ
  Basis Set: (AUG-CC-PVTZ AUX)
    Blend: AUG-CC-PVTZ-JKFIT
	 Reference Energy          =    -265.6955613937601584 [Eh]
	 Singles Energy            =      -0.0000000000000000 [Eh]
	 Same-Spin Energy          =      -0.2554928320868422 [Eh]
	 Opposite-Spin Energy      =      -0.7925708558473985 [Eh]
	 Correlation Energy        =      -1.0480636879342407 [Eh]
	 Total Energy              =    -266.7436250816944039 [Eh]

	 ================> DF-SCS-MP2 Energies <==================
	-----------------------------------------------------------
	 SCS Same-Spin Scale       =       0.3333333333333333 [-]
	 SCS Opposite-Spin Scale   =       1.2000000000000000 [-]
	 SCS Same-Spin Energy      =      -0.0851642773622807 [Eh]
	 SCS Opposite-Spin Energy  =      -0.9510850270168781 [Eh]
	 SCS Correlation Energy    =      -1.0362493043791590 [Eh]
	 SCS Total Energy          =    -266.7318106981393271 [Eh]
	-----------------------------------------------------------

  Dipole Moment: [D]
     X:     0.7345      Y:    -2.5328      Z:     0.0002     Total:     2.6371

*** Psi4 exiting successfully. Buy a developer a beer!
