                               Psi4 1.3.2 release

  ==> Input File <==

--------------------------------------------------------------------------
#psi4
#
memory 32 gb

molecule  {
0 1
  O        1.5280220    -0.7684950     0.0001570
  O        0.6357070     1.3052568     0.0000554
  C       -0.8109530    -0.6383160    -0.0001140
  C        0.4754770     0.0955910    -0.0004470
  C       -1.9669030     0.0367350     0.0001300
  H       -0.7664070    -1.7224440    -0.0001000
  H       -2.9239270    -0.4730490     0.0003210
  H       -1.9656330     1.1220070     0.0001100
  H        2.3294960    -0.2055650     0.0004620
units angstrom
no_reorient  #important for SAPT in psi4, default
symmetry c1  #important for SAPT in psi4, default
}

set PROPERTIES_ORIGIN ["COM"]
properties('MP2/aug-cc-pvtz', properties = ['dipole'])
--------------------------------------------------------------------------

    Molecular point group: c1
  Charge       = 0
  Multiplicity = 1
  Basis Set: AUG-CC-PVTZ
    Blend: AUG-CC-PVTZ
  Basis Set: (AUG-CC-PVTZ AUX)
    Blend: AUG-CC-PVTZ-JKFIT

    Orbital Energies [Eh]
    ---------------------

    Doubly Occupied:

       1A    -20.616566     2A    -20.549689     3A    -11.394619
       4A    -11.269557     5A    -11.259159     6A     -1.460501
       7A     -1.355250     8A     -1.083774     9A     -0.906799
      10A     -0.771796    11A     -0.715227    12A     -0.699046
      13A     -0.630158    14A     -0.623612    15A     -0.599884
      16A     -0.552232    17A     -0.489686    18A     -0.459372
      19A     -0.401457

  @DF-RHF Final Energy:  -265.75808325439789

   => Energetics <=

    Nuclear Repulsion Energy =            161.7142529125318333
    One-Electron Energy =                -683.2679041041617438
    Two-Electron Energy =                 255.7955679372320219
    Total Energy =                       -265.7580832543978886
  Basis Set: (AUG-CC-PVTZ AUX)
    Blend: AUG-CC-PVTZ-RI
    Molecular point group: c1

    Geometry (in Angstrom), charge = 0, multiplicity = 1:

       Center              X                  Y                   Z               Mass
    ------------   -----------------  -----------------  -----------------  -----------------
         O            1.477653283154    -0.785497226395     0.000170544288    15.994914619570
         O            0.585338283154     1.288254573605     0.000068944288    15.994914619570
         C           -0.861321716846    -0.655318226395    -0.000100455712    12.000000000000
         C            0.425108283154     0.078588773605    -0.000433455712    12.000000000000
         C           -2.017271716846     0.019732773605     0.000143544288    12.000000000000
         H           -0.816775716846    -1.739446226395    -0.000086455712     1.007825032230
         H           -2.974295716846    -0.490051226395     0.000334544288     1.007825032230
         H           -2.016001716846     1.105004773605     0.000123544288     1.007825032230
         H            2.279127283154    -0.222567226395     0.000475544288     1.007825032230

  Basis Set: AUG-CC-PVTZ
    Blend: AUG-CC-PVTZ
  Basis Set: (AUG-CC-PVTZ AUX)
    Blend: AUG-CC-PVTZ-JKFIT
	 Reference Energy          =    -265.7580832543978886 [Eh]
	 Singles Energy            =      -0.0000000000000000 [Eh]
	 Same-Spin Energy          =      -0.2545164066253021 [Eh]
	 Opposite-Spin Energy      =      -0.7913899696487928 [Eh]
	 Correlation Energy        =      -1.0459063762740950 [Eh]
	 Total Energy              =    -266.8039896306719925 [Eh]

	 ================> DF-SCS-MP2 Energies <==================
	-----------------------------------------------------------
	 SCS Same-Spin Scale       =       0.3333333333333333 [-]
	 SCS Opposite-Spin Scale   =       1.2000000000000000 [-]
	 SCS Same-Spin Energy      =      -0.0848388022084340 [Eh]
	 SCS Opposite-Spin Energy  =      -0.9496679635785513 [Eh]
	 SCS Correlation Energy    =      -1.0345067657869853 [Eh]
	 SCS Total Energy          =    -266.7925900201848890 [Eh]
	-----------------------------------------------------------

  Dipole Moment: [D]
     X:    -0.6618      Y:    -1.3798      Z:    -0.0001     Total:     1.5303

*** Psi4 exiting successfully. Buy a developer a beer!
