                               Psi4 1.4a3.dev225

  ==> Input File <==

--------------------------------------------------------------------------
#psi4
#
memory 32 gb

molecule  {
0 1
  O        1.5281450    -0.7681140     0.0000130
  O        0.6140580     1.3077470    -0.0000100
  C       -0.8107600    -0.6385920    -0.0000170
  C        0.4755680     0.0951910    -0.0000050
  C       -1.9665160     0.0368920     0.0000130
  H       -0.7670810    -1.7227100    -0.0000460
  H       -2.9234270    -0.4732330     0.0000090
  H       -1.9658970     1.1221510     0.0000420
  H        2.3453801    -0.1927049     0.0000212
units angstrom
no_reorient  #important for SAPT in psi4, default
symmetry c1  #important for SAPT in psi4, default
}

set PROPERTIES_ORIGIN ["COM"]
properties('MP2/aug-cc-pvtz', properties = ['dipole'])
--------------------------------------------------------------------------

    Molecular point group: c1
  Charge       = 0
  Multiplicity = 1
  Basis Set: AUG-CC-PVTZ
    Blend: AUG-CC-PVTZ
  Basis Set: (AUG-CC-PVTZ AUX)
    Blend: AUG-CC-PVTZ-JKFIT

    Orbital Energies [Eh]
    ---------------------

    Doubly Occupied:

       1A    -20.619647     2A    -20.549533     3A    -11.394349
       4A    -11.268422     5A    -11.257913     6A     -1.457911
       7A     -1.354936     8A     -1.082340     9A     -0.904387
      10A     -0.769845    11A     -0.713913    12A     -0.698419
      13A     -0.630114    14A     -0.623053    15A     -0.598195
      16A     -0.550934    17A     -0.490045    18A     -0.459090
      19A     -0.400295

  @DF-RHF Final Energy:  -265.75643492726738

   => Energetics <=

    Nuclear Repulsion Energy =            161.6476295237559384
    One-Electron Energy =                -683.1614509545777310
    Two-Electron Energy =                 255.7573865035543577
    Total Energy =                       -265.7564349272673780
  Basis Set: (AUG-CC-PVTZ AUX)
    Blend: AUG-CC-PVTZ-RI
    Molecular point group: c1

    Geometry (in Angstrom), charge = 0, multiplicity = 1:

       Center              X                  Y                   Z               Mass
    ------------   -----------------  -----------------  -----------------  -----------------
         O            1.482228970423    -0.785843081633     0.000013466672    15.994914619570
         O            0.568141970423     1.290017918367    -0.000009533328    15.994914619570
         C           -0.856676029577    -0.656321081633    -0.000016533328    12.000000000000
         C            0.429651970423     0.077461918367    -0.000004533328    12.000000000000
         C           -2.012432029577     0.019162918367     0.000013466672    12.000000000000
         H           -0.812997029577    -1.740439081633    -0.000045533328     1.007825032230
         H           -2.969343029577    -0.490962081633     0.000009466672     1.007825032230
         H           -2.011813029577     1.104421918367     0.000042466672     1.007825032230
         H            2.299464070423    -0.210433981633     0.000021666672     1.007825032230

  Basis Set: AUG-CC-PVTZ
    Blend: AUG-CC-PVTZ
  Basis Set: (AUG-CC-PVTZ AUX)
    Blend: AUG-CC-PVTZ-JKFIT
	 Reference Energy          =    -265.7564349272673780 [Eh]
	 Singles Energy            =      -0.0000000000000000 [Eh]
	 Same-Spin Energy          =      -0.2548226647595800 [Eh]
	 Opposite-Spin Energy      =      -0.7921025415076157 [Eh]
	 Correlation Energy        =      -1.0469252062671957 [Eh]
	 Total Energy              =    -266.8033601335345679 [Eh]

	 ================> DF-SCS-MP2 Energies <==================
	-----------------------------------------------------------
	 SCS Same-Spin Scale       =       0.3333333333333333 [-]
	 SCS Opposite-Spin Scale   =       1.2000000000000000 [-]
	 SCS Same-Spin Energy      =      -0.0849408882531933 [Eh]
	 SCS Opposite-Spin Energy  =      -0.9505230498091388 [Eh]
	 SCS Correlation Energy    =      -1.0354639380623321 [Eh]
	 SCS Total Energy          =    -266.7918988653296992 [Eh]
	-----------------------------------------------------------

  Dipole Moment: [D]
     X:    -0.5638      Y:    -1.3711      Z:     0.0000     Total:     1.4825

*** Psi4 exiting successfully. Buy a developer a beer!
