                               Psi4 1.3.2 release

  ==> Input File <==

--------------------------------------------------------------------------
#psi4
#
memory 32 gb

molecule  {
0 1
  O        1.5280220    -0.7684950     0.0001570
  O        0.6145710     1.3078690     0.0000680
  C       -0.8109530    -0.6383160    -0.0001140
  C        0.4982750     0.2942874    -0.0003626
  C       -1.9669030     0.0367350     0.0001300
  H       -0.7664070    -1.7224440    -0.0001000
  H       -2.9239270    -0.4730490     0.0003210
  H       -1.9656330     1.1220070     0.0001100
  H        2.3294960    -0.2055650     0.0004620
units angstrom
no_reorient  #important for SAPT in psi4, default
symmetry c1  #important for SAPT in psi4, default
}

set PROPERTIES_ORIGIN ["COM"]
properties('MP2/aug-cc-pvtz', properties = ['dipole'])
--------------------------------------------------------------------------

    Molecular point group: c1
  Charge       = 0
  Multiplicity = 1
  Basis Set: AUG-CC-PVTZ
    Blend: AUG-CC-PVTZ
  Basis Set: (AUG-CC-PVTZ AUX)
    Blend: AUG-CC-PVTZ-JKFIT

    Orbital Energies [Eh]
    ---------------------

    Doubly Occupied:

       1A    -20.591391     2A    -20.582542     3A    -11.380697
       4A    -11.255598     5A    -11.250965     6A     -1.579239
       7A     -1.357605     8A     -1.061544     9A     -0.857122
      10A     -0.767297    11A     -0.737081    12A     -0.719957
      13A     -0.687522    14A     -0.642330    15A     -0.582045
      16A     -0.562661    17A     -0.510722    18A     -0.441227
      19A     -0.394378

  @DF-RHF Final Energy:  -265.67652359078266

   => Energetics <=

    Nuclear Repulsion Energy =            163.0991651486631326
    One-Electron Energy =                -685.6275341424531007
    Two-Electron Energy =                 256.8518454030073030
    Total Energy =                       -265.6765235907826650
  Basis Set: (AUG-CC-PVTZ AUX)
    Blend: AUG-CC-PVTZ-RI
    Molecular point group: c1

    Geometry (in Angstrom), charge = 0, multiplicity = 1:

       Center              X                  Y                   Z               Mass
    ------------   -----------------  -----------------  -----------------  -----------------
         O            1.478548749747    -0.819183711698     0.000153683459    15.994914619570
         O            0.565097749747     1.257180288302     0.000064683459    15.994914619570
         C           -0.860426250253    -0.689004711698    -0.000117316541    12.000000000000
         C            0.448801749747     0.243598688302    -0.000365916541    12.000000000000
         C           -2.016376250253    -0.013953711698     0.000126683459    12.000000000000
         H           -0.815880250253    -1.773132711698    -0.000103316541     1.007825032230
         H           -2.973400250253    -0.523737711698     0.000317683459     1.007825032230
         H           -2.015106250253     1.071318288302     0.000106683459     1.007825032230
         H            2.280022749747    -0.256253711698     0.000458683459     1.007825032230

  Basis Set: AUG-CC-PVTZ
    Blend: AUG-CC-PVTZ
  Basis Set: (AUG-CC-PVTZ AUX)
    Blend: AUG-CC-PVTZ-JKFIT
	 Reference Energy          =    -265.6765235907826650 [Eh]
	 Singles Energy            =      -0.0000000000000000 [Eh]
	 Same-Spin Energy          =      -0.2517201925549811 [Eh]
	 Opposite-Spin Energy      =      -0.7865529887882734 [Eh]
	 Correlation Energy        =      -1.0382731813432544 [Eh]
	 Total Energy              =    -266.7147967721259079 [Eh]

	 ================> DF-SCS-MP2 Energies <==================
	-----------------------------------------------------------
	 SCS Same-Spin Scale       =       0.3333333333333333 [-]
	 SCS Opposite-Spin Scale   =       1.2000000000000000 [-]
	 SCS Same-Spin Energy      =      -0.0839067308516604 [Eh]
	 SCS Opposite-Spin Energy  =      -0.9438635865459281 [Eh]
	 SCS Correlation Energy    =      -1.0277703173975885 [Eh]
	 SCS Total Energy          =    -266.7042939081802615 [Eh]
	-----------------------------------------------------------

  Dipole Moment: [D]
     X:    -0.5689      Y:     0.1438      Z:    -0.0002     Total:     0.5867

*** Psi4 exiting successfully. Buy a developer a beer!
