                               Psi4 1.3.2 release

  ==> Input File <==

--------------------------------------------------------------------------
#psi4
#
memory 32 gb

molecule  {
0 1
  O        1.5280220    -0.7684950     0.0001570
  O        0.6145710     1.3078690     0.0000680
  C       -0.8109530    -0.6383160    -0.0001140
  C        0.5003063     0.0502482    -0.0004510
  C       -1.9669030     0.0367350     0.0001300
  H       -0.7664070    -1.7224440    -0.0001000
  H       -2.9239270    -0.4730490     0.0003210
  H       -1.9656330     1.1220070     0.0001100
  H        2.3294960    -0.2055650     0.0004620
units angstrom
no_reorient  #important for SAPT in psi4, default
symmetry c1  #important for SAPT in psi4, default
}

set PROPERTIES_ORIGIN ["COM"]
properties('MP2/aug-cc-pvtz', properties = ['dipole'])
--------------------------------------------------------------------------

    Molecular point group: c1
  Charge       = 0
  Multiplicity = 1
  Basis Set: AUG-CC-PVTZ
    Blend: AUG-CC-PVTZ
  Basis Set: (AUG-CC-PVTZ AUX)
    Blend: AUG-CC-PVTZ-JKFIT

    Orbital Energies [Eh]
    ---------------------

    Doubly Occupied:

       1A    -20.632051     2A    -20.539975     3A    -11.396886
       4A    -11.268684     5A    -11.257660     6A     -1.478621
       7A     -1.335392     8A     -1.080872     9A     -0.915777
      10A     -0.784577    11A     -0.713612    12A     -0.703570
      13A     -0.641297    14A     -0.622421    15A     -0.597070
      16A     -0.543030    17A     -0.479918    18A     -0.452932
      19A     -0.397432

  @DF-RHF Final Energy:  -265.75239157141164

   => Energetics <=

    Nuclear Repulsion Energy =            161.6703239771343306
    One-Electron Energy =                -683.1618735095989905
    Two-Electron Energy =                 255.7391579610530243
    Total Energy =                       -265.7523915714116356
  Basis Set: (AUG-CC-PVTZ AUX)
    Blend: AUG-CC-PVTZ-RI
    Molecular point group: c1

    Geometry (in Angstrom), charge = 0, multiplicity = 1:

       Center              X                  Y                   Z               Mass
    ------------   -----------------  -----------------  -----------------  -----------------
         O            1.478210299070    -0.778522444294     0.000168412470    15.994914619570
         O            0.564759299070     1.297841555706     0.000079412470    15.994914619570
         C           -0.860764700930    -0.648343444294    -0.000102587530    12.000000000000
         C            0.450494599070     0.040220755706    -0.000439587530    12.000000000000
         C           -2.016714700930     0.026707555706     0.000141412470    12.000000000000
         H           -0.816218700930    -1.732471444294    -0.000088587530     1.007825032230
         H           -2.973738700930    -0.483076444294     0.000332412470     1.007825032230
         H           -2.015444700930     1.111979555706     0.000121412470     1.007825032230
         H            2.279684299070    -0.215592444294     0.000473412470     1.007825032230

  Basis Set: AUG-CC-PVTZ
    Blend: AUG-CC-PVTZ
  Basis Set: (AUG-CC-PVTZ AUX)
    Blend: AUG-CC-PVTZ-JKFIT
	 Reference Energy          =    -265.7523915714116356 [Eh]
	 Singles Energy            =      -0.0000000000000000 [Eh]
	 Same-Spin Energy          =      -0.2550708434827131 [Eh]
	 Opposite-Spin Energy      =      -0.7922807376487422 [Eh]
	 Correlation Energy        =      -1.0473515811314553 [Eh]
	 Total Energy              =    -266.7997431525431011 [Eh]

	 ================> DF-SCS-MP2 Energies <==================
	-----------------------------------------------------------
	 SCS Same-Spin Scale       =       0.3333333333333333 [-]
	 SCS Opposite-Spin Scale   =       1.2000000000000000 [-]
	 SCS Same-Spin Energy      =      -0.0850236144942377 [Eh]
	 SCS Opposite-Spin Energy  =      -0.9507368851784905 [Eh]
	 SCS Correlation Energy    =      -1.0357604996727283 [Eh]
	 SCS Total Energy          =    -266.7881520710843688 [Eh]
	-----------------------------------------------------------

  Dipole Moment: [D]
     X:    -0.3434      Y:    -1.7204      Z:    -0.0000     Total:     1.7543

*** Psi4 exiting successfully. Buy a developer a beer!
