                               Psi4 1.3.2 release

  ==> Input File <==

--------------------------------------------------------------------------
#psi4
#
memory 32 gb

molecule  {
0 1
  O        1.5280220    -0.7684950     0.0001570
  O        0.6145710     1.3078690     0.0000680
  C       -0.8109530    -0.6383160    -0.0001140
  C        0.4868760     0.1949392    -0.0004048
  C       -1.9669030     0.0367350     0.0001300
  H       -0.7664070    -1.7224440    -0.0001000
  H       -2.9239270    -0.4730490     0.0003210
  H       -1.9656330     1.1220070     0.0001100
  H        2.3294960    -0.2055650     0.0004620
units angstrom
no_reorient  #important for SAPT in psi4, default
symmetry c1  #important for SAPT in psi4, default
}

set PROPERTIES_ORIGIN ["COM"]
properties('MP2/aug-cc-pvtz', properties = ['dipole'])
--------------------------------------------------------------------------

    Molecular point group: c1
  Charge       = 0
  Multiplicity = 1
  Basis Set: AUG-CC-PVTZ
    Blend: AUG-CC-PVTZ
  Basis Set: (AUG-CC-PVTZ AUX)
    Blend: AUG-CC-PVTZ-JKFIT

    Orbital Energies [Eh]
    ---------------------

    Doubly Occupied:

       1A    -20.601939     2A    -20.570496     3A    -11.388493
       4A    -11.259524     5A    -11.256756     6A     -1.495331
       7A     -1.377301     8A     -1.071623     9A     -0.881730
      10A     -0.759313    11A     -0.719585    12A     -0.709543
      13A     -0.642975    14A     -0.636968    15A     -0.590470
      16A     -0.558490    17A     -0.510161    18A     -0.459249
      19A     -0.398558

  @DF-RHF Final Energy:  -265.74545131054344

   => Energetics <=

    Nuclear Repulsion Energy =            162.2418278933359659
    One-Electron Energy =                -684.1975489921580902
    Two-Electron Energy =                 256.2102697882786515
    Total Energy =                       -265.7454513105434444
  Basis Set: (AUG-CC-PVTZ AUX)
    Blend: AUG-CC-PVTZ-RI
    Molecular point group: c1

    Geometry (in Angstrom), charge = 0, multiplicity = 1:

       Center              X                  Y                   Z               Mass
    ------------   -----------------  -----------------  -----------------  -----------------
         O            1.480448025713    -0.802630536117     0.000160714729    15.994914619570
         O            0.566997025713     1.273733463883     0.000071714729    15.994914619570
         C           -0.858526974287    -0.672451536117    -0.000110285271    12.000000000000
         C            0.439302025713     0.160803663883    -0.000401085271    12.000000000000
         C           -2.014476974287     0.002599463883     0.000133714729    12.000000000000
         H           -0.813980974287    -1.756579536117    -0.000096285271     1.007825032230
         H           -2.971500974287    -0.507184536117     0.000324714729     1.007825032230
         H           -2.013206974287     1.087871463883     0.000113714729     1.007825032230
         H            2.281922025713    -0.239700536117     0.000465714729     1.007825032230

  Basis Set: AUG-CC-PVTZ
    Blend: AUG-CC-PVTZ
  Basis Set: (AUG-CC-PVTZ AUX)
    Blend: AUG-CC-PVTZ-JKFIT
	 Reference Energy          =    -265.7454513105434444 [Eh]
	 Singles Energy            =      -0.0000000000000000 [Eh]
	 Same-Spin Energy          =      -0.2529455483093926 [Eh]
	 Opposite-Spin Energy      =      -0.7886715030340934 [Eh]
	 Correlation Energy        =      -1.0416170513434859 [Eh]
	 Total Energy              =    -266.7870683618869521 [Eh]

	 ================> DF-SCS-MP2 Energies <==================
	-----------------------------------------------------------
	 SCS Same-Spin Scale       =       0.3333333333333333 [-]
	 SCS Opposite-Spin Scale   =       1.2000000000000000 [-]
	 SCS Same-Spin Energy      =      -0.0843151827697975 [Eh]
	 SCS Opposite-Spin Energy  =      -0.9464058036409120 [Eh]
	 SCS Correlation Energy    =      -1.0307209864107096 [Eh]
	 SCS Total Energy          =    -266.7761722969541438 [Eh]
	-----------------------------------------------------------

  Dipole Moment: [D]
     X:    -0.5751      Y:    -0.6638      Z:    -0.0002     Total:     0.8783

*** Psi4 exiting successfully. Buy a developer a beer!
