                               Psi4 1.3.2 release

  ==> Input File <==

--------------------------------------------------------------------------
#psi4
#
memory 32 gb

molecule  {
0 1
  O        1.4651824    -0.8398119     0.0001945
  O        0.6145710     1.3078690     0.0000680
  C       -0.8109530    -0.6383160    -0.0001140
  C        0.4754770     0.0955910    -0.0004470
  C       -1.9669030     0.0367350     0.0001300
  H       -0.7664070    -1.7224440    -0.0001000
  H       -2.9239270    -0.4730490     0.0003210
  H       -1.9656330     1.1220070     0.0001100
  H        2.3294960    -0.2055650     0.0004620
units angstrom
no_reorient  #important for SAPT in psi4, default
symmetry c1  #important for SAPT in psi4, default
}

set PROPERTIES_ORIGIN ["COM"]
properties('MP2/aug-cc-pvtz', properties = ['dipole'])
--------------------------------------------------------------------------

    Molecular point group: c1
  Charge       = 0
  Multiplicity = 1
  Basis Set: AUG-CC-PVTZ
    Blend: AUG-CC-PVTZ
  Basis Set: (AUG-CC-PVTZ AUX)
    Blend: AUG-CC-PVTZ-JKFIT

    Orbital Energies [Eh]
    ---------------------

    Doubly Occupied:

       1A    -20.629725     2A    -20.554338     3A    -11.395082
       4A    -11.265119     5A    -11.253648     6A     -1.453326
       7A     -1.357313     8A     -1.078936     9A     -0.896727
      10A     -0.759443    11A     -0.707967    12A     -0.699628
      13A     -0.631598    14A     -0.625234    15A     -0.589351
      16A     -0.550680    17A     -0.492958    18A     -0.460289
      19A     -0.398289

  @DF-RHF Final Energy:  -265.74248499353786

   => Energetics <=

    Nuclear Repulsion Energy =            161.5459120043067855
    One-Electron Energy =                -682.9774920535961655
    Two-Electron Energy =                 255.6890950557514941
    Total Energy =                       -265.7424849935378006
  Basis Set: (AUG-CC-PVTZ AUX)
    Blend: AUG-CC-PVTZ-RI
    Molecular point group: c1

    Geometry (in Angstrom), charge = 0, multiplicity = 1:

       Center              X                  Y                   Z               Mass
    ------------   -----------------  -----------------  -----------------  -----------------
         O            1.433463523331    -0.841555745693     0.000196917758    15.994914619570
         O            0.582852123331     1.306125154307     0.000070417758    15.994914619570
         C           -0.842671876669    -0.640059845693    -0.000111582242    12.000000000000
         C            0.443758123331     0.093847154307    -0.000444582242    12.000000000000
         C           -1.998621876669     0.034991154307     0.000132417758    12.000000000000
         H           -0.798125876669    -1.724187845693    -0.000097582242     1.007825032230
         H           -2.955645876669    -0.474792845693     0.000323417758     1.007825032230
         H           -1.997351876669     1.120263154307     0.000112417758     1.007825032230
         H            2.297777123331    -0.207308845693     0.000464417758     1.007825032230

  Basis Set: AUG-CC-PVTZ
    Blend: AUG-CC-PVTZ
  Basis Set: (AUG-CC-PVTZ AUX)
    Blend: AUG-CC-PVTZ-JKFIT
	 Reference Energy          =    -265.7424849935378575 [Eh]
	 Singles Energy            =      -0.0000000000000000 [Eh]
	 Same-Spin Energy          =      -0.2564864200244198 [Eh]
	 Opposite-Spin Energy      =      -0.7957104252850480 [Eh]
	 Correlation Energy        =      -1.0521968453094677 [Eh]
	 Total Energy              =    -266.7946818388473389 [Eh]

	 ================> DF-SCS-MP2 Energies <==================
	-----------------------------------------------------------
	 SCS Same-Spin Scale       =       0.3333333333333333 [-]
	 SCS Opposite-Spin Scale   =       1.2000000000000000 [-]
	 SCS Same-Spin Energy      =      -0.0854954733414733 [Eh]
	 SCS Opposite-Spin Energy  =      -0.9548525103420575 [Eh]
	 SCS Correlation Energy    =      -1.0403479836835308 [Eh]
	 SCS Total Energy          =    -266.7828329772214033 [Eh]
	-----------------------------------------------------------

  Dipole Moment: [D]
     X:    -0.4067      Y:    -1.3119      Z:    -0.0002     Total:     1.3735

*** Psi4 exiting successfully. Buy a developer a beer!
