                               Psi4 1.3.2 release

  ==> Input File <==

--------------------------------------------------------------------------
#psi4
#
memory 32 gb

molecule  {
0 1
  O        1.5280220    -0.7684950     0.0001570
  O        0.6145710     1.3078690     0.0000680
  C       -0.8109530    -0.6383160    -0.0001140
  C        0.4754770     0.0955910    -0.0004470
  C       -1.9669030     0.0367350     0.0001300
  H       -0.7664070    -1.7224440    -0.0001000
  H       -2.9239270    -0.4730490     0.0003210
  H       -1.9656330     1.1220070     0.0001100
  H        2.2476640    -0.2630412     0.0004309
units angstrom
no_reorient  #important for SAPT in psi4, default
symmetry c1  #important for SAPT in psi4, default
}

set PROPERTIES_ORIGIN ["COM"]
properties('MP2/aug-cc-pvtz', properties = ['dipole'])
--------------------------------------------------------------------------

    Molecular point group: c1
  Charge       = 0
  Multiplicity = 1
  Basis Set: AUG-CC-PVTZ
    Blend: AUG-CC-PVTZ
  Basis Set: (AUG-CC-PVTZ AUX)
    Blend: AUG-CC-PVTZ-JKFIT

    Orbital Energies [Eh]
    ---------------------

    Doubly Occupied:

       1A    -20.610860     2A    -20.552005     3A    -11.396707
       4A    -11.269368     5A    -11.258539     6A     -1.478955
       7A     -1.366594     8A     -1.084768     9A     -0.919777
      10A     -0.783018    11A     -0.722390    12A     -0.703761
      13A     -0.634563    14A     -0.625200    15A     -0.606465
      16A     -0.553310    17A     -0.494183    18A     -0.461357
      19A     -0.401224

  @DF-RHF Final Energy:  -265.75344564334091

   => Energetics <=

    Nuclear Repulsion Energy =            162.3731355966248486
    One-Electron Energy =                -684.4070765242868220
    Two-Electron Energy =                 256.2804952843210913
    Total Energy =                       -265.7534456433409105
  Basis Set: (AUG-CC-PVTZ AUX)
    Blend: AUG-CC-PVTZ-RI
    Molecular point group: c1

    Geometry (in Angstrom), charge = 0, multiplicity = 1:

       Center              X                  Y                   Z               Mass
    ------------   -----------------  -----------------  -----------------  -----------------
         O            1.483492414769    -0.785273069439     0.000168181195    15.994914619570
         O            0.570041414769     1.291090930561     0.000079181195    15.994914619570
         C           -0.855482585231    -0.655094069439    -0.000102818805    12.000000000000
         C            0.430947414769     0.078812930561    -0.000435818805    12.000000000000
         C           -2.011432585231     0.019956930561     0.000141181195    12.000000000000
         H           -0.810936585231    -1.739222069439    -0.000088818805     1.007825032230
         H           -2.968456585231    -0.489827069439     0.000332181195     1.007825032230
         H           -2.010162585231     1.105228930561     0.000121181195     1.007825032230
         H            2.203134414769    -0.279819269439     0.000442081195     1.007825032230

  Basis Set: AUG-CC-PVTZ
    Blend: AUG-CC-PVTZ
  Basis Set: (AUG-CC-PVTZ AUX)
    Blend: AUG-CC-PVTZ-JKFIT
	 Reference Energy          =    -265.7534456433409105 [Eh]
	 Singles Energy            =      -0.0000000000000000 [Eh]
	 Same-Spin Energy          =      -0.2532993884808348 [Eh]
	 Opposite-Spin Energy      =      -0.7886557295461062 [Eh]
	 Correlation Energy        =      -1.0419551180269409 [Eh]
	 Total Energy              =    -266.7954007613678300 [Eh]

	 ================> DF-SCS-MP2 Energies <==================
	-----------------------------------------------------------
	 SCS Same-Spin Scale       =       0.3333333333333333 [-]
	 SCS Opposite-Spin Scale   =       1.2000000000000000 [-]
	 SCS Same-Spin Energy      =      -0.0844331294936116 [Eh]
	 SCS Opposite-Spin Energy  =      -0.9463868754553274 [Eh]
	 SCS Correlation Energy    =      -1.0308200049489389 [Eh]
	 SCS Total Energy          =    -266.7842656482898747 [Eh]
	-----------------------------------------------------------

  Dipole Moment: [D]
     X:    -0.7208      Y:    -1.4112      Z:    -0.0002     Total:     1.5846

*** Psi4 exiting successfully. Buy a developer a beer!
