                               Psi4 1.3.2 release

  ==> Input File <==

--------------------------------------------------------------------------
#psi4
#
memory 32 gb

molecule  {
0 1
  O        1.4972247    -0.8047019     0.0001192
  O        0.6145710     1.3078690     0.0000680
  C       -0.8109530    -0.6383160    -0.0001140
  C        0.4754770     0.0955910    -0.0004470
  C       -1.9669030     0.0367350     0.0001300
  H       -0.7664070    -1.7224440    -0.0001000
  H       -2.9239270    -0.4730490     0.0003210
  H       -1.9656330     1.1220070     0.0001100
  H        2.3294960    -0.2055650     0.0004620
units angstrom
no_reorient  #important for SAPT in psi4, default
symmetry c1  #important for SAPT in psi4, default
}

set PROPERTIES_ORIGIN ["COM"]
properties('MP2/aug-cc-pvtz', properties = ['dipole'])
--------------------------------------------------------------------------

    Molecular point group: c1
  Charge       = 0
  Multiplicity = 1
  Basis Set: AUG-CC-PVTZ
    Blend: AUG-CC-PVTZ
  Basis Set: (AUG-CC-PVTZ AUX)
    Blend: AUG-CC-PVTZ-JKFIT

    Orbital Energies [Eh]
    ---------------------

    Doubly Occupied:

       1A    -20.624304     2A    -20.552145     3A    -11.394803
       4A    -11.266843     5A    -11.255810     6A     -1.456605
       7A     -1.356920     8A     -1.080817     9A     -0.901309
      10A     -0.764610    11A     -0.711941    12A     -0.699801
      13A     -0.631120    14A     -0.624128    15A     -0.595217
      16A     -0.551088    17A     -0.491824    18A     -0.459993
      19A     -0.399394

  @DF-RHF Final Energy:  -265.75213626464330

   => Energetics <=

    Nuclear Repulsion Energy =            161.6306220064349475
    One-Electron Energy =                -683.1281723795822245
    Two-Electron Energy =                 255.7454141085040078
    Total Energy =                       -265.7521362646432976
  Basis Set: (AUG-CC-PVTZ AUX)
    Blend: AUG-CC-PVTZ-RI
    Molecular point group: c1

    Geometry (in Angstrom), charge = 0, multiplicity = 1:

       Center              X                  Y                   Z               Mass
    ------------   -----------------  -----------------  -----------------  -----------------
         O            1.458389663710    -0.814243199819     0.000138340865    15.994914619570
         O            0.575735963710     1.298327700181     0.000087140865    15.994914619570
         C           -0.849788036290    -0.647857299819    -0.000094859135    12.000000000000
         C            0.436641963710     0.086049700181    -0.000427859135    12.000000000000
         C           -2.005738036290     0.027193700181     0.000149140865    12.000000000000
         H           -0.805242036290    -1.731985299819    -0.000080859135     1.007825032230
         H           -2.962762036290    -0.482590299819     0.000340140865     1.007825032230
         H           -2.004468036290     1.112465700181     0.000129140865     1.007825032230
         H            2.290660963710    -0.215106299819     0.000481140865     1.007825032230

  Basis Set: AUG-CC-PVTZ
    Blend: AUG-CC-PVTZ
  Basis Set: (AUG-CC-PVTZ AUX)
    Blend: AUG-CC-PVTZ-JKFIT
	 Reference Energy          =    -265.7521362646432976 [Eh]
	 Singles Energy            =      -0.0000000000000000 [Eh]
	 Same-Spin Energy          =      -0.2554896463795193 [Eh]
	 Opposite-Spin Energy      =      -0.7935029071080468 [Eh]
	 Correlation Energy        =      -1.0489925534875661 [Eh]
	 Total Energy              =    -266.8011288181308487 [Eh]

	 ================> DF-SCS-MP2 Energies <==================
	-----------------------------------------------------------
	 SCS Same-Spin Scale       =       0.3333333333333333 [-]
	 SCS Opposite-Spin Scale   =       1.2000000000000000 [-]
	 SCS Same-Spin Energy      =      -0.0851632154598398 [Eh]
	 SCS Opposite-Spin Energy  =      -0.9522034885296562 [Eh]
	 SCS Correlation Energy    =      -1.0373667039894960 [Eh]
	 SCS Total Energy          =    -266.7895029686328030 [Eh]
	-----------------------------------------------------------

  Dipole Moment: [D]
     X:    -0.4956      Y:    -1.3440      Z:    -0.0000     Total:     1.4325

*** Psi4 exiting successfully. Buy a developer a beer!
