                               Psi4 1.3.2 release

  ==> Input File <==

--------------------------------------------------------------------------
#psi4
#
memory 32 gb

molecule  {
0 1
  O        1.5280220    -0.7684950     0.0001570
  O        0.6145710     1.3078690     0.0000680
  C       -0.8109530    -0.6383160    -0.0001140
  C        0.4177654     0.0200643    -0.0004645
  C       -1.9669030     0.0367350     0.0001300
  H       -0.7664070    -1.7224440    -0.0001000
  H       -2.9239270    -0.4730490     0.0003210
  H       -1.9656330     1.1220070     0.0001100
  H        2.3294960    -0.2055650     0.0004620
units angstrom
no_reorient  #important for SAPT in psi4, default
symmetry c1  #important for SAPT in psi4, default
}

set PROPERTIES_ORIGIN ["COM"]
properties('MP2/aug-cc-pvtz', properties = ['dipole'])
--------------------------------------------------------------------------

    Molecular point group: c1
  Charge       = 0
  Multiplicity = 1
  Basis Set: AUG-CC-PVTZ
    Blend: AUG-CC-PVTZ
  Basis Set: (AUG-CC-PVTZ AUX)
    Blend: AUG-CC-PVTZ-JKFIT

    Orbital Energies [Eh]
    ---------------------

    Doubly Occupied:

       1A    -20.617371     2A    -20.534650     3A    -11.397547
       4A    -11.284476     5A    -11.258664     6A     -1.446192
       7A     -1.306692     8A     -1.104133     9A     -0.929240
      10A     -0.779850    11A     -0.722775    12A     -0.686793
      13A     -0.626735    14A     -0.620606    15A     -0.593478
      16A     -0.548070    17A     -0.472765    18A     -0.447393
      19A     -0.401362

  @DF-RHF Final Energy:  -265.73625007921510

   => Energetics <=

    Nuclear Repulsion Energy =            161.4769374440990077
    One-Electron Energy =                -682.8687911002718920
    Two-Electron Energy =                 255.6556035769577875
    Total Energy =                       -265.7362500792150968
  Basis Set: (AUG-CC-PVTZ AUX)
    Blend: AUG-CC-PVTZ-RI
    Molecular point group: c1

    Geometry (in Angstrom), charge = 0, multiplicity = 1:

       Center              X                  Y                   Z               Mass
    ------------   -----------------  -----------------  -----------------  -----------------
         O            1.491963079799    -0.773493270173     0.000170661810    15.994914619570
         O            0.578512079799     1.302870729827     0.000081661810    15.994914619570
         C           -0.847011920201    -0.643314270173    -0.000100338190    12.000000000000
         C            0.381706479799     0.015066029827    -0.000450838190    12.000000000000
         C           -2.002961920201     0.031736729827     0.000143661810    12.000000000000
         H           -0.802465920201    -1.727442270173    -0.000086338190     1.007825032230
         H           -2.959985920201    -0.478047270173     0.000334661810     1.007825032230
         H           -2.001691920201     1.117008729827     0.000123661810     1.007825032230
         H            2.293437079799    -0.210563270173     0.000475661810     1.007825032230

  Basis Set: AUG-CC-PVTZ
    Blend: AUG-CC-PVTZ
  Basis Set: (AUG-CC-PVTZ AUX)
    Blend: AUG-CC-PVTZ-JKFIT
	 Reference Energy          =    -265.7362500792150968 [Eh]
	 Singles Energy            =      -0.0000000000000000 [Eh]
	 Same-Spin Energy          =      -0.2568578832488757 [Eh]
	 Opposite-Spin Energy      =      -0.7956789996343073 [Eh]
	 Correlation Energy        =      -1.0525368828831829 [Eh]
	 Total Energy              =    -266.7887869620982997 [Eh]

	 ================> DF-SCS-MP2 Energies <==================
	-----------------------------------------------------------
	 SCS Same-Spin Scale       =       0.3333333333333333 [-]
	 SCS Opposite-Spin Scale   =       1.2000000000000000 [-]
	 SCS Same-Spin Energy      =      -0.0856192944162919 [Eh]
	 SCS Opposite-Spin Energy  =      -0.9548147995611688 [Eh]
	 SCS Correlation Energy    =      -1.0404340939774608 [Eh]
	 SCS Total Energy          =    -266.7766841731925638 [Eh]
	-----------------------------------------------------------

  Dipole Moment: [D]
     X:    -1.0129      Y:    -1.7638      Z:    -0.0000     Total:     2.0339

*** Psi4 exiting successfully. Buy a developer a beer!
