                               Psi4 1.3.2 release

  ==> Input File <==

--------------------------------------------------------------------------
#psi4
#
memory 32 gb

molecule  {
0 1
  O        1.5280220    -0.7684950     0.0001570
  O        0.6145710     1.3078690     0.0000680
  C       -0.8109530    -0.6383160    -0.0001140
  C        0.4754770     0.0955910    -0.0004470
  C       -1.9669030     0.0367350     0.0001300
  H       -0.7664070    -1.7224440    -0.0001000
  H       -2.9239270    -0.4730490     0.0003210
  H       -1.9656330     1.1220070     0.0001100
  H        2.4931601    -0.0906125     0.0005243
units angstrom
no_reorient  #important for SAPT in psi4, default
symmetry c1  #important for SAPT in psi4, default
}

set PROPERTIES_ORIGIN ["COM"]
properties('MP2/aug-cc-pvtz', properties = ['dipole'])
--------------------------------------------------------------------------

    Molecular point group: c1
  Charge       = 0
  Multiplicity = 1
  Basis Set: AUG-CC-PVTZ
    Blend: AUG-CC-PVTZ
  Basis Set: (AUG-CC-PVTZ AUX)
    Blend: AUG-CC-PVTZ-JKFIT

    Orbital Energies [Eh]
    ---------------------

    Doubly Occupied:

       1A    -20.626962     2A    -20.546461     3A    -11.391150
       4A    -11.267187     5A    -11.257307     6A     -1.439931
       7A     -1.340272     8A     -1.079648     9A     -0.889675
      10A     -0.756143    11A     -0.704869    12A     -0.683633
      13A     -0.624110    14A     -0.620422    15A     -0.581959
      16A     -0.545447    17A     -0.484690    18A     -0.455881
      19A     -0.399150

  @DF-RHF Final Energy:  -265.72299648368710

   => Energetics <=

    Nuclear Repulsion Energy =            160.7543565840940119
    One-Electron Energy =                -681.5649165645885432
    Two-Electron Energy =                 255.0875634968074337
    Total Energy =                       -265.7229964836870977
  Basis Set: (AUG-CC-PVTZ AUX)
    Blend: AUG-CC-PVTZ-RI
    Molecular point group: c1

    Geometry (in Angstrom), charge = 0, multiplicity = 1:

       Center              X                  Y                   Z               Mass
    ------------   -----------------  -----------------  -----------------  -----------------
         O            1.480057074097    -0.787685944128     0.000166874206    15.994914619570
         O            0.566606074097     1.288678055872     0.000077874206    15.994914619570
         C           -0.858917925903    -0.657506944128    -0.000104125794    12.000000000000
         C            0.427512074097     0.076400055872    -0.000437125794    12.000000000000
         C           -2.014867925903     0.017544055872     0.000139874206    12.000000000000
         H           -0.814371925903    -1.741634944128    -0.000090125794     1.007825032230
         H           -2.971891925903    -0.492239944128     0.000330874206     1.007825032230
         H           -2.013597925903     1.102816055872     0.000119874206     1.007825032230
         H            2.445195174097    -0.109803444128     0.000534174206     1.007825032230

  Basis Set: AUG-CC-PVTZ
    Blend: AUG-CC-PVTZ
  Basis Set: (AUG-CC-PVTZ AUX)
    Blend: AUG-CC-PVTZ-JKFIT
	 Reference Energy          =    -265.7229964836870977 [Eh]
	 Singles Energy            =      -0.0000000000000000 [Eh]
	 Same-Spin Energy          =      -0.2570867339905037 [Eh]
	 Opposite-Spin Energy      =      -0.7980518887742267 [Eh]
	 Correlation Energy        =      -1.0551386227647304 [Eh]
	 Total Energy              =    -266.7781351064518276 [Eh]

	 ================> DF-SCS-MP2 Energies <==================
	-----------------------------------------------------------
	 SCS Same-Spin Scale       =       0.3333333333333333 [-]
	 SCS Opposite-Spin Scale   =       1.2000000000000000 [-]
	 SCS Same-Spin Energy      =      -0.0856955779968346 [Eh]
	 SCS Opposite-Spin Energy  =      -0.9576622665290720 [Eh]
	 SCS Correlation Energy    =      -1.0433578445259066 [Eh]
	 SCS Total Energy          =    -266.7663543282130263 [Eh]
	-----------------------------------------------------------

  Dipole Moment: [D]
     X:    -0.3563      Y:    -1.2887      Z:     0.0000     Total:     1.3370

*** Psi4 exiting successfully. Buy a developer a beer!
