                               Psi4 1.3.2 release

  ==> Input File <==

--------------------------------------------------------------------------
#psi4
#
memory 32 gb

molecule  {
0 1
  O        1.5280220    -0.7684950     0.0001570
  O        0.6145710     1.3078690     0.0000680
  C       -0.8109530    -0.6383160    -0.0001140
  C        0.5062743     0.1317979    -0.0004371
  C       -1.9669030     0.0367350     0.0001300
  H       -0.7664070    -1.7224440    -0.0001000
  H       -2.9239270    -0.4730490     0.0003210
  H       -1.9656330     1.1220070     0.0001100
  H        2.3294960    -0.2055650     0.0004620
units angstrom
no_reorient  #important for SAPT in psi4, default
symmetry c1  #important for SAPT in psi4, default
}

set PROPERTIES_ORIGIN ["COM"]
properties('MP2/aug-cc-pvtz', properties = ['dipole'])
--------------------------------------------------------------------------

    Molecular point group: c1
  Charge       = 0
  Multiplicity = 1
  Basis Set: AUG-CC-PVTZ
    Blend: AUG-CC-PVTZ
  Basis Set: (AUG-CC-PVTZ AUX)
    Blend: AUG-CC-PVTZ-JKFIT

    Orbital Energies [Eh]
    ---------------------

    Doubly Occupied:

       1A    -20.618997     2A    -20.557142     3A    -11.392789
       4A    -11.261417     5A    -11.256427     6A     -1.472279
       7A     -1.379095     8A     -1.072669     9A     -0.895572
      10A     -0.768516    11A     -0.715804    12A     -0.704528
      13A     -0.638227    14A     -0.630640    15A     -0.595181
      16A     -0.551665    17A     -0.501798    18A     -0.459974
      19A     -0.397438

  @DF-RHF Final Energy:  -265.75800683287872

   => Energetics <=

    Nuclear Repulsion Energy =            161.9364904518051276
    One-Electron Energy =                -683.6486779108140581
    Two-Electron Energy =                 255.9541806261301531
    Total Energy =                       -265.7580068328787206
  Basis Set: (AUG-CC-PVTZ AUX)
    Blend: AUG-CC-PVTZ-RI
    Molecular point group: c1

    Geometry (in Angstrom), charge = 0, multiplicity = 1:

       Center              X                  Y                   Z               Mass
    ------------   -----------------  -----------------  -----------------  -----------------
         O            1.477215924216    -0.792110073488     0.000166096483    15.994914619570
         O            0.563764924216     1.284253926512     0.000077096483    15.994914619570
         C           -0.861759075784    -0.661931073488    -0.000104903517    12.000000000000
         C            0.455468224216     0.108182826512    -0.000428003517    12.000000000000
         C           -2.017709075784     0.013119926512     0.000139096483    12.000000000000
         H           -0.817213075784    -1.746059073488    -0.000090903517     1.007825032230
         H           -2.974733075784    -0.496664073488     0.000330096483     1.007825032230
         H           -2.016439075784     1.098391926512     0.000119096483     1.007825032230
         H            2.278689924216    -0.229180073488     0.000471096483     1.007825032230

  Basis Set: AUG-CC-PVTZ
    Blend: AUG-CC-PVTZ
  Basis Set: (AUG-CC-PVTZ AUX)
    Blend: AUG-CC-PVTZ-JKFIT
	 Reference Energy          =    -265.7580068328787206 [Eh]
	 Singles Energy            =      -0.0000000000000000 [Eh]
	 Same-Spin Energy          =      -0.2536782364563238 [Eh]
	 Opposite-Spin Energy      =      -0.7898689621995976 [Eh]
	 Correlation Energy        =      -1.0435471986559213 [Eh]
	 Total Energy              =    -266.8015540315346357 [Eh]

	 ================> DF-SCS-MP2 Energies <==================
	-----------------------------------------------------------
	 SCS Same-Spin Scale       =       0.3333333333333333 [-]
	 SCS Opposite-Spin Scale   =       1.2000000000000000 [-]
	 SCS Same-Spin Energy      =      -0.0845594121521079 [Eh]
	 SCS Opposite-Spin Energy  =      -0.9478427546395171 [Eh]
	 SCS Correlation Energy    =      -1.0324021667916250 [Eh]
	 SCS Total Energy          =    -266.7904089996703192 [Eh]
	-----------------------------------------------------------

  Dipole Moment: [D]
     X:    -0.3549      Y:    -1.1672      Z:    -0.0001     Total:     1.2200

*** Psi4 exiting successfully. Buy a developer a beer!
