                               Psi4 1.3.2 release

  ==> Input File <==

--------------------------------------------------------------------------
#psi4
#
memory 32 gb

molecule  {
0 1
  O        1.5280220    -0.7684950     0.0001570
  O        0.5933926     1.3101119     0.0000804
  C       -0.8109530    -0.6383160    -0.0001140
  C        0.4754770     0.0955910    -0.0004470
  C       -1.9669030     0.0367350     0.0001300
  H       -0.7664070    -1.7224440    -0.0001000
  H       -2.9239270    -0.4730490     0.0003210
  H       -1.9656330     1.1220070     0.0001100
  H        2.3294960    -0.2055650     0.0004620
units angstrom
no_reorient  #important for SAPT in psi4, default
symmetry c1  #important for SAPT in psi4, default
}

set PROPERTIES_ORIGIN ["COM"]
properties('MP2/aug-cc-pvtz', properties = ['dipole'])
--------------------------------------------------------------------------

    Molecular point group: c1
  Charge       = 0
  Multiplicity = 1
  Basis Set: AUG-CC-PVTZ
    Blend: AUG-CC-PVTZ
  Basis Set: (AUG-CC-PVTZ AUX)
    Blend: AUG-CC-PVTZ-JKFIT

    Orbital Energies [Eh]
    ---------------------

    Doubly Occupied:

       1A    -20.620057     2A    -20.550313     3A    -11.394911
       4A    -11.267575     5A    -11.256907     6A     -1.460748
       7A     -1.358468     8A     -1.081636     9A     -0.906368
      10A     -0.771799    11A     -0.715392    12A     -0.699820
      13A     -0.631322    14A     -0.623339    15A     -0.599537
      16A     -0.550545    17A     -0.491800    18A     -0.459491
      19A     -0.399484

  @DF-RHF Final Energy:  -265.75779876405613

   => Energetics <=

    Nuclear Repulsion Energy =            161.7875996425140386
    One-Electron Energy =                -683.4117773584498536
    Two-Electron Energy =                 255.8663789518797103
    Total Energy =                       -265.7577987640561332
  Basis Set: (AUG-CC-PVTZ AUX)
    Blend: AUG-CC-PVTZ-RI
    Molecular point group: c1

    Geometry (in Angstrom), charge = 0, multiplicity = 1:

       Center              X                  Y                   Z               Mass
    ------------   -----------------  -----------------  -----------------  -----------------
         O            1.487050736666    -0.786575478162     0.000164992127    15.994914619570
         O            0.552421336666     1.292031421838     0.000088392127    15.994914619570
         C           -0.851924263334    -0.656396478162    -0.000106007873    12.000000000000
         C            0.434505736666     0.077510521838    -0.000439007873    12.000000000000
         C           -2.007874263334     0.018654521838     0.000137992127    12.000000000000
         H           -0.807378263334    -1.740524478162    -0.000092007873     1.007825032230
         H           -2.964898263334    -0.491129478162     0.000328992127     1.007825032230
         H           -2.006604263334     1.103926521838     0.000117992127     1.007825032230
         H            2.288524736666    -0.223645478162     0.000469992127     1.007825032230

  Basis Set: AUG-CC-PVTZ
    Blend: AUG-CC-PVTZ
  Basis Set: (AUG-CC-PVTZ AUX)
    Blend: AUG-CC-PVTZ-JKFIT
	 Reference Energy          =    -265.7577987640561332 [Eh]
	 Singles Energy            =      -0.0000000000000000 [Eh]
	 Same-Spin Energy          =      -0.2546149742627009 [Eh]
	 Opposite-Spin Energy      =      -0.7916128692238196 [Eh]
	 Correlation Energy        =      -1.0462278434865204 [Eh]
	 Total Energy              =    -266.8040266075426530 [Eh]

	 ================> DF-SCS-MP2 Energies <==================
	-----------------------------------------------------------
	 SCS Same-Spin Scale       =       0.3333333333333333 [-]
	 SCS Opposite-Spin Scale   =       1.2000000000000000 [-]
	 SCS Same-Spin Energy      =      -0.0848716580875669 [Eh]
	 SCS Opposite-Spin Energy  =      -0.9499354430685835 [Eh]
	 SCS Correlation Energy    =      -1.0348071011561504 [Eh]
	 SCS Total Energy          =    -266.7926058652122947 [Eh]
	-----------------------------------------------------------

  Dipole Moment: [D]
     X:    -0.5188      Y:    -1.3740      Z:    -0.0001     Total:     1.4687

*** Psi4 exiting successfully. Buy a developer a beer!
