                               Psi4 1.4a3.dev225

  ==> Input File <==

--------------------------------------------------------------------------
#psi4
#
memory 32 gb

molecule  {
0 1
  O        1.5281450    -0.7681140     0.0000130
  O        0.6140580     1.3077470    -0.0000100
  C       -0.8107600    -0.6385920    -0.0000170
  C        0.4732985     0.0753202    -0.0000049
  C       -1.9665160     0.0368920     0.0000130
  H       -0.7670810    -1.7227100    -0.0000460
  H       -2.9234270    -0.4732330     0.0000090
  H       -1.9658970     1.1221510     0.0000420
  H        2.3290270    -0.2042190     0.0000210
units angstrom
no_reorient  #important for SAPT in psi4, default
symmetry c1  #important for SAPT in psi4, default
}

set PROPERTIES_ORIGIN ["COM"]
properties('MP2/aug-cc-pvtz', properties = ['dipole'])
--------------------------------------------------------------------------

    Molecular point group: c1
  Charge       = 0
  Multiplicity = 1
  Basis Set: AUG-CC-PVTZ
    Blend: AUG-CC-PVTZ
  Basis Set: (AUG-CC-PVTZ AUX)
    Blend: AUG-CC-PVTZ-JKFIT

    Orbital Energies [Eh]
    ---------------------

    Doubly Occupied:

       1A    -20.621393     2A    -20.545766     3A    -11.395682
       4A    -11.270553     5A    -11.258133     6A     -1.461620
       7A     -1.346231     8A     -1.084981     9A     -0.911426
      10A     -0.775588    11A     -0.715328    12A     -0.698786
      13A     -0.631209    14A     -0.621860    15A     -0.599888
      16A     -0.549600    17A     -0.485723    18A     -0.457301
      19A     -0.400301

  @DF-RHF Final Energy:  -265.75593820997926

   => Energetics <=

    Nuclear Repulsion Energy =            161.6959075595022455
    One-Electron Energy =                -683.2409554754149212
    Two-Electron Energy =                 255.7891097059333276
    Total Energy =                       -265.7559382099792629
  Basis Set: (AUG-CC-PVTZ AUX)
    Blend: AUG-CC-PVTZ-RI
    Molecular point group: c1

    Geometry (in Angstrom), charge = 0, multiplicity = 1:

       Center              X                  Y                   Z               Mass
    ------------   -----------------  -----------------  -----------------  -----------------
         O            1.482835945958    -0.782371131104     0.000013452809    15.994914619570
         O            0.568748945958     1.293489868896    -0.000009547191    15.994914619570
         C           -0.856069054042    -0.652849131104    -0.000016547191    12.000000000000
         C            0.427989445958     0.061063068896    -0.000004447191    12.000000000000
         C           -2.011825054042     0.022634868896     0.000013452809    12.000000000000
         H           -0.812390054042    -1.736967131104    -0.000045547191     1.007825032230
         H           -2.968736054042    -0.487490131104     0.000009452809     1.007825032230
         H           -2.011206054042     1.107893868896     0.000042452809     1.007825032230
         H            2.283717945958    -0.218476131104     0.000021452809     1.007825032230

  Basis Set: AUG-CC-PVTZ
    Blend: AUG-CC-PVTZ
  Basis Set: (AUG-CC-PVTZ AUX)
    Blend: AUG-CC-PVTZ-JKFIT
	 Reference Energy          =    -265.7559382099792629 [Eh]
	 Singles Energy            =      -0.0000000000000000 [Eh]
	 Same-Spin Energy          =      -0.2549394273019089 [Eh]
	 Opposite-Spin Energy      =      -0.7921465668920024 [Eh]
	 Correlation Energy        =      -1.0470859941939112 [Eh]
	 Total Energy              =    -266.8030242041731981 [Eh]

	 ================> DF-SCS-MP2 Energies <==================
	-----------------------------------------------------------
	 SCS Same-Spin Scale       =       0.3333333333333333 [-]
	 SCS Opposite-Spin Scale   =       1.2000000000000000 [-]
	 SCS Same-Spin Energy      =      -0.0849798091006363 [Eh]
	 SCS Opposite-Spin Energy  =      -0.9505758802704027 [Eh]
	 SCS Correlation Energy    =      -1.0355556893710389 [Eh]
	 SCS Total Energy          =    -266.7914938993503142 [Eh]
	-----------------------------------------------------------

  Dipole Moment: [D]
     X:    -0.5913      Y:    -1.5090      Z:     0.0000     Total:     1.6207

*** Psi4 exiting successfully. Buy a developer a beer!
