                               Psi4 1.3.2 release

  ==> Input File <==

--------------------------------------------------------------------------
#psi4
#
memory 32 gb

molecule  {
0 1
  O        1.5280220    -0.7684950     0.0001570
  O        0.6145710     1.3078690     0.0000680
  C       -0.8109530    -0.6383160    -0.0001140
  C        0.5451440    -0.0428980    -0.0004609
  C       -1.9669030     0.0367350     0.0001300
  H       -0.7664070    -1.7224440    -0.0001000
  H       -2.9239270    -0.4730490     0.0003210
  H       -1.9656330     1.1220070     0.0001100
  H        2.3294960    -0.2055650     0.0004620
units angstrom
no_reorient  #important for SAPT in psi4, default
symmetry c1  #important for SAPT in psi4, default
}

set PROPERTIES_ORIGIN ["COM"]
properties('MP2/aug-cc-pvtz', properties = ['dipole'])
--------------------------------------------------------------------------

    Molecular point group: c1
  Charge       = 0
  Multiplicity = 1
  Basis Set: AUG-CC-PVTZ
    Blend: AUG-CC-PVTZ
  Basis Set: (AUG-CC-PVTZ AUX)
    Blend: AUG-CC-PVTZ-JKFIT

    Orbital Energies [Eh]
    ---------------------

    Doubly Occupied:

       1A    -20.658114     2A    -20.518299     3A    -11.399662
       4A    -11.269745     5A    -11.258195     6A     -1.535512
       7A     -1.279634     8A     -1.078371     9A     -0.939210
      10A     -0.813299    11A     -0.729601    12A     -0.702214
      13A     -0.674002    14A     -0.627446    15A     -0.583230
      16A     -0.517323    17A     -0.455419    18A     -0.432583
      19A     -0.389767

  @DF-RHF Final Energy:  -265.71841111084734

   => Energetics <=

    Nuclear Repulsion Energy =            161.6979584236267158
    One-Electron Energy =                -683.1094846951039017
    Two-Electron Energy =                 255.6931151606298442
    Total Energy =                       -265.7184111108473417
  Basis Set: (AUG-CC-PVTZ AUX)
    Blend: AUG-CC-PVTZ-RI
    Molecular point group: c1

    Geometry (in Angstrom), charge = 0, multiplicity = 1:

       Center              X                  Y                   Z               Mass
    ------------   -----------------  -----------------  -----------------  -----------------
         O            1.470739541465    -0.763002632125     0.000170061986    15.994914619570
         O            0.557288541465     1.313361367875     0.000081061986    15.994914619570
         C           -0.868235458535    -0.632823632125    -0.000100938014    12.000000000000
         C            0.487861541465    -0.037405632125    -0.000447838014    12.000000000000
         C           -2.024185458535     0.042227367875     0.000143061986    12.000000000000
         H           -0.823689458535    -1.716951632125    -0.000086938014     1.007825032230
         H           -2.981209458535    -0.467556632125     0.000334061986     1.007825032230
         H           -2.022915458535     1.127499367875     0.000123061986     1.007825032230
         H            2.272213541465    -0.200072632125     0.000475061986     1.007825032230

  Basis Set: AUG-CC-PVTZ
    Blend: AUG-CC-PVTZ
  Basis Set: (AUG-CC-PVTZ AUX)
    Blend: AUG-CC-PVTZ-JKFIT
	 Reference Energy          =    -265.7184111108473417 [Eh]
	 Singles Energy            =      -0.0000000000000000 [Eh]
	 Same-Spin Energy          =      -0.2561963203453153 [Eh]
	 Opposite-Spin Energy      =      -0.7940266544913519 [Eh]
	 Correlation Energy        =      -1.0502229748366672 [Eh]
	 Total Energy              =    -266.7686340856840275 [Eh]

	 ================> DF-SCS-MP2 Energies <==================
	-----------------------------------------------------------
	 SCS Same-Spin Scale       =       0.3333333333333333 [-]
	 SCS Opposite-Spin Scale   =       1.2000000000000000 [-]
	 SCS Same-Spin Energy      =      -0.0853987734484384 [Eh]
	 SCS Opposite-Spin Energy  =      -0.9528319853896222 [Eh]
	 SCS Correlation Energy    =      -1.0382307588380606 [Eh]
	 SCS Total Energy          =    -266.7566418696853816 [Eh]
	-----------------------------------------------------------

  Dipole Moment: [D]
     X:     0.0890      Y:    -2.4074      Z:     0.0001     Total:     2.4090

*** Psi4 exiting successfully. Buy a developer a beer!
