                               Psi4 1.4a3.dev225

  ==> Input File <==

--------------------------------------------------------------------------
#psi4
#
memory 32 gb

molecule  {
0 1
  O        1.5281450    -0.7681140     0.0000130
  O        0.6140580     1.3077470    -0.0000100
  C       -0.8107600    -0.6385920    -0.0000170
  C        0.4812418     0.1448680    -0.0000052
  C       -1.9665160     0.0368920     0.0000130
  H       -0.7670810    -1.7227100    -0.0000460
  H       -2.9234270    -0.4732330     0.0000090
  H       -1.9658970     1.1221510     0.0000420
  H        2.3290270    -0.2042190     0.0000210
units angstrom
no_reorient  #important for SAPT in psi4, default
symmetry c1  #important for SAPT in psi4, default
}

set PROPERTIES_ORIGIN ["COM"]
properties('MP2/aug-cc-pvtz', properties = ['dipole'])
--------------------------------------------------------------------------

    Molecular point group: c1
  Charge       = 0
  Multiplicity = 1
  Basis Set: AUG-CC-PVTZ
    Blend: AUG-CC-PVTZ
  Basis Set: (AUG-CC-PVTZ AUX)
    Blend: AUG-CC-PVTZ-JKFIT

    Orbital Energies [Eh]
    ---------------------

    Doubly Occupied:

       1A    -20.610582     2A    -20.560182     3A    -11.391883
       4A    -11.263845     5A    -11.257519     6A     -1.468865
       7A     -1.374920     8A     -1.077078     9A     -0.894285
      10A     -0.764086    11A     -0.716388    12A     -0.703285
      13A     -0.633440    14A     -0.630362    15A     -0.595685
      16A     -0.555083    17A     -0.502174    18A     -0.461801
      19A     -0.399920

  @DF-RHF Final Energy:  -265.75710370020067

   => Energetics <=

    Nuclear Repulsion Energy =            161.9686470721920557
    One-Electron Energy =                -683.7287343998204960
    Two-Electron Energy =                 256.0029836274277386
    Total Energy =                       -265.7571037002006733
  Basis Set: (AUG-CC-PVTZ AUX)
    Blend: AUG-CC-PVTZ-RI
    Molecular point group: c1

    Geometry (in Angstrom), charge = 0, multiplicity = 1:

       Center              X                  Y                   Z               Mass
    ------------   -----------------  -----------------  -----------------  -----------------
         O            1.481512451022    -0.793959030479     0.000013502794    15.994914619570
         O            0.567425451022     1.281901969521    -0.000009497206    15.994914619570
         C           -0.857392548978    -0.664437030479    -0.000016497206    12.000000000000
         C            0.434609251022     0.119022969521    -0.000004697206    12.000000000000
         C           -2.013148548978     0.011046969521     0.000013502794    12.000000000000
         H           -0.813713548978    -1.748555030479    -0.000045497206     1.007825032230
         H           -2.970059548978    -0.499078030479     0.000009502794     1.007825032230
         H           -2.012529548978     1.096305969521     0.000042502794     1.007825032230
         H            2.282394451022    -0.230064030479     0.000021502794     1.007825032230

  Basis Set: AUG-CC-PVTZ
    Blend: AUG-CC-PVTZ
  Basis Set: (AUG-CC-PVTZ AUX)
    Blend: AUG-CC-PVTZ-JKFIT
	 Reference Energy          =    -265.7571037002006733 [Eh]
	 Singles Energy            =      -0.0000000000000000 [Eh]
	 Same-Spin Energy          =      -0.2537052581000440 [Eh]
	 Opposite-Spin Energy      =      -0.7899893515551912 [Eh]
	 Correlation Energy        =      -1.0436946096552351 [Eh]
	 Total Energy              =    -266.8007983098559066 [Eh]

	 ================> DF-SCS-MP2 Energies <==================
	-----------------------------------------------------------
	 SCS Same-Spin Scale       =       0.3333333333333333 [-]
	 SCS Opposite-Spin Scale   =       1.2000000000000000 [-]
	 SCS Same-Spin Energy      =      -0.0845684193666813 [Eh]
	 SCS Opposite-Spin Energy  =      -0.9479872218662294 [Eh]
	 SCS Correlation Energy    =      -1.0325556412329107 [Eh]
	 SCS Total Energy          =    -266.7896593414336053 [Eh]
	-----------------------------------------------------------

  Dipole Moment: [D]
     X:    -0.5818      Y:    -1.0353      Z:     0.0000     Total:     1.1876

*** Psi4 exiting successfully. Buy a developer a beer!
