                               Psi4 1.3.2 release

  ==> Input File <==

--------------------------------------------------------------------------
#psi4
#
memory 32 gb

molecule  {
0 1
  F        2.3385500     0.0000060     0.9042500
  F        1.3594210     1.0893460    -0.7117020
  F        1.3594370    -1.0893460    -0.7117010
  F       -1.3594380     1.0893620    -0.7116760
  F       -1.3594210    -1.0893290    -0.7117260
  F       -2.3385500    -0.0000290     0.9042500
  C        0.0000000    -0.0000100     0.8940430
  C        1.3526233     0.0000017     0.0226437
  C       -1.2685580     0.0000010     0.0768010
  H        0.0000000     0.8876500     1.5294500
  H        0.0000010    -0.8876820     1.5294320
units angstrom
no_reorient  #important for SAPT in psi4, default
symmetry c1  #important for SAPT in psi4, default
}

set PROPERTIES_ORIGIN ["COM"]
properties('MP2/aug-cc-pvtz', properties = ['dipole'])
--------------------------------------------------------------------------

    Molecular point group: c1
  Charge       = 0
  Multiplicity = 1
  Basis Set: AUG-CC-PVTZ
    Blend: AUG-CC-PVTZ
  Basis Set: (AUG-CC-PVTZ AUX)
    Blend: AUG-CC-PVTZ-JKFIT

    Orbital Energies [Eh]
    ---------------------

    Doubly Occupied:

       1A    -26.365399     2A    -26.364600     3A    -26.364579
       4A    -26.349566     5A    -26.348352     6A    -26.348330
       7A    -11.534488     8A    -11.524810     9A    -11.295915
      10A     -1.763206    11A     -1.734595    12A     -1.671252
      13A     -1.669504    14A     -1.642362    15A     -1.642356
      16A     -1.113294    17A     -0.991972    18A     -0.935367
      19A     -0.860993    20A     -0.859454    21A     -0.844774
      22A     -0.831150    23A     -0.821555    24A     -0.770810
      25A     -0.743951    26A     -0.734099    27A     -0.717650
      28A     -0.717545    29A     -0.698060    30A     -0.696464
      31A     -0.677755    32A     -0.671509    33A     -0.670022
      34A     -0.657988    35A     -0.610534    36A     -0.587002
      37A     -0.548191

  @DF-RHF Final Energy:  -711.70667992632571

   => Energetics <=

    Nuclear Repulsion Energy =            543.3193219569307075
    One-Electron Energy =               -2071.2931051711266264
    Two-Electron Energy =                 816.2671032878702135
    Total Energy =                       -711.7066799263257053
  Basis Set: (AUG-CC-PVTZ AUX)
    Blend: AUG-CC-PVTZ-RI
    Molecular point group: c1

    Geometry (in Angstrom), charge = 0, multiplicity = 1:

       Center              X                  Y                   Z               Mass
    ------------   -----------------  -----------------  -----------------  -----------------
         F            2.331913649124     0.000005538613     0.935311041019    18.998403162730
         F            1.352784649124     1.089345538613    -0.680640958981    18.998403162730
         F            1.352800649124    -1.089346461387    -0.680639958981    18.998403162730
         F           -1.366074350876     1.089361538613    -0.680614958981    18.998403162730
         F           -1.366057350876    -1.089329461387    -0.680664958981    18.998403162730
         F           -2.345186350876    -0.000029461387     0.935311041019    18.998403162730
         C           -0.006636350876    -0.000010461387     0.925104041019    12.000000000000
         C            1.345986949124     0.000001238613     0.053704741019    12.000000000000
         C           -1.275194350876     0.000000538613     0.107862041019    12.000000000000
         H           -0.006636350876     0.887649538613     1.560511041019     1.007825032230
         H           -0.006635350876    -0.887682461387     1.560493041019     1.007825032230

  Basis Set: AUG-CC-PVTZ
    Blend: AUG-CC-PVTZ
  Basis Set: (AUG-CC-PVTZ AUX)
    Blend: AUG-CC-PVTZ-JKFIT
	 Reference Energy          =    -711.7066799263257053 [Eh]
	 Singles Energy            =      -0.0000000000000000 [Eh]
	 Same-Spin Energy          =      -0.5595241446740254 [Eh]
	 Opposite-Spin Energy      =      -1.6085399102259681 [Eh]
	 Correlation Energy        =      -2.1680640548999937 [Eh]
	 Total Energy              =    -713.8747439812257198 [Eh]

	 ================> DF-SCS-MP2 Energies <==================
	-----------------------------------------------------------
	 SCS Same-Spin Scale       =       0.3333333333333333 [-]
	 SCS Opposite-Spin Scale   =       1.2000000000000000 [-]
	 SCS Same-Spin Energy      =      -0.1865080482246751 [Eh]
	 SCS Opposite-Spin Energy  =      -1.9302478922711617 [Eh]
	 SCS Correlation Energy    =      -2.1167559404958367 [Eh]
	 SCS Total Energy          =    -713.8234358668215691 [Eh]
	-----------------------------------------------------------

  Dipole Moment: [D]
     X:     0.6702      Y:     0.0000      Z:     1.6951     Total:     1.8227

*** Psi4 exiting successfully. Buy a developer a beer!
