                               Psi4 1.3.2 release

  ==> Input File <==

--------------------------------------------------------------------------
#psi4
#
memory 32 gb

molecule  {
0 1
  F        2.3090206     0.0000057     0.9410881
  F        1.3594210     1.0893460    -0.7117020
  F        1.3594370    -1.0893460    -0.7117010
  F       -1.3594380     1.0893620    -0.7116760
  F       -1.3594210    -1.0893290    -0.7117260
  F       -2.3385500    -0.0000290     0.9042500
  C        0.0000000    -0.0000100     0.8940430
  C        1.2685580     0.0000010     0.0768010
  C       -1.2685580     0.0000010     0.0768010
  H        0.0000000     0.8876500     1.5294500
  H        0.0000010    -0.8876820     1.5294320
units angstrom
no_reorient  #important for SAPT in psi4, default
symmetry c1  #important for SAPT in psi4, default
}

set PROPERTIES_ORIGIN ["COM"]
properties('MP2/aug-cc-pvtz', properties = ['dipole'])
--------------------------------------------------------------------------

    Molecular point group: c1
  Charge       = 0
  Multiplicity = 1
  Basis Set: AUG-CC-PVTZ
    Blend: AUG-CC-PVTZ
  Basis Set: (AUG-CC-PVTZ AUX)
    Blend: AUG-CC-PVTZ-JKFIT

    Orbital Energies [Eh]
    ---------------------

    Doubly Occupied:

       1A    -26.358027     2A    -26.356022     3A    -26.356001
       4A    -26.355852     5A    -26.353815     6A    -26.353793
       7A    -11.534669     8A    -11.532976     9A    -11.305117
      10A     -1.743942    11A     -1.738158    12A     -1.651960
      13A     -1.651340    14A     -1.647857    15A     -1.646101
      16A     -1.139974    17A     -0.993891    18A     -0.934321
      19A     -0.849998    20A     -0.846349    21A     -0.845959
      22A     -0.831466    23A     -0.818894    24A     -0.769478
      25A     -0.739509    26A     -0.725833    27A     -0.721853
      28A     -0.714940    29A     -0.688119    30A     -0.686321
      31A     -0.672729    32A     -0.671667    33A     -0.668326
      34A     -0.661655    35A     -0.621625    36A     -0.601883
      37A     -0.582711

  @DF-RHF Final Energy:  -711.71219370133792

   => Energetics <=

    Nuclear Repulsion Energy =            543.5760122155993486
    One-Electron Energy =               -2071.8301483350342096
    Two-Electron Energy =                 816.5419424180969372
    Total Energy =                       -711.7121937013379238
  Basis Set: (AUG-CC-PVTZ AUX)
    Blend: AUG-CC-PVTZ-RI
    Molecular point group: c1

    Geometry (in Angstrom), charge = 0, multiplicity = 1:

       Center              X                  Y                   Z               Mass
    ------------   -----------------  -----------------  -----------------  -----------------
         F            2.312711435770     0.000005331369     0.963269543750    18.998403162730
         F            1.363111835770     1.089345631369    -0.689520556250    18.998403162730
         F            1.363127835770    -1.089346368631    -0.689519556250    18.998403162730
         F           -1.355747164230     1.089361631369    -0.689494556250    18.998403162730
         F           -1.355730164230    -1.089329368631    -0.689544556250    18.998403162730
         F           -2.334859164230    -0.000029368631     0.926431443750    18.998403162730
         C            0.003690835770    -0.000010368631     0.916224443750    12.000000000000
         C            1.272248835770     0.000000631369     0.098982443750    12.000000000000
         C           -1.264867164230     0.000000631369     0.098982443750    12.000000000000
         H            0.003690835770     0.887649631369     1.551631443750     1.007825032230
         H            0.003691835770    -0.887682368631     1.551613443750     1.007825032230

  Basis Set: AUG-CC-PVTZ
    Blend: AUG-CC-PVTZ
  Basis Set: (AUG-CC-PVTZ AUX)
    Blend: AUG-CC-PVTZ-JKFIT
	 Reference Energy          =    -711.7121937013379238 [Eh]
	 Singles Energy            =      -0.0000000000000000 [Eh]
	 Same-Spin Energy          =      -0.5604178461839258 [Eh]
	 Opposite-Spin Energy      =      -1.6111465987705089 [Eh]
	 Correlation Energy        =      -2.1715644449544347 [Eh]
	 Total Energy              =    -713.8837581462923936 [Eh]

	 ================> DF-SCS-MP2 Energies <==================
	-----------------------------------------------------------
	 SCS Same-Spin Scale       =       0.3333333333333333 [-]
	 SCS Opposite-Spin Scale   =       1.2000000000000000 [-]
	 SCS Same-Spin Energy      =      -0.1868059487279752 [Eh]
	 SCS Opposite-Spin Energy  =      -1.9333759185246107 [Eh]
	 SCS Correlation Energy    =      -2.1201818672525858 [Eh]
	 SCS Total Energy          =    -713.8323755685904644 [Eh]
	-----------------------------------------------------------

  Dipole Moment: [D]
     X:     0.0719      Y:     0.0000      Z:     2.0123     Total:     2.0136

*** Psi4 exiting successfully. Buy a developer a beer!
