                               Psi4 1.3.2 release

  ==> Input File <==

--------------------------------------------------------------------------
#psi4
#
memory 32 gb

molecule  {
0 1
  F        2.3385500     0.0000060     0.9042500
  F        1.3594210     1.0893460    -0.7117020
  F        1.3594370    -1.0893460    -0.7117010
  F       -1.3594380     1.0893620    -0.7116760
  F       -1.3594210    -1.0893290    -0.7117260
  F       -2.3385500    -0.0000290     0.9042500
  C        0.0000000    -0.0000100     0.8940430
  C        1.2824906     0.0451248     0.1001258
  C       -1.2685580     0.0000010     0.0768010
  H        0.0000000     0.8876500     1.5294500
  H        0.0000010    -0.8876820     1.5294320
units angstrom
no_reorient  #important for SAPT in psi4, default
symmetry c1  #important for SAPT in psi4, default
}

set PROPERTIES_ORIGIN ["COM"]
properties('MP2/aug-cc-pvtz', properties = ['dipole'])
--------------------------------------------------------------------------

    Molecular point group: c1
  Charge       = 0
  Multiplicity = 1
  Basis Set: AUG-CC-PVTZ
    Blend: AUG-CC-PVTZ
  Basis Set: (AUG-CC-PVTZ AUX)
    Blend: AUG-CC-PVTZ-JKFIT

    Orbital Energies [Eh]
    ---------------------

    Doubly Occupied:

       1A    -26.366942     2A    -26.364058     3A    -26.356794
       4A    -26.354416     5A    -26.352535     6A    -26.334461
       7A    -11.534853     8A    -11.534336     9A    -11.307065
      10A     -1.747756    11A     -1.739799    12A     -1.666270
      13A     -1.648813    14A     -1.647483    15A     -1.626858
      16A     -1.140683    17A     -0.995119    18A     -0.935379
      19A     -0.852618    20A     -0.847894    21A     -0.843701
      22A     -0.830551    23A     -0.821813    24A     -0.769927
      25A     -0.737837    26A     -0.729074    27A     -0.722016
      28A     -0.711761    29A     -0.692550    30A     -0.682598
      31A     -0.674679    32A     -0.665632    33A     -0.663790
      34A     -0.656931    35A     -0.623164    36A     -0.598986
      37A     -0.586363

  @DF-RHF Final Energy:  -711.71001096082955

   => Energetics <=

    Nuclear Repulsion Energy =            543.3070979033905132
    One-Electron Energy =               -2071.3032087735800815
    Two-Electron Energy =                 816.2860999093600185
    Total Energy =                       -711.7100109608295497
  Basis Set: (AUG-CC-PVTZ AUX)
    Blend: AUG-CC-PVTZ-RI
    Molecular point group: c1

    Geometry (in Angstrom), charge = 0, multiplicity = 1:

       Center              X                  Y                   Z               Mass
    ------------   -----------------  -----------------  -----------------  -----------------
         F            2.337450220166    -0.003556669156     0.929194277354    18.998403162730
         F            1.358321220166     1.085783330844    -0.686757722646    18.998403162730
         F            1.358337220166    -1.092908669156    -0.686756722646    18.998403162730
         F           -1.360537779834     1.085799330844    -0.686731722646    18.998403162730
         F           -1.360520779834    -1.092891669156    -0.686781722646    18.998403162730
         F           -2.339649779834    -0.003591669156     0.929194277354    18.998403162730
         C           -0.001099779834    -0.003572669156     0.918987277354    12.000000000000
         C            1.281390820166     0.041562130844     0.125070077354    12.000000000000
         C           -1.269657779834    -0.003561669156     0.101745277354    12.000000000000
         H           -0.001099779834     0.884087330844     1.554394277354     1.007825032230
         H           -0.001098779834    -0.891244669156     1.554376277354     1.007825032230

  Basis Set: AUG-CC-PVTZ
    Blend: AUG-CC-PVTZ
  Basis Set: (AUG-CC-PVTZ AUX)
    Blend: AUG-CC-PVTZ-JKFIT
	 Reference Energy          =    -711.7100109608295497 [Eh]
	 Singles Energy            =      -0.0000000000000000 [Eh]
	 Same-Spin Energy          =      -0.5604492920239352 [Eh]
	 Opposite-Spin Energy      =      -1.6111839570979050 [Eh]
	 Correlation Energy        =      -2.1716332491218404 [Eh]
	 Total Energy              =    -713.8816442099514461 [Eh]

	 ================> DF-SCS-MP2 Energies <==================
	-----------------------------------------------------------
	 SCS Same-Spin Scale       =       0.3333333333333333 [-]
	 SCS Opposite-Spin Scale   =       1.2000000000000000 [-]
	 SCS Same-Spin Energy      =      -0.1868164306746451 [Eh]
	 SCS Opposite-Spin Energy  =      -1.9334207485174859 [Eh]
	 SCS Correlation Energy    =      -2.1202371791921308 [Eh]
	 SCS Total Energy          =    -713.8302481400216948 [Eh]
	-----------------------------------------------------------

  Dipole Moment: [D]
     X:     0.1131      Y:     0.3418      Z:     2.2334     Total:     2.2622

*** Psi4 exiting successfully. Buy a developer a beer!
