                               Psi4 1.3.2 release

  ==> Input File <==

--------------------------------------------------------------------------
#psi4
#
memory 32 gb

molecule  {
0 1
  F        2.3385500     0.0000060     0.9042500
  F        1.3594210     1.0893460    -0.7117020
  F        1.3594370    -1.0893460    -0.7117010
  F       -1.3594380     1.0893620    -0.7116760
  F       -1.3594210    -1.0893290    -0.7117260
  F       -2.3385500    -0.0000290     0.9042500
  C        0.0000000    -0.0000100     0.8940430
  C        1.3470338    -0.0000008     0.2138784
  C       -1.2685580     0.0000010     0.0768010
  H        0.0000000     0.8876500     1.5294500
  H        0.0000010    -0.8876820     1.5294320
units angstrom
no_reorient  #important for SAPT in psi4, default
symmetry c1  #important for SAPT in psi4, default
}

set PROPERTIES_ORIGIN ["COM"]
properties('MP2/aug-cc-pvtz', properties = ['dipole'])
--------------------------------------------------------------------------

    Molecular point group: c1
  Charge       = 0
  Multiplicity = 1
  Basis Set: AUG-CC-PVTZ
    Blend: AUG-CC-PVTZ
  Basis Set: (AUG-CC-PVTZ AUX)
    Blend: AUG-CC-PVTZ-JKFIT

    Orbital Energies [Eh]
    ---------------------

    Doubly Occupied:

       1A    -26.417744     2A    -26.356951     3A    -26.349130
       4A    -26.349108     5A    -26.322755     6A    -26.322732
       7A    -11.538661     8A    -11.534734     9A    -11.308867
      10A     -1.810333    11A     -1.737789    12A     -1.647843
      13A     -1.643094    14A     -1.642152    15A     -1.596893
      16A     -1.140298    17A     -1.007632    18A     -0.947255
      19A     -0.862472    20A     -0.858513    21A     -0.855452
      22A     -0.833774    23A     -0.828228    24A     -0.775642
      25A     -0.730248    26A     -0.727218    27A     -0.712313
      28A     -0.703929    29A     -0.686467    30A     -0.678872
      31A     -0.666640    32A     -0.662481    33A     -0.652927
      34A     -0.633223    35A     -0.618495    36A     -0.597679
      37A     -0.580442

  @DF-RHF Final Energy:  -711.68377404321586

   => Energetics <=

    Nuclear Repulsion Energy =            542.6110390343096697
    One-Electron Energy =               -2069.9116514112156437
    Two-Electron Energy =                 815.6168383336901115
    Total Energy =                       -711.6837740432158625
  Basis Set: (AUG-CC-PVTZ AUX)
    Blend: AUG-CC-PVTZ-RI
    Molecular point group: c1

    Geometry (in Angstrom), charge = 0, multiplicity = 1:

       Center              X                  Y                   Z               Mass
    ------------   -----------------  -----------------  -----------------  -----------------
         F            2.332354907821     0.000005735973     0.920214167490    18.998403162730
         F            1.353225907821     1.089345735973    -0.695737832510    18.998403162730
         F            1.353241907821    -1.089346264027    -0.695736832510    18.998403162730
         F           -1.365633092179     1.089361735973    -0.695711832510    18.998403162730
         F           -1.365616092179    -1.089329264027    -0.695761832510    18.998403162730
         F           -2.344745092179    -0.000029264027     0.920214167490    18.998403162730
         C           -0.006195092179    -0.000010264027     0.910007167490    12.000000000000
         C            1.340838707821    -0.000001064027     0.229842567490    12.000000000000
         C           -1.274753092179     0.000000735973     0.092765167490    12.000000000000
         H           -0.006195092179     0.887649735973     1.545414167490     1.007825032230
         H           -0.006194092179    -0.887682264027     1.545396167490     1.007825032230

  Basis Set: AUG-CC-PVTZ
    Blend: AUG-CC-PVTZ
  Basis Set: (AUG-CC-PVTZ AUX)
    Blend: AUG-CC-PVTZ-JKFIT
	 Reference Energy          =    -711.6837740432158625 [Eh]
	 Singles Energy            =      -0.0000000000000000 [Eh]
	 Same-Spin Energy          =      -0.5611753035470558 [Eh]
	 Opposite-Spin Energy      =      -1.6127909132928711 [Eh]
	 Correlation Energy        =      -2.1739662168399270 [Eh]
	 Total Energy              =    -713.8577402600558344 [Eh]

	 ================> DF-SCS-MP2 Energies <==================
	-----------------------------------------------------------
	 SCS Same-Spin Scale       =       0.3333333333333333 [-]
	 SCS Opposite-Spin Scale   =       1.2000000000000000 [-]
	 SCS Same-Spin Energy      =      -0.1870584345156853 [Eh]
	 SCS Opposite-Spin Energy  =      -1.9353490959514452 [Eh]
	 SCS Correlation Energy    =      -2.1224075304671306 [Eh]
	 SCS Total Energy          =    -713.8061815736830340 [Eh]
	-----------------------------------------------------------

  Dipole Moment: [D]
     X:     0.6655      Y:    -0.0000      Z:     3.1230     Total:     3.1931

*** Psi4 exiting successfully. Buy a developer a beer!
