                               Psi4 1.3.2 release

  ==> Input File <==

--------------------------------------------------------------------------
#psi4
#
memory 32 gb

molecule  {
0 1
  F        2.3385500     0.0000060     0.9042500
  F        1.3594210     1.0893460    -0.7117020
  F        1.3594370    -1.0893460    -0.7117010
  F       -1.3594380     1.0893620    -0.7116760
  F       -1.3594210    -1.0893290    -0.7117260
  F       -2.3385500    -0.0000290     0.9042500
  C        0.0000000    -0.0000100     0.8940430
  C        1.1844927     0.0000003     0.1309583
  C       -1.2685580     0.0000010     0.0768010
  H        0.0000000     0.8876500     1.5294500
  H        0.0000010    -0.8876820     1.5294320
units angstrom
no_reorient  #important for SAPT in psi4, default
symmetry c1  #important for SAPT in psi4, default
}

set PROPERTIES_ORIGIN ["COM"]
properties('MP2/aug-cc-pvtz', properties = ['dipole'])
--------------------------------------------------------------------------

    Molecular point group: c1
  Charge       = 0
  Multiplicity = 1
  Basis Set: AUG-CC-PVTZ
    Blend: AUG-CC-PVTZ
  Basis Set: (AUG-CC-PVTZ AUX)
    Blend: AUG-CC-PVTZ-JKFIT

    Orbital Energies [Eh]
    ---------------------

    Doubly Occupied:

       1A    -26.363774     2A    -26.360508     3A    -26.360487
       4A    -26.348166     5A    -26.344303     6A    -26.344281
       7A    -11.544056     8A    -11.537579     9A    -11.314446
      10A     -1.748168    11A     -1.717291    12A     -1.655640
      13A     -1.654632    14A     -1.627542    15A     -1.625011
      16A     -1.175485    17A     -1.000778    18A     -0.929224
      19A     -0.852105    20A     -0.848326    21A     -0.846069
      22A     -0.816715    23A     -0.807611    24A     -0.765681
      25A     -0.740354    26A     -0.728717    27A     -0.711564
      28A     -0.710021    29A     -0.685650    30A     -0.685595
      31A     -0.671105    32A     -0.659378    33A     -0.658954
      34A     -0.651305    35A     -0.632709    36A     -0.630169
      37A     -0.601720

  @DF-RHF Final Energy:  -711.69314027158964

   => Energetics <=

    Nuclear Repulsion Energy =            543.5571128665455944
    One-Electron Energy =               -2071.7902690656005689
    Two-Electron Energy =                 816.5400159274653333
    Total Energy =                       -711.6931402715896411
  Basis Set: (AUG-CC-PVTZ AUX)
    Blend: AUG-CC-PVTZ-RI
    Molecular point group: c1

    Geometry (in Angstrom), charge = 0, multiplicity = 1:

       Center              X                  Y                   Z               Mass
    ------------   -----------------  -----------------  -----------------  -----------------
         F            2.345186587585     0.000005649135     0.926760229804    18.998403162730
         F            1.366057587585     1.089345649135    -0.689191770196    18.998403162730
         F            1.366073587585    -1.089346350865    -0.689190770196    18.998403162730
         F           -1.352801412415     1.089361649135    -0.689165770196    18.998403162730
         F           -1.352784412415    -1.089329350865    -0.689215770196    18.998403162730
         F           -2.331913412415    -0.000029350865     0.926760229804    18.998403162730
         C            0.006636587585    -0.000010350865     0.916553229804    12.000000000000
         C            1.191129287585    -0.000000050865     0.153468529804    12.000000000000
         C           -1.261921412415     0.000000649135     0.099311229804    12.000000000000
         H            0.006636587585     0.887649649135     1.551960229804     1.007825032230
         H            0.006637587585    -0.887682350865     1.551942229804     1.007825032230

  Basis Set: AUG-CC-PVTZ
    Blend: AUG-CC-PVTZ
  Basis Set: (AUG-CC-PVTZ AUX)
    Blend: AUG-CC-PVTZ-JKFIT
	 Reference Energy          =    -711.6931402715896411 [Eh]
	 Singles Energy            =      -0.0000000000000000 [Eh]
	 Same-Spin Energy          =      -0.5623168432645094 [Eh]
	 Opposite-Spin Energy      =      -1.6157637086450758 [Eh]
	 Correlation Energy        =      -2.1780805519095852 [Eh]
	 Total Energy              =    -713.8712208234992431 [Eh]

	 ================> DF-SCS-MP2 Energies <==================
	-----------------------------------------------------------
	 SCS Same-Spin Scale       =       0.3333333333333333 [-]
	 SCS Opposite-Spin Scale   =       1.2000000000000000 [-]
	 SCS Same-Spin Energy      =      -0.1874389477548364 [Eh]
	 SCS Opposite-Spin Energy  =      -1.9389164503740908 [Eh]
	 SCS Correlation Energy    =      -2.1263553981289274 [Eh]
	 SCS Total Energy          =    -713.8194956697185489 [Eh]
	-----------------------------------------------------------

  Dipole Moment: [D]
     X:    -0.6528      Y:     0.0000      Z:     2.4094     Total:     2.4962

*** Psi4 exiting successfully. Buy a developer a beer!
