                               Psi4 1.3.2 release

  ==> Input File <==

--------------------------------------------------------------------------
#psi4
#
memory 32 gb

molecule  {
0 1
  F        2.3385500     0.0000060     0.9042500
  F        1.3594210     1.0893460    -0.7117020
  F        1.3594370    -1.0893460    -0.7117010
  F       -1.3594380     1.0893620    -0.7116760
  F       -1.3594210    -1.0893290    -0.7117260
  F       -2.3385500    -0.0000290     0.9042500
  C        0.0000000    -0.0000100     0.8940430
  C        1.2757186     0.0225664     0.0883407
  C       -1.2685580     0.0000010     0.0768010
  H        0.0000000     0.8876500     1.5294500
  H        0.0000010    -0.8876820     1.5294320
units angstrom
no_reorient  #important for SAPT in psi4, default
symmetry c1  #important for SAPT in psi4, default
}

set PROPERTIES_ORIGIN ["COM"]
properties('MP2/aug-cc-pvtz', properties = ['dipole'])
--------------------------------------------------------------------------

    Molecular point group: c1
  Charge       = 0
  Multiplicity = 1
  Basis Set: AUG-CC-PVTZ
    Blend: AUG-CC-PVTZ
  Basis Set: (AUG-CC-PVTZ AUX)
    Blend: AUG-CC-PVTZ-JKFIT

    Orbital Energies [Eh]
    ---------------------

    Doubly Occupied:

       1A    -26.361911     2A    -26.359288     3A    -26.356779
       4A    -26.354408     5A    -26.353458     6A    -26.344490
       7A    -11.534444     8A    -11.534299     9A    -11.306889
      10A     -1.744875    11A     -1.739139    12A     -1.657862
      13A     -1.648789    14A     -1.648318    15A     -1.638250
      16A     -1.140760    17A     -0.994391    18A     -0.934711
      19A     -0.850358    20A     -0.846975    21A     -0.844636
      22A     -0.830890    23A     -0.820348    24A     -0.769473
      25A     -0.738895    26A     -0.727089    27A     -0.721762
      28A     -0.713984    29A     -0.688848    30A     -0.684532
      31A     -0.673128    32A     -0.668802    33A     -0.666372
      34A     -0.660025    35A     -0.622671    36A     -0.600907
      37A     -0.586206

  @DF-RHF Final Energy:  -711.71201931287851

   => Energetics <=

    Nuclear Repulsion Energy =            543.3893046787823096
    One-Electron Energy =               -2071.4647238674128857
    Two-Electron Energy =                 816.3633998757520658
    Total Energy =                       -711.7120193128785104
  Basis Set: (AUG-CC-PVTZ AUX)
    Blend: AUG-CC-PVTZ-RI
    Molecular point group: c1

    Geometry (in Angstrom), charge = 0, multiplicity = 1:

       Center              X                  Y                   Z               Mass
    ------------   -----------------  -----------------  -----------------  -----------------
         F            2.337984830399    -0.001775813946     0.930124642838    18.998403162730
         F            1.358855830399     1.087564186054    -0.685827357162    18.998403162730
         F            1.358871830399    -1.091127813946    -0.685826357162    18.998403162730
         F           -1.360003169601     1.087580186054    -0.685801357162    18.998403162730
         F           -1.359986169601    -1.091110813946    -0.685851357162    18.998403162730
         F           -2.339115169601    -0.001810813946     0.930124642838    18.998403162730
         C           -0.000565169601    -0.001791813946     0.919917642838    12.000000000000
         C            1.275153430399     0.020784586054     0.114215342838    12.000000000000
         C           -1.269123169601    -0.001780813946     0.102675642838    12.000000000000
         H           -0.000565169601     0.885868186054     1.555324642838     1.007825032230
         H           -0.000564169601    -0.889463813946     1.555306642838     1.007825032230

  Basis Set: AUG-CC-PVTZ
    Blend: AUG-CC-PVTZ
  Basis Set: (AUG-CC-PVTZ AUX)
    Blend: AUG-CC-PVTZ-JKFIT
	 Reference Energy          =    -711.7120193128785104 [Eh]
	 Singles Energy            =      -0.0000000000000000 [Eh]
	 Same-Spin Energy          =      -0.5603842842901108 [Eh]
	 Opposite-Spin Energy      =      -1.6110474666535275 [Eh]
	 Correlation Energy        =      -2.1714317509436381 [Eh]
	 Total Energy              =    -713.8834510638221218 [Eh]

	 ================> DF-SCS-MP2 Energies <==================
	-----------------------------------------------------------
	 SCS Same-Spin Scale       =       0.3333333333333333 [-]
	 SCS Opposite-Spin Scale   =       1.2000000000000000 [-]
	 SCS Same-Spin Energy      =      -0.1867947614300369 [Eh]
	 SCS Opposite-Spin Energy  =      -1.9332569599842329 [Eh]
	 SCS Correlation Energy    =      -2.1200517214142698 [Eh]
	 SCS Total Energy          =    -713.8320710342927669 [Eh]
	-----------------------------------------------------------

  Dipole Moment: [D]
     X:     0.0581      Y:     0.1712      Z:     2.1451     Total:     2.1527

*** Psi4 exiting successfully. Buy a developer a beer!
