                               Psi4 1.3.2 release

  ==> Input File <==

--------------------------------------------------------------------------
#psi4
#
memory 32 gb

molecule  {
0 1
  F        2.3385500     0.0000060     0.9042500
  F        1.3594210     1.0893460    -0.7117020
  F        1.3594370    -1.0893460    -0.7117010
  F       -1.3594380     1.0893620    -0.7116760
  F       -1.3594210    -1.0893290    -0.7117260
  F       -2.3385500    -0.0000290     0.9042500
  C        0.0000000    -0.0000100     0.8940430
  C        1.2826276     0.0000007     0.0990649
  C       -1.2685580     0.0000010     0.0768010
  H        0.0000000     0.8876500     1.5294500
  H        0.0000010    -0.8876820     1.5294320
units angstrom
no_reorient  #important for SAPT in psi4, default
symmetry c1  #important for SAPT in psi4, default
}

set PROPERTIES_ORIGIN ["COM"]
properties('MP2/aug-cc-pvtz', properties = ['dipole'])
--------------------------------------------------------------------------

    Molecular point group: c1
  Charge       = 0
  Multiplicity = 1
  Basis Set: AUG-CC-PVTZ
    Blend: AUG-CC-PVTZ
  Basis Set: (AUG-CC-PVTZ AUX)
    Blend: AUG-CC-PVTZ-JKFIT

    Orbital Energies [Eh]
    ---------------------

    Doubly Occupied:

       1A    -26.366791     2A    -26.356746     3A    -26.353466
       4A    -26.353445     5A    -26.349539     6A    -26.349517
       7A    -11.534437     8A    -11.534270     9A    -11.306846
      10A     -1.744952    11A     -1.739195    12A     -1.656351
      13A     -1.648344    14A     -1.648245    15A     -1.639327
      16A     -1.140502    17A     -0.994673    18A     -0.934503
      19A     -0.850230    20A     -0.846287    21A     -0.844747
      22A     -0.830544    23A     -0.821200    24A     -0.768667
      25A     -0.738291    26A     -0.728558    27A     -0.721074
      28A     -0.714066    29A     -0.687427    30A     -0.685923
      31A     -0.671315    32A     -0.669952    33A     -0.665567
      34A     -0.660297    35A     -0.622178    36A     -0.599816
      37A     -0.587133

  @DF-RHF Final Energy:  -711.71198540251839

   => Energetics <=

    Nuclear Repulsion Energy =            543.3115556739925296
    One-Electron Energy =               -2071.3182469949811093
    Two-Electron Energy =                 816.2947059184700720
    Total Energy =                       -711.7119854025183940
  Basis Set: (AUG-CC-PVTZ AUX)
    Blend: AUG-CC-PVTZ-RI
    Molecular point group: c1

    Geometry (in Angstrom), charge = 0, multiplicity = 1:

       Center              X                  Y                   Z               Mass
    ------------   -----------------  -----------------  -----------------  -----------------
         F            2.337439404808     0.000005617557     0.929278029273    18.998403162730
         F            1.358310404808     1.089345617557    -0.686673970727    18.998403162730
         F            1.358326404808    -1.089346382443    -0.686672970727    18.998403162730
         F           -1.360548595192     1.089361617557    -0.686647970727    18.998403162730
         F           -1.360531595192    -1.089329382443    -0.686697970727    18.998403162730
         F           -2.339660595192    -0.000029382443     0.929278029273    18.998403162730
         C           -0.001110595192    -0.000010382443     0.919071029273    12.000000000000
         C            1.281517004808     0.000000317557     0.124092929273    12.000000000000
         C           -1.269668595192     0.000000617557     0.101829029273    12.000000000000
         H           -0.001110595192     0.887649617557     1.554478029273     1.007825032230
         H           -0.001109595192    -0.887682382443     1.554460029273     1.007825032230

  Basis Set: AUG-CC-PVTZ
    Blend: AUG-CC-PVTZ
  Basis Set: (AUG-CC-PVTZ AUX)
    Blend: AUG-CC-PVTZ-JKFIT
	 Reference Energy          =    -711.7119854025183940 [Eh]
	 Singles Energy            =      -0.0000000000000000 [Eh]
	 Same-Spin Energy          =      -0.5603739884135852 [Eh]
	 Opposite-Spin Energy      =      -1.6110386647133599 [Eh]
	 Correlation Energy        =      -2.1714126531269451 [Eh]
	 Total Energy              =    -713.8833980556453298 [Eh]

	 ================> DF-SCS-MP2 Energies <==================
	-----------------------------------------------------------
	 SCS Same-Spin Scale       =       0.3333333333333333 [-]
	 SCS Opposite-Spin Scale   =       1.2000000000000000 [-]
	 SCS Same-Spin Energy      =      -0.1867913294711951 [Eh]
	 SCS Opposite-Spin Energy  =      -1.9332463976560317 [Eh]
	 SCS Correlation Energy    =      -2.1200377271272268 [Eh]
	 SCS Total Energy          =    -713.8320231296456768 [Eh]
	-----------------------------------------------------------

  Dipole Moment: [D]
     X:     0.1146      Y:     0.0000      Z:     2.2272     Total:     2.2302

*** Psi4 exiting successfully. Buy a developer a beer!
