                               Psi4 1.4a3.dev225

  ==> Input File <==

--------------------------------------------------------------------------
#psi4
#
memory 32 gb

molecule  {
0 1
  F        2.3385500     0.0000060     0.9042500
  F        1.3594210     1.0893460    -0.7117020
  F        1.3594370    -1.0893460    -0.7117010
  F       -1.3594380     1.0893620    -0.7116760
  F       -1.3594210    -1.0893290    -0.7117260
  F       -2.3385500    -0.0000290     0.9042500
  C        0.0000000    -0.0000100     0.8940430
  C        1.2265253     0.0000006     0.1038797
  C       -1.2685580     0.0000010     0.0768010
  H        0.0000000     0.8876500     1.5294500
  H        0.0000010    -0.8876820     1.5294320
units angstrom
no_reorient  #important for SAPT in psi4, default
symmetry c1  #important for SAPT in psi4, default
}

set PROPERTIES_ORIGIN ["COM"]
properties('MP2/aug-cc-pvtz', properties = ['dipole'])
--------------------------------------------------------------------------

    Molecular point group: c1
  Charge       = 0
  Multiplicity = 1
  Basis Set: AUG-CC-PVTZ
    Blend: AUG-CC-PVTZ
  Basis Set: (AUG-CC-PVTZ AUX)
    Blend: AUG-CC-PVTZ-JKFIT

    Orbital Energies [Eh]
    ---------------------

    Doubly Occupied:

       1A    -26.360279     2A    -26.357451     3A    -26.357429
       4A    -26.352553     5A    -26.349434     6A    -26.349412
       7A    -11.539103     8A    -11.535683     9A    -11.311011
      10A     -1.745173    11A     -1.729203    12A     -1.652441
      13A     -1.651871    14A     -1.638355    15A     -1.636523
      16A     -1.157276    17A     -0.996866    18A     -0.932407
      19A     -0.850007    20A     -0.845962    21A     -0.845496
      22A     -0.825009    23A     -0.814283    24A     -0.768126
      25A     -0.739735    26A     -0.726482    27A     -0.717271
      28A     -0.712777    29A     -0.685703    30A     -0.684333
      31A     -0.669257    32A     -0.666339    33A     -0.666095
      34A     -0.657170    35A     -0.628000    36A     -0.615854
      37A     -0.595453

  @DF-RHF Final Energy:  -711.70644893041924

   => Energetics <=

    Nuclear Repulsion Energy =            543.5178104189909618
    One-Electron Energy =               -2071.7168672010479895
    Two-Electron Energy =                 816.4926078516378993
    Total Energy =                       -711.7064489304192421
  Basis Set: (AUG-CC-PVTZ AUX)
    Blend: AUG-CC-PVTZ-RI
    Molecular point group: c1

    Geometry (in Angstrom), charge = 0, multiplicity = 1:

       Center              X                  Y                   Z               Mass
    ------------   -----------------  -----------------  -----------------  -----------------
         F            2.341868356917     0.000005625452     0.928897928660    18.998403162730
         F            1.362739356917     1.089345625452    -0.687054071340    18.998403162730
         F            1.362755356917    -1.089346374548    -0.687053071340    18.998403162730
         F           -1.356119643083     1.089361625452    -0.687028071340    18.998403162730
         F           -1.356102643083    -1.089329374548    -0.687078071340    18.998403162730
         F           -2.335231643083    -0.000029374548     0.928897928660    18.998403162730
         C            0.003318356917    -0.000010374548     0.918690928660    12.000000000000
         C            1.229843656917     0.000000225452     0.128527628660    12.000000000000
         C           -1.265239643083     0.000000625452     0.101448928660    12.000000000000
         H            0.003318356917     0.887649625452     1.554097928660     1.007825032230
         H            0.003319356917    -0.887682374548     1.554079928660     1.007825032230

  Basis Set: AUG-CC-PVTZ
    Blend: AUG-CC-PVTZ
  Basis Set: (AUG-CC-PVTZ AUX)
    Blend: AUG-CC-PVTZ-JKFIT
	 Reference Energy          =    -711.7064489304192421 [Eh]
	 Singles Energy            =      -0.0000000000000000 [Eh]
	 Same-Spin Energy          =      -0.5612009805542367 [Eh]
	 Opposite-Spin Energy      =      -1.6130979855884942 [Eh]
	 Correlation Energy        =      -2.1742989661427310 [Eh]
	 Total Energy              =    -713.8807478965619566 [Eh]

	 ================> DF-SCS-MP2 Energies <==================
	-----------------------------------------------------------
	 SCS Same-Spin Scale       =       0.3333333333333333 [-]
	 SCS Opposite-Spin Scale   =       1.2000000000000000 [-]
	 SCS Same-Spin Energy      =      -0.1870669935180789 [Eh]
	 SCS Opposite-Spin Energy  =      -1.9357175827061930 [Eh]
	 SCS Correlation Energy    =      -2.1227845762242721 [Eh]
	 SCS Total Energy          =    -713.8292335066435044 [Eh]
	-----------------------------------------------------------

  Dipole Moment: [D]
     X:    -0.3257      Y:     0.0000      Z:     2.2338     Total:     2.2574

*** Psi4 exiting successfully. Buy a developer a beer!
