                               Psi4 1.3.2 release

  ==> Input File <==

--------------------------------------------------------------------------
#psi4
#
memory 32 gb

molecule  {
0 1
  F        2.2461965     0.0000051     1.0115618
  F        1.3594210     1.0893460    -0.7117020
  F        1.3594370    -1.0893460    -0.7117010
  F       -1.3594380     1.0893620    -0.7116760
  F       -1.3594210    -1.0893290    -0.7117260
  F       -2.3385500    -0.0000290     0.9042500
  C        0.0000000    -0.0000100     0.8940430
  C        1.2685580     0.0000010     0.0768010
  C       -1.2685580     0.0000010     0.0768010
  H        0.0000000     0.8876500     1.5294500
  H        0.0000010    -0.8876820     1.5294320
units angstrom
no_reorient  #important for SAPT in psi4, default
symmetry c1  #important for SAPT in psi4, default
}

set PROPERTIES_ORIGIN ["COM"]
properties('MP2/aug-cc-pvtz', properties = ['dipole'])
--------------------------------------------------------------------------

    Molecular point group: c1
  Charge       = 0
  Multiplicity = 1
  Basis Set: AUG-CC-PVTZ
    Blend: AUG-CC-PVTZ
  Basis Set: (AUG-CC-PVTZ AUX)
    Blend: AUG-CC-PVTZ-JKFIT

    Orbital Energies [Eh]
    ---------------------

    Doubly Occupied:

       1A    -26.360207     2A    -26.359116     3A    -26.359094
       4A    -26.353859     5A    -26.352468     6A    -26.352447
       7A    -11.535384     8A    -11.530114     9A    -11.301578
      10A     -1.743627    11A     -1.737234    12A     -1.656433
      13A     -1.652637    14A     -1.646457    15A     -1.645570
      16A     -1.137914    17A     -0.993704    18A     -0.933736
      19A     -0.852237    20A     -0.846289    21A     -0.845414
      22A     -0.831092    23A     -0.818300    24A     -0.768935
      25A     -0.738599    26A     -0.727847    27A     -0.721090
      28A     -0.714601    29A     -0.689921    30A     -0.689123
      31A     -0.672994    32A     -0.672277    33A     -0.670932
      34A     -0.661329    35A     -0.619431    36A     -0.600362
      37A     -0.576713

  @DF-RHF Final Energy:  -711.70920194331666

   => Energetics <=

    Nuclear Repulsion Energy =            543.8783544031841757
    One-Electron Energy =               -2072.4369838203497238
    Two-Electron Energy =                 816.8494274738488912
    Total Energy =                       -711.7092019433166570
  Basis Set: (AUG-CC-PVTZ AUX)
    Blend: AUG-CC-PVTZ-RI
    Molecular point group: c1

    Geometry (in Angstrom), charge = 0, multiplicity = 1:

       Center              X                  Y                   Z               Mass
    ------------   -----------------  -----------------  -----------------  -----------------
         F            2.257739374756     0.000004806360     1.024935123302    18.998403162730
         F            1.370963874756     1.089345706360    -0.698328676698    18.998403162730
         F            1.370979874756    -1.089346293640    -0.698327676698    18.998403162730
         F           -1.347895125244     1.089361706360    -0.698302676698    18.998403162730
         F           -1.347878125244    -1.089329293640    -0.698352676698    18.998403162730
         F           -2.327007125244    -0.000029293640     0.917623323302    18.998403162730
         C            0.011542874756    -0.000010293640     0.907416323302    12.000000000000
         C            1.280100874756     0.000000706360     0.090174323302    12.000000000000
         C           -1.257015125244     0.000000706360     0.090174323302    12.000000000000
         H            0.011542874756     0.887649706360     1.542823323302     1.007825032230
         H            0.011543874756    -0.887682293640     1.542805323302     1.007825032230

  Basis Set: AUG-CC-PVTZ
    Blend: AUG-CC-PVTZ
  Basis Set: (AUG-CC-PVTZ AUX)
    Blend: AUG-CC-PVTZ-JKFIT
	 Reference Energy          =    -711.7092019433166570 [Eh]
	 Singles Energy            =      -0.0000000000000000 [Eh]
	 Same-Spin Energy          =      -0.5605676399268151 [Eh]
	 Opposite-Spin Energy      =      -1.6115312229983625 [Eh]
	 Correlation Energy        =      -2.1720988629251776 [Eh]
	 Total Energy              =    -713.8813008062418248 [Eh]

	 ================> DF-SCS-MP2 Energies <==================
	-----------------------------------------------------------
	 SCS Same-Spin Scale       =       0.3333333333333333 [-]
	 SCS Opposite-Spin Scale   =       1.2000000000000000 [-]
	 SCS Same-Spin Energy      =      -0.1868558799756050 [Eh]
	 SCS Opposite-Spin Energy  =      -1.9338374675980350 [Eh]
	 SCS Correlation Energy    =      -2.1206933475736403 [Eh]
	 SCS Total Energy          =    -713.8298952908902493 [Eh]
	-----------------------------------------------------------

  Dipole Moment: [D]
     X:     0.2243      Y:     0.0000      Z:     1.9256     Total:     1.9386

*** Psi4 exiting successfully. Buy a developer a beer!
