                               Psi4 1.3.2 release

  ==> Input File <==

--------------------------------------------------------------------------
#psi4
#
memory 32 gb

molecule  {
0 1
  F        2.3385500     0.0000060     0.9042500
  F        1.3594210     1.0893460    -0.7117020
  F        1.3594370    -1.0893460    -0.7117010
  F       -1.3594380     1.0893620    -0.7116760
  F       -1.3594210    -1.0893290    -0.7117260
  F       -2.3385500    -0.0000290     0.9042500
  C        0.0000000    -0.0000100     0.8940430
  C        1.2392639     0.0000016     0.0330268
  C       -1.2685580     0.0000010     0.0768010
  H        0.0000000     0.8876500     1.5294500
  H        0.0000010    -0.8876820     1.5294320
units angstrom
no_reorient  #important for SAPT in psi4, default
symmetry c1  #important for SAPT in psi4, default
}

set PROPERTIES_ORIGIN ["COM"]
properties('MP2/aug-cc-pvtz', properties = ['dipole'])
--------------------------------------------------------------------------

    Molecular point group: c1
  Charge       = 0
  Multiplicity = 1
  Basis Set: AUG-CC-PVTZ
    Blend: AUG-CC-PVTZ
  Basis Set: (AUG-CC-PVTZ AUX)
    Blend: AUG-CC-PVTZ-JKFIT

    Orbital Energies [Eh]
    ---------------------

    Doubly Occupied:

       1A    -26.363932     2A    -26.363911     3A    -26.357021
       4A    -26.356520     5A    -26.356498     6A    -26.336650
       7A    -11.534850     8A    -11.534556     9A    -11.307326
      10A     -1.748176    11A     -1.740955    12A     -1.665471
      13A     -1.650230    14A     -1.650089    15A     -1.627392
      16A     -1.142332    17A     -0.993692    18A     -0.936684
      19A     -0.850366    20A     -0.849517    21A     -0.847086
      22A     -0.835165    23A     -0.816295    24A     -0.773730
      25A     -0.743809    26A     -0.724908    27A     -0.717703
      28A     -0.713028    29A     -0.693191    30A     -0.681823
      31A     -0.678353    32A     -0.667091    33A     -0.665059
      34A     -0.658427    35A     -0.623380    36A     -0.608312
      37A     -0.581131

  @DF-RHF Final Energy:  -711.71008839255830

   => Energetics <=

    Nuclear Repulsion Energy =            543.8043692813118923
    One-Electron Energy =               -2072.2396043749808996
    Two-Electron Energy =                 816.7251467011107025
    Total Energy =                       -711.7100883925583048
  Basis Set: (AUG-CC-PVTZ AUX)
    Blend: AUG-CC-PVTZ-RI
    Molecular point group: c1

    Geometry (in Angstrom), charge = 0, multiplicity = 1:

       Center              X                  Y                   Z               Mass
    ------------   -----------------  -----------------  -----------------  -----------------
         F            2.340862718122     0.000005546507     0.934491355326    18.998403162730
         F            1.361733718122     1.089345546507    -0.681460644674    18.998403162730
         F            1.361749718122    -1.089346453493    -0.681459644674    18.998403162730
         F           -1.357125281878     1.089361546507    -0.681434644674    18.998403162730
         F           -1.357108281878    -1.089329453493    -0.681484644674    18.998403162730
         F           -2.336237281878    -0.000029453493     0.934491355326    18.998403162730
         C            0.002312718122    -0.000010453493     0.924284355326    12.000000000000
         C            1.241576618122     0.000001146507     0.063268155326    12.000000000000
         C           -1.266245281878     0.000000546507     0.107042355326    12.000000000000
         H            0.002312718122     0.887649546507     1.559691355326     1.007825032230
         H            0.002313718122    -0.887682453493     1.559673355326     1.007825032230

  Basis Set: AUG-CC-PVTZ
    Blend: AUG-CC-PVTZ
  Basis Set: (AUG-CC-PVTZ AUX)
    Blend: AUG-CC-PVTZ-JKFIT
	 Reference Energy          =    -711.7100883925583048 [Eh]
	 Singles Energy            =      -0.0000000000000000 [Eh]
	 Same-Spin Energy          =      -0.5605192328453372 [Eh]
	 Opposite-Spin Energy      =      -1.6112531529436180 [Eh]
	 Correlation Energy        =      -2.1717723857889553 [Eh]
	 Total Energy              =    -713.8818607783472316 [Eh]

	 ================> DF-SCS-MP2 Energies <==================
	-----------------------------------------------------------
	 SCS Same-Spin Scale       =       0.3333333333333333 [-]
	 SCS Opposite-Spin Scale   =       1.2000000000000000 [-]
	 SCS Same-Spin Energy      =      -0.1868397442817791 [Eh]
	 SCS Opposite-Spin Energy  =      -1.9335037835323416 [Eh]
	 SCS Correlation Energy    =      -2.1203435278141205 [Eh]
	 SCS Total Energy          =    -713.8304319203724617 [Eh]
	-----------------------------------------------------------

  Dipole Moment: [D]
     X:    -0.2357      Y:     0.0000      Z:     1.7272     Total:     1.7432

*** Psi4 exiting successfully. Buy a developer a beer!
