                               Psi4 1.3.2 release

  ==> Input File <==

--------------------------------------------------------------------------
#psi4
#
memory 32 gb

molecule  {
0 1
  F        2.3385500     0.0000060     0.9042500
  F        1.3594210     1.0893460    -0.7117020
  F        1.3594370    -1.0893460    -0.7117010
  F       -1.3594380     1.0893620    -0.7116760
  F       -1.3594210    -1.0893290    -0.7117260
  F       -2.3385500    -0.0000290     0.9042500
  C        0.0000000    -0.0000100     0.8940430
  C        1.3056532     0.1351527     0.1496475
  C       -1.2685580     0.0000010     0.0768010
  H        0.0000000     0.8876500     1.5294500
  H        0.0000010    -0.8876820     1.5294320
units angstrom
no_reorient  #important for SAPT in psi4, default
symmetry c1  #important for SAPT in psi4, default
}

set PROPERTIES_ORIGIN ["COM"]
properties('MP2/aug-cc-pvtz', properties = ['dipole'])
--------------------------------------------------------------------------

    Molecular point group: c1
  Charge       = 0
  Multiplicity = 1
  Basis Set: AUG-CC-PVTZ
    Blend: AUG-CC-PVTZ
  Basis Set: (AUG-CC-PVTZ AUX)
    Blend: AUG-CC-PVTZ-JKFIT

    Orbital Energies [Eh]
    ---------------------

    Doubly Occupied:

       1A    -26.386546     2A    -26.382508     3A    -26.357228
       4A    -26.354756     5A    -26.349255     6A    -26.292780
       7A    -11.539412     8A    -11.534990     9A    -11.309347
      10A     -1.770922    11A     -1.739759    12A     -1.699152
      13A     -1.649230    14A     -1.644976    15A     -1.574471
      16A     -1.141774    17A     -1.000405    18A     -0.941533
      19A     -0.870622    20A     -0.853664    21A     -0.843362
      22A     -0.832876    23A     -0.826670    24A     -0.775888
      25A     -0.745561    26A     -0.729201    27A     -0.723434
      28A     -0.712298    29A     -0.695136    30A     -0.677547
      31A     -0.675508    32A     -0.663050    33A     -0.638875
      34A     -0.630594    35A     -0.623970    36A     -0.596040
      37A     -0.575477

  @DF-RHF Final Energy:  -711.69074307475501

   => Energetics <=

    Nuclear Repulsion Energy =            542.9560463575978702
    One-Electron Energy =               -2070.5759451043518311
    Two-Electron Energy =                 815.9291556719989558
    Total Energy =                       -711.6907430747550052
  Basis Set: (AUG-CC-PVTZ AUX)
    Blend: AUG-CC-PVTZ-RI
    Molecular point group: c1

    Geometry (in Angstrom), charge = 0, multiplicity = 1:

       Center              X                  Y                   Z               Mass
    ------------   -----------------  -----------------  -----------------  -----------------
         F            2.335621666860    -0.010663851170     0.925284825555    18.998403162730
         F            1.356492666860     1.078676148830    -0.690667174445    18.998403162730
         F            1.356508666860    -1.100015851170    -0.690666174445    18.998403162730
         F           -1.362366333140     1.078692148830    -0.690641174445    18.998403162730
         F           -1.362349333140    -1.099998851170    -0.690691174445    18.998403162730
         F           -2.341478333140    -0.010698851170     0.925284825555    18.998403162730
         C           -0.002928333140    -0.010679851170     0.915077825555    12.000000000000
         C            1.302724866860     0.124482848830     0.170682325555    12.000000000000
         C           -1.271486333140    -0.010668851170     0.097835825555    12.000000000000
         H           -0.002928333140     0.876980148830     1.550484825555     1.007825032230
         H           -0.002927333140    -0.898351851170     1.550466825555     1.007825032230

  Basis Set: AUG-CC-PVTZ
    Blend: AUG-CC-PVTZ
  Basis Set: (AUG-CC-PVTZ AUX)
    Blend: AUG-CC-PVTZ-JKFIT
	 Reference Energy          =    -711.6907430747550052 [Eh]
	 Singles Energy            =      -0.0000000000000000 [Eh]
	 Same-Spin Energy          =      -0.5611559748491008 [Eh]
	 Opposite-Spin Energy      =      -1.6125155421612782 [Eh]
	 Correlation Energy        =      -2.1736715170103791 [Eh]
	 Total Energy              =    -713.8644145917653532 [Eh]

	 ================> DF-SCS-MP2 Energies <==================
	-----------------------------------------------------------
	 SCS Same-Spin Scale       =       0.3333333333333333 [-]
	 SCS Opposite-Spin Scale   =       1.2000000000000000 [-]
	 SCS Same-Spin Energy      =      -0.1870519916163669 [Eh]
	 SCS Opposite-Spin Energy  =      -1.9350186505935338 [Eh]
	 SCS Correlation Energy    =      -2.1220706422099007 [Eh]
	 SCS Total Energy          =    -713.8128137169649108 [Eh]
	-----------------------------------------------------------

  Dipole Moment: [D]
     X:     0.3024      Y:     1.0236      Z:     2.6027     Total:     2.8131

*** Psi4 exiting successfully. Buy a developer a beer!
