                               Psi4 1.3.2 release

  ==> Input File <==

--------------------------------------------------------------------------
#psi4
#
memory 32 gb

molecule  {
0 1
  F        2.4191804     0.0000069     0.7878725
  F        1.3594210     1.0893460    -0.7117020
  F        1.3594370    -1.0893460    -0.7117010
  F       -1.3594380     1.0893620    -0.7116760
  F       -1.3594210    -1.0893290    -0.7117260
  F       -2.3385500    -0.0000290     0.9042500
  C        0.0000000    -0.0000100     0.8940430
  C        1.2685580     0.0000010     0.0768010
  C       -1.2685580     0.0000010     0.0768010
  H        0.0000000     0.8876500     1.5294500
  H        0.0000010    -0.8876820     1.5294320
units angstrom
no_reorient  #important for SAPT in psi4, default
symmetry c1  #important for SAPT in psi4, default
}

set PROPERTIES_ORIGIN ["COM"]
properties('MP2/aug-cc-pvtz', properties = ['dipole'])
--------------------------------------------------------------------------

    Molecular point group: c1
  Charge       = 0
  Multiplicity = 1
  Basis Set: AUG-CC-PVTZ
    Blend: AUG-CC-PVTZ
  Basis Set: (AUG-CC-PVTZ AUX)
    Blend: AUG-CC-PVTZ-JKFIT

    Orbital Energies [Eh]
    ---------------------

    Doubly Occupied:

       1A    -26.359448     2A    -26.356127     3A    -26.356105
       4A    -26.352515     5A    -26.349533     6A    -26.349512
       7A    -11.537974     8A    -11.533252     9A    -11.311956
      10A     -1.745394    11A     -1.739532    12A     -1.651436
      13A     -1.651193    14A     -1.644254    15A     -1.641088
      16A     -1.143835    17A     -0.994133    18A     -0.935486
      19A     -0.850370    20A     -0.846048    21A     -0.843616
      22A     -0.831187    23A     -0.819126    24A     -0.770893
      25A     -0.741464    26A     -0.725930    27A     -0.717398
      28A     -0.715904    29A     -0.686113    30A     -0.683916
      31A     -0.670323    32A     -0.667392    33A     -0.665497
      34A     -0.656308    35A     -0.625329    36A     -0.604531
      37A     -0.592844

  @DF-RHF Final Energy:  -711.71054845929234

   => Energetics <=

    Nuclear Repulsion Energy =            543.3467357194324450
    One-Electron Energy =               -2071.3806433082909280
    Two-Electron Energy =                 816.3233591295661427
    Total Energy =                       -711.7105484592923403
  Basis Set: (AUG-CC-PVTZ AUX)
    Blend: AUG-CC-PVTZ-RI
    Molecular point group: c1

    Geometry (in Angstrom), charge = 0, multiplicity = 1:

       Center              X                  Y                   Z               Mass
    ------------   -----------------  -----------------  -----------------  -----------------
         F            2.409102967793     0.000006381388     0.829203519540    18.998403162730
         F            1.349343567793     1.089345481388    -0.670370980460    18.998403162730
         F            1.349359567793    -1.089346518612    -0.670369980460    18.998403162730
         F           -1.369515432207     1.089361481388    -0.670344980460    18.998403162730
         F           -1.369498432207    -1.089329518612    -0.670394980460    18.998403162730
         F           -2.348627432207    -0.000029518612     0.945581019540    18.998403162730
         C           -0.010077432207    -0.000010518612     0.935374019540    12.000000000000
         C            1.258480567793     0.000000481388     0.118132019540    12.000000000000
         C           -1.278635432207     0.000000481388     0.118132019540    12.000000000000
         H           -0.010077432207     0.887649481388     1.570781019540     1.007825032230
         H           -0.010076432207    -0.887682518612     1.570763019540     1.007825032230

  Basis Set: AUG-CC-PVTZ
    Blend: AUG-CC-PVTZ
  Basis Set: (AUG-CC-PVTZ AUX)
    Blend: AUG-CC-PVTZ-JKFIT
	 Reference Energy          =    -711.7105484592923403 [Eh]
	 Singles Energy            =      -0.0000000000000000 [Eh]
	 Same-Spin Energy          =      -0.5603301462467716 [Eh]
	 Opposite-Spin Energy      =      -1.6107992442176438 [Eh]
	 Correlation Energy        =      -2.1711293904644151 [Eh]
	 Total Energy              =    -713.8816778497567839 [Eh]

	 ================> DF-SCS-MP2 Energies <==================
	-----------------------------------------------------------
	 SCS Same-Spin Scale       =       0.3333333333333333 [-]
	 SCS Opposite-Spin Scale   =       1.2000000000000000 [-]
	 SCS Same-Spin Energy      =      -0.1867767154155905 [Eh]
	 SCS Opposite-Spin Energy  =      -1.9329590930611724 [Eh]
	 SCS Correlation Energy    =      -2.1197358084767628 [Eh]
	 SCS Total Energy          =    -713.8302842677691160 [Eh]
	-----------------------------------------------------------

  Dipole Moment: [D]
     X:    -0.1997      Y:     0.0000      Z:     2.2031     Total:     2.2122

*** Psi4 exiting successfully. Buy a developer a beer!
