                               Psi4 1.3.2 release

  ==> Input File <==

--------------------------------------------------------------------------
#psi4
#
memory 32 gb

molecule  {
0 1
  F        2.3385500     0.0000060     0.9042500
  F        1.3594210     1.0893460    -0.7117020
  F        1.3594370    -1.0893460    -0.7117010
  F       -1.3594380     1.0893620    -0.7116760
  F       -1.3594210    -1.0893290    -0.7117260
  F       -2.3385500    -0.0000290     0.9042500
  C        0.0000000    -0.0000100     0.8940430
  C        1.2963066     0.0000004     0.1215709
  C       -1.2685580     0.0000010     0.0768010
  H        0.0000000     0.8876500     1.5294500
  H        0.0000010    -0.8876820     1.5294320
units angstrom
no_reorient  #important for SAPT in psi4, default
symmetry c1  #important for SAPT in psi4, default
}

set PROPERTIES_ORIGIN ["COM"]
properties('MP2/aug-cc-pvtz', properties = ['dipole'])
--------------------------------------------------------------------------

    Molecular point group: c1
  Charge       = 0
  Multiplicity = 1
  Basis Set: AUG-CC-PVTZ
    Blend: AUG-CC-PVTZ
  Basis Set: (AUG-CC-PVTZ AUX)
    Blend: AUG-CC-PVTZ-JKFIT

    Orbital Energies [Eh]
    ---------------------

    Doubly Occupied:

       1A    -26.376787     2A    -26.356728     3A    -26.352535
       4A    -26.352513     5A    -26.344514     6A    -26.344492
       7A    -11.534814     8A    -11.534279     9A    -11.306972
      10A     -1.750274    11A     -1.739611    12A     -1.659503
      13A     -1.647977    14A     -1.646922    15A     -1.631191
      16A     -1.140170    17A     -0.995847    18A     -0.935198
      19A     -0.851334    20A     -0.847054    21A     -0.844337
      22A     -0.830508    23A     -0.823371    24A     -0.768495
      25A     -0.736671    26A     -0.730876    27A     -0.720003
      28A     -0.712912    29A     -0.688936    30A     -0.684746
      31A     -0.671113    32A     -0.668669    33A     -0.662323
      34A     -0.657725    35A     -0.621666    36A     -0.597385
      37A     -0.588226

  @DF-RHF Final Energy:  -711.70975871798066

   => Energetics <=

    Nuclear Repulsion Energy =            543.1559745146247451
    One-Electron Energy =               -2071.0181130747596399
    Two-Electron Energy =                 816.1523798421543461
    Total Energy =                       -711.7097587179806624
  Basis Set: (AUG-CC-PVTZ AUX)
    Blend: AUG-CC-PVTZ-RI
    Molecular point group: c1

    Geometry (in Angstrom), charge = 0, multiplicity = 1:

       Center              X                  Y                   Z               Mass
    ------------   -----------------  -----------------  -----------------  -----------------
         F            2.336359526873     0.000005641240     0.927501310740    18.998403162730
         F            1.357230526873     1.089345641240    -0.688450689260    18.998403162730
         F            1.357246526873    -1.089346358760    -0.688449689260    18.998403162730
         F           -1.361628473127     1.089361641240    -0.688424689260    18.998403162730
         F           -1.361611473127    -1.089329358760    -0.688474689260    18.998403162730
         F           -2.340740473127    -0.000029358760     0.927501310740    18.998403162730
         C           -0.002190473127    -0.000010358760     0.917294310740    12.000000000000
         C            1.294116126873     0.000000041240     0.144822210740    12.000000000000
         C           -1.270748473127     0.000000641240     0.100052310740    12.000000000000
         H           -0.002190473127     0.887649641240     1.552701310740     1.007825032230
         H           -0.002189473127    -0.887682358760     1.552683310740     1.007825032230

  Basis Set: AUG-CC-PVTZ
    Blend: AUG-CC-PVTZ
  Basis Set: (AUG-CC-PVTZ AUX)
    Blend: AUG-CC-PVTZ-JKFIT
	 Reference Energy          =    -711.7097587179806624 [Eh]
	 Singles Energy            =      -0.0000000000000000 [Eh]
	 Same-Spin Energy          =      -0.5604314913440578 [Eh]
	 Opposite-Spin Energy      =      -1.6111765883518978 [Eh]
	 Correlation Energy        =      -2.1716080796959556 [Eh]
	 Total Energy              =    -713.8813667976766055 [Eh]

	 ================> DF-SCS-MP2 Energies <==================
	-----------------------------------------------------------
	 SCS Same-Spin Scale       =       0.3333333333333333 [-]
	 SCS Opposite-Spin Scale   =       1.2000000000000000 [-]
	 SCS Same-Spin Energy      =      -0.1868104971146859 [Eh]
	 SCS Opposite-Spin Energy  =      -1.9334119060222772 [Eh]
	 SCS Correlation Energy    =      -2.1202224031369630 [Eh]
	 SCS Total Energy          =    -713.8299811211176120 [Eh]
	-----------------------------------------------------------

  Dipole Moment: [D]
     X:     0.2275      Y:     0.0000      Z:     2.3992     Total:     2.4100

*** Psi4 exiting successfully. Buy a developer a beer!
