                               Psi4 1.3.2 release

  ==> Input File <==

--------------------------------------------------------------------------
#psi4
#
memory 32 gb

molecule  {
0 1
  F        2.3385500     0.0000060     0.9042500
  F        1.3594210     1.0893460    -0.7117020
  F        1.3594370    -1.0893460    -0.7117010
  F       -1.3594380     1.0893620    -0.7116760
  F       -1.3594210    -1.0893290    -0.7117260
  F       -2.3385500    -0.0000290     0.9042500
  C        0.0000000    -0.0000100     0.8940430
  C        1.1761837     0.0000027    -0.0513225
  C       -1.2685580     0.0000010     0.0768010
  H        0.0000000     0.8876500     1.5294500
  H        0.0000010    -0.8876820     1.5294320
units angstrom
no_reorient  #important for SAPT in psi4, default
symmetry c1  #important for SAPT in psi4, default
}

set PROPERTIES_ORIGIN ["COM"]
properties('MP2/aug-cc-pvtz', properties = ['dipole'])
--------------------------------------------------------------------------

    Molecular point group: c1
  Charge       = 0
  Multiplicity = 1
  Basis Set: AUG-CC-PVTZ
    Blend: AUG-CC-PVTZ
  Basis Set: (AUG-CC-PVTZ AUX)
    Blend: AUG-CC-PVTZ-JKFIT

    Orbital Energies [Eh]
    ---------------------

    Doubly Occupied:

       1A    -26.382097     2A    -26.382075     3A    -26.361366
       4A    -26.361344     5A    -26.358037     6A    -26.294814
       7A    -11.539296     8A    -11.535839     9A    -11.310114
      10A     -1.769075    11A     -1.746188    12A     -1.696596
      13A     -1.655491    14A     -1.652593    15A     -1.574928
      16A     -1.146785    17A     -0.996605    18A     -0.944629
      19A     -0.867854    20A     -0.855761    21A     -0.850092
      22A     -0.842228    23A     -0.818134    24A     -0.782695
      25A     -0.753475    26A     -0.729116    27A     -0.724980
      28A     -0.711825    29A     -0.688525    30A     -0.685055
      31A     -0.679791    32A     -0.669862    33A     -0.637172
      34A     -0.636827    35A     -0.621604    36A     -0.617437
      37A     -0.568758

  @DF-RHF Final Energy:  -711.69130543346228

   => Energetics <=

    Nuclear Repulsion Energy =            544.4665152030862600
    One-Electron Energy =               -2073.4175133335629653
    Two-Electron Energy =                 817.2596926970145432
    Total Energy =                       -711.6913054334622757
  Basis Set: (AUG-CC-PVTZ AUX)
    Blend: AUG-CC-PVTZ-RI
    Molecular point group: c1

    Geometry (in Angstrom), charge = 0, multiplicity = 1:

       Center              X                  Y                   Z               Mass
    ------------   -----------------  -----------------  -----------------  -----------------
         F            2.345842535078     0.000005459669     0.941150244714    18.998403162730
         F            1.366713535078     1.089345459669    -0.674801755286    18.998403162730
         F            1.366729535078    -1.089346540331    -0.674800755286    18.998403162730
         F           -1.352145464922     1.089361459669    -0.674775755286    18.998403162730
         F           -1.352128464922    -1.089329540331    -0.674825755286    18.998403162730
         F           -2.331257464922    -0.000029540331     0.941150244714    18.998403162730
         C            0.007292535078    -0.000010540331     0.930943244714    12.000000000000
         C            1.183476235078     0.000002159669    -0.014422255286    12.000000000000
         C           -1.261265464922     0.000000459669     0.113701244714    12.000000000000
         H            0.007292535078     0.887649459669     1.566350244714     1.007825032230
         H            0.007293535078    -0.887682540331     1.566332244714     1.007825032230

  Basis Set: AUG-CC-PVTZ
    Blend: AUG-CC-PVTZ
  Basis Set: (AUG-CC-PVTZ AUX)
    Blend: AUG-CC-PVTZ-JKFIT
	 Reference Energy          =    -711.6913054334622757 [Eh]
	 Singles Energy            =      -0.0000000000000000 [Eh]
	 Same-Spin Energy          =      -0.5613685900772526 [Eh]
	 Opposite-Spin Energy      =      -1.6127291221761291 [Eh]
	 Correlation Energy        =      -2.1740977122533818 [Eh]
	 Total Energy              =    -713.8654031457156179 [Eh]

	 ================> DF-SCS-MP2 Energies <==================
	-----------------------------------------------------------
	 SCS Same-Spin Scale       =       0.3333333333333333 [-]
	 SCS Opposite-Spin Scale   =       1.2000000000000000 [-]
	 SCS Same-Spin Energy      =      -0.1871228633590842 [Eh]
	 SCS Opposite-Spin Energy  =      -1.9352749466113548 [Eh]
	 SCS Correlation Energy    =      -2.1223978099704390 [Eh]
	 SCS Total Energy          =    -713.8137032434327693 [Eh]
	-----------------------------------------------------------

  Dipole Moment: [D]
     X:    -0.7409      Y:     0.0000      Z:     1.0890     Total:     1.3171

*** Psi4 exiting successfully. Buy a developer a beer!
