                               Psi4 1.3.2 release

  ==> Input File <==

--------------------------------------------------------------------------
#psi4
#
memory 32 gb

molecule  {
0 1
  F        2.3385500     0.0000060     0.9042500
  F        1.3594210     1.0893460    -0.7117020
  F        1.3594370    -1.0893460    -0.7117010
  F       -1.3594380     1.0893620    -0.7116760
  F       -1.3594210    -1.0893290    -0.7117260
  F       -2.3385500    -0.0000290     0.9042500
  C        0.0000000    -0.0000100     0.8940430
  C        1.2610110    -0.0225644     0.0655103
  C       -1.2685580     0.0000010     0.0768010
  H        0.0000000     0.8876500     1.5294500
  H        0.0000010    -0.8876820     1.5294320
units angstrom
no_reorient  #important for SAPT in psi4, default
symmetry c1  #important for SAPT in psi4, default
}

set PROPERTIES_ORIGIN ["COM"]
properties('MP2/aug-cc-pvtz', properties = ['dipole'])
--------------------------------------------------------------------------

    Molecular point group: c1
  Charge       = 0
  Multiplicity = 1
  Basis Set: AUG-CC-PVTZ
    Blend: AUG-CC-PVTZ
  Basis Set: (AUG-CC-PVTZ AUX)
    Blend: AUG-CC-PVTZ-JKFIT

    Orbital Energies [Eh]
    ---------------------

    Doubly Occupied:

       1A    -26.364314     2A    -26.356851     3A    -26.355440
       4A    -26.354474     5A    -26.351586     6A    -26.349461
       7A    -11.534442     8A    -11.534367     9A    -11.306976
      10A     -1.745525    11A     -1.739439    12A     -1.656163
      13A     -1.649434    14A     -1.648585    15A     -1.639914
      16A     -1.141317    17A     -0.993898    18A     -0.935246
      19A     -0.849715    20A     -0.847723    21A     -0.845696
      22A     -0.832283    23A     -0.818473    24A     -0.771039
      25A     -0.740593    26A     -0.724225    27A     -0.721059
      28A     -0.715120    29A     -0.688886    30A     -0.683805
      31A     -0.674239    32A     -0.670494    33A     -0.666740
      34A     -0.660068    35A     -0.623121    36A     -0.603794
      37A     -0.584325

  @DF-RHF Final Energy:  -711.71200362518471

   => Energetics <=

    Nuclear Repulsion Energy =            543.5579176183491654
    One-Electron Energy =               -2071.7821812288088950
    Two-Electron Energy =                 816.5122599852750227
    Total Energy =                       -711.7120036251847068
  Basis Set: (AUG-CC-PVTZ AUX)
    Blend: AUG-CC-PVTZ-RI
    Molecular point group: c1

    Geometry (in Angstrom), charge = 0, multiplicity = 1:

       Center              X                  Y                   Z               Mass
    ------------   -----------------  -----------------  -----------------  -----------------
         F            2.339145910355     0.001787001693     0.931926970875    18.998403162730
         F            1.360016910355     1.091127001693    -0.684025029125    18.998403162730
         F            1.360032910355    -1.087564998307    -0.684024029125    18.998403162730
         F           -1.358842089645     1.091143001693    -0.683999029125    18.998403162730
         F           -1.358825089645    -1.087547998307    -0.684049029125    18.998403162730
         F           -2.337954089645     0.001752001693     0.931926970875    18.998403162730
         C            0.000595910355     0.001771001693     0.921719970875    12.000000000000
         C            1.261606910355    -0.020783398307     0.093187270875    12.000000000000
         C           -1.267962089645     0.001782001693     0.104477970875    12.000000000000
         H            0.000595910355     0.889431001693     1.557126970875     1.007825032230
         H            0.000596910355    -0.885900998307     1.557108970875     1.007825032230

  Basis Set: AUG-CC-PVTZ
    Blend: AUG-CC-PVTZ
  Basis Set: (AUG-CC-PVTZ AUX)
    Blend: AUG-CC-PVTZ-JKFIT
	 Reference Energy          =    -711.7120036251847068 [Eh]
	 Singles Energy            =      -0.0000000000000000 [Eh]
	 Same-Spin Energy          =      -0.5604079938676267 [Eh]
	 Opposite-Spin Energy      =      -1.6110719735305028 [Eh]
	 Correlation Energy        =      -2.1714799673981293 [Eh]
	 Total Energy              =    -713.8834835925828202 [Eh]

	 ================> DF-SCS-MP2 Energies <==================
	-----------------------------------------------------------
	 SCS Same-Spin Scale       =       0.3333333333333333 [-]
	 SCS Opposite-Spin Scale   =       1.2000000000000000 [-]
	 SCS Same-Spin Energy      =      -0.1868026646225422 [Eh]
	 SCS Opposite-Spin Energy  =      -1.9332863682366033 [Eh]
	 SCS Correlation Energy    =      -2.1200890328591457 [Eh]
	 SCS Total Energy          =    -713.8320926580438481 [Eh]
	-----------------------------------------------------------

  Dipole Moment: [D]
     X:    -0.0611      Y:    -0.1721      Z:     1.9720     Total:     1.9804

*** Psi4 exiting successfully. Buy a developer a beer!
