                               Psi4 1.3.2 release

  ==> Input File <==

--------------------------------------------------------------------------
#psi4
#
memory 32 gb

molecule  {
0 1
  F        2.3528280     0.0000062     0.8854500
  F        1.3594210     1.0893460    -0.7117020
  F        1.3594370    -1.0893460    -0.7117010
  F       -1.3594380     1.0893620    -0.7116760
  F       -1.3594210    -1.0893290    -0.7117260
  F       -2.3385500    -0.0000290     0.9042500
  C        0.0000000    -0.0000100     0.8940430
  C        1.2685580     0.0000010     0.0768010
  C       -1.2685580     0.0000010     0.0768010
  H        0.0000000     0.8876500     1.5294500
  H        0.0000010    -0.8876820     1.5294320
units angstrom
no_reorient  #important for SAPT in psi4, default
symmetry c1  #important for SAPT in psi4, default
}

set PROPERTIES_ORIGIN ["COM"]
properties('MP2/aug-cc-pvtz', properties = ['dipole'])
--------------------------------------------------------------------------

    Molecular point group: c1
  Charge       = 0
  Multiplicity = 1
  Basis Set: AUG-CC-PVTZ
    Blend: AUG-CC-PVTZ
  Basis Set: (AUG-CC-PVTZ AUX)
    Blend: AUG-CC-PVTZ-JKFIT

    Orbital Energies [Eh]
    ---------------------

    Doubly Occupied:

       1A    -26.357259     2A    -26.356147     3A    -26.354738
       4A    -26.354716     5A    -26.353636     6A    -26.353615
       7A    -11.534955     8A    -11.534132     9A    -11.307725
      10A     -1.744390    11A     -1.738709    12A     -1.650903
      13A     -1.650164    14A     -1.647114    15A     -1.645856
      16A     -1.141463    17A     -0.994000    18A     -0.934769
      19A     -0.849423    20A     -0.845952    21A     -0.845887
      22A     -0.831509    23A     -0.819179    24A     -0.769994
      25A     -0.740221    26A     -0.725177    27A     -0.721137
      28A     -0.715259    29A     -0.687112    30A     -0.684882
      31A     -0.672111    32A     -0.670164    33A     -0.667268
      34A     -0.660645    35A     -0.623115    36A     -0.602933
      37A     -0.586779

  @DF-RHF Final Energy:  -711.71273883299398

   => Energetics <=

    Nuclear Repulsion Energy =            543.4323243491486437
    One-Electron Energy =               -2071.5440552219251913
    Two-Electron Energy =                 816.3989920397826836
    Total Energy =                       -711.7127388329939777
  Basis Set: (AUG-CC-PVTZ AUX)
    Blend: AUG-CC-PVTZ-RI
    Molecular point group: c1

    Geometry (in Angstrom), charge = 0, multiplicity = 1:

       Center              X                  Y                   Z               Mass
    ------------   -----------------  -----------------  -----------------  -----------------
         F            2.351043589604     0.000005768877     0.914585344089    18.998403162730
         F            1.357636589604     1.089345568877    -0.682566655911    18.998403162730
         F            1.357652589604    -1.089346431123    -0.682565655911    18.998403162730
         F           -1.361222410396     1.089361568877    -0.682540655911    18.998403162730
         F           -1.361205410396    -1.089329431123    -0.682590655911    18.998403162730
         F           -2.340334410396    -0.000029431123     0.933385344089    18.998403162730
         C           -0.001784410396    -0.000010431123     0.923178344089    12.000000000000
         C            1.266773589604     0.000000568877     0.105936344089    12.000000000000
         C           -1.270342410396     0.000000568877     0.105936344089    12.000000000000
         H           -0.001784410396     0.887649568877     1.558585344089     1.007825032230
         H           -0.001783410396    -0.887682431123     1.558567344089     1.007825032230

  Basis Set: AUG-CC-PVTZ
    Blend: AUG-CC-PVTZ
  Basis Set: (AUG-CC-PVTZ AUX)
    Blend: AUG-CC-PVTZ-JKFIT
	 Reference Energy          =    -711.7127388329939777 [Eh]
	 Singles Energy            =      -0.0000000000000000 [Eh]
	 Same-Spin Energy          =      -0.5603527205379885 [Eh]
	 Opposite-Spin Energy      =      -1.6109521648493290 [Eh]
	 Correlation Energy        =      -2.1713048853873174 [Eh]
	 Total Energy              =    -713.8840437183813492 [Eh]

	 ================> DF-SCS-MP2 Energies <==================
	-----------------------------------------------------------
	 SCS Same-Spin Scale       =       0.3333333333333333 [-]
	 SCS Opposite-Spin Scale   =       1.2000000000000000 [-]
	 SCS Same-Spin Energy      =      -0.1867842401793295 [Eh]
	 SCS Opposite-Spin Energy  =      -1.9331425978191947 [Eh]
	 SCS Correlation Energy    =      -2.1199268379985243 [Eh]
	 SCS Total Energy          =    -713.8326656709924691 [Eh]
	-----------------------------------------------------------

  Dipole Moment: [D]
     X:    -0.0349      Y:     0.0000      Z:     2.0815     Total:     2.0818

*** Psi4 exiting successfully. Buy a developer a beer!
