                               Psi4 1.3.2 release

  ==> Input File <==

--------------------------------------------------------------------------
#psi4
#
memory 32 gb

molecule  {
0 1
  F        2.3936635     0.0000066     0.8275955
  F        1.3594210     1.0893460    -0.7117020
  F        1.3594370    -1.0893460    -0.7117010
  F       -1.3594380     1.0893620    -0.7116760
  F       -1.3594210    -1.0893290    -0.7117260
  F       -2.3385500    -0.0000290     0.9042500
  C        0.0000000    -0.0000100     0.8940430
  C        1.2685580     0.0000010     0.0768010
  C       -1.2685580     0.0000010     0.0768010
  H        0.0000000     0.8876500     1.5294500
  H        0.0000010    -0.8876820     1.5294320
units angstrom
no_reorient  #important for SAPT in psi4, default
symmetry c1  #important for SAPT in psi4, default
}

set PROPERTIES_ORIGIN ["COM"]
properties('MP2/aug-cc-pvtz', properties = ['dipole'])
--------------------------------------------------------------------------

    Molecular point group: c1
  Charge       = 0
  Multiplicity = 1
  Basis Set: AUG-CC-PVTZ
    Blend: AUG-CC-PVTZ
  Basis Set: (AUG-CC-PVTZ AUX)
    Blend: AUG-CC-PVTZ-JKFIT

    Orbital Energies [Eh]
    ---------------------

    Doubly Occupied:

       1A    -26.358595     2A    -26.355593     3A    -26.355571
       4A    -26.354045     5A    -26.351193     6A    -26.351172
       7A    -11.536806     8A    -11.533601     9A    -11.310282
      10A     -1.744965    11A     -1.739203    12A     -1.650971
      13A     -1.650814    14A     -1.645025    15A     -1.643695
      16A     -1.142903    17A     -0.994087    18A     -0.935207
      19A     -0.849882    20A     -0.845947    21A     -0.844607
      22A     -0.831370    23A     -0.819245    24A     -0.770537
      25A     -0.740958    26A     -0.725513    27A     -0.719106
      28A     -0.715629    29A     -0.686417    30A     -0.684118
      31A     -0.671138    32A     -0.667659    33A     -0.667172
      34A     -0.658336    35A     -0.624482    36A     -0.603914
      37A     -0.590518

  @DF-RHF Final Energy:  -711.71188346210351

   => Energetics <=

    Nuclear Repulsion Energy =            543.3581640234682482
    One-Electron Energy =               -2071.3995499570005450
    Two-Electron Energy =                 816.3295024714286683
    Total Energy =                       -711.7118834621035148
  Basis Set: (AUG-CC-PVTZ AUX)
    Blend: AUG-CC-PVTZ-RI
    Molecular point group: c1

    Geometry (in Angstrom), charge = 0, multiplicity = 1:

       Center              X                  Y                   Z               Mass
    ------------   -----------------  -----------------  -----------------  -----------------
         F            2.386775284886     0.000006118883     0.863961760083    18.998403162730
         F            1.352532784886     1.089345518883    -0.675335739917    18.998403162730
         F            1.352548784886    -1.089346481117    -0.675334739917    18.998403162730
         F           -1.366326215114     1.089361518883    -0.675309739917    18.998403162730
         F           -1.366309215114    -1.089329481117    -0.675359739917    18.998403162730
         F           -2.345438215114    -0.000029481117     0.940616260083    18.998403162730
         C           -0.006888215114    -0.000010481117     0.930409260083    12.000000000000
         C            1.261669784886     0.000000518883     0.113167260083    12.000000000000
         C           -1.275446215114     0.000000518883     0.113167260083    12.000000000000
         H           -0.006888215114     0.887649518883     1.565816260083     1.007825032230
         H           -0.006887215114    -0.887682481117     1.565798260083     1.007825032230

  Basis Set: AUG-CC-PVTZ
    Blend: AUG-CC-PVTZ
  Basis Set: (AUG-CC-PVTZ AUX)
    Blend: AUG-CC-PVTZ-JKFIT
	 Reference Energy          =    -711.7118834621035148 [Eh]
	 Singles Energy            =      -0.0000000000000000 [Eh]
	 Same-Spin Energy          =      -0.5603264952355450 [Eh]
	 Opposite-Spin Energy      =      -1.6108350696269940 [Eh]
	 Correlation Energy        =      -2.1711615648625391 [Eh]
	 Total Energy              =    -713.8830450269661014 [Eh]

	 ================> DF-SCS-MP2 Energies <==================
	-----------------------------------------------------------
	 SCS Same-Spin Scale       =       0.3333333333333333 [-]
	 SCS Opposite-Spin Scale   =       1.2000000000000000 [-]
	 SCS Same-Spin Energy      =      -0.1867754984118483 [Eh]
	 SCS Opposite-Spin Energy  =      -1.9330020835523927 [Eh]
	 SCS Correlation Energy    =      -2.1197775819642408 [Eh]
	 SCS Total Energy          =    -713.8316610440678005 [Eh]
	-----------------------------------------------------------

  Dipole Moment: [D]
     X:    -0.1358      Y:     0.0000      Z:     2.1536     Total:     2.1579

*** Psi4 exiting successfully. Buy a developer a beer!
