                               Psi4 1.3.2 release

  ==> Input File <==

--------------------------------------------------------------------------
#psi4
#
memory 32 gb

molecule  {
0 1
  F        2.2782236     0.0000054     0.9768732
  F        1.3594210     1.0893460    -0.7117020
  F        1.3594370    -1.0893460    -0.7117010
  F       -1.3594380     1.0893620    -0.7116760
  F       -1.3594210    -1.0893290    -0.7117260
  F       -2.3385500    -0.0000290     0.9042500
  C        0.0000000    -0.0000100     0.8940430
  C        1.2685580     0.0000010     0.0768010
  C       -1.2685580     0.0000010     0.0768010
  H        0.0000000     0.8876500     1.5294500
  H        0.0000010    -0.8876820     1.5294320
units angstrom
no_reorient  #important for SAPT in psi4, default
symmetry c1  #important for SAPT in psi4, default
}

set PROPERTIES_ORIGIN ["COM"]
properties('MP2/aug-cc-pvtz', properties = ['dipole'])
--------------------------------------------------------------------------

    Molecular point group: c1
  Charge       = 0
  Multiplicity = 1
  Basis Set: AUG-CC-PVTZ
    Blend: AUG-CC-PVTZ
  Basis Set: (AUG-CC-PVTZ AUX)
    Blend: AUG-CC-PVTZ-JKFIT

    Orbital Energies [Eh]
    ---------------------

    Doubly Occupied:

       1A    -26.359162     2A    -26.357582     3A    -26.357560
       4A    -26.354873     5A    -26.353159     6A    -26.353137
       7A    -11.535027     8A    -11.531579     9A    -11.303355
      10A     -1.743739    11A     -1.737729    12A     -1.654158
      13A     -1.651913    14A     -1.647236    15A     -1.645933
      16A     -1.138955    17A     -0.993804    18A     -0.934024
      19A     -0.851012    20A     -0.846089    21A     -0.845994
      22A     -0.831325    23A     -0.818619    24A     -0.769177
      25A     -0.739048    26A     -0.726797    27A     -0.721603
      28A     -0.714757    29A     -0.688961    30A     -0.687625
      31A     -0.672938    32A     -0.672143    33A     -0.669534
      34A     -0.661653    35A     -0.620559    36A     -0.601141
      37A     -0.579799

  @DF-RHF Final Energy:  -711.71102961141287

   => Energetics <=

    Nuclear Repulsion Energy =            543.7111536299983072
    One-Electron Energy =               -2072.1009652612851824
    Two-Electron Energy =                 816.6787820198740064
    Total Energy =                       -711.7110296114128687
  Basis Set: (AUG-CC-PVTZ AUX)
    Blend: AUG-CC-PVTZ-RI
    Molecular point group: c1

    Geometry (in Angstrom), charge = 0, multiplicity = 1:

       Center              X                  Y                   Z               Mass
    ------------   -----------------  -----------------  -----------------  -----------------
         F            2.285763583544     0.000005068865     0.994582060772    18.998403162730
         F            1.366960983544     1.089345668865    -0.693993139228    18.998403162730
         F            1.366976983544    -1.089346331135    -0.693992139228    18.998403162730
         F           -1.351898016456     1.089361668865    -0.693967139228    18.998403162730
         F           -1.351881016456    -1.089329331135    -0.694017139228    18.998403162730
         F           -2.331010016456    -0.000029331135     0.921958860772    18.998403162730
         C            0.007539983544    -0.000010331135     0.911751860772    12.000000000000
         C            1.276097983544     0.000000668865     0.094509860772    12.000000000000
         C           -1.261018016456     0.000000668865     0.094509860772    12.000000000000
         H            0.007539983544     0.887649668865     1.547158860772     1.007825032230
         H            0.007540983544    -0.887682331135     1.547140860772     1.007825032230

  Basis Set: AUG-CC-PVTZ
    Blend: AUG-CC-PVTZ
  Basis Set: (AUG-CC-PVTZ AUX)
    Blend: AUG-CC-PVTZ-JKFIT
	 Reference Energy          =    -711.7110296114128687 [Eh]
	 Singles Energy            =      -0.0000000000000000 [Eh]
	 Same-Spin Energy          =      -0.5604835303885175 [Eh]
	 Opposite-Spin Energy      =      -1.6113205116172069 [Eh]
	 Correlation Energy        =      -2.1718040420057245 [Eh]
	 Total Energy              =    -713.8828336534186292 [Eh]

	 ================> DF-SCS-MP2 Energies <==================
	-----------------------------------------------------------
	 SCS Same-Spin Scale       =       0.3333333333333333 [-]
	 SCS Opposite-Spin Scale   =       1.2000000000000000 [-]
	 SCS Same-Spin Energy      =      -0.1868278434628391 [Eh]
	 SCS Opposite-Spin Energy  =      -1.9335846139406483 [Eh]
	 SCS Correlation Energy    =      -2.1204124574034875 [Eh]
	 SCS Total Energy          =    -713.8314420688163864 [Eh]
	-----------------------------------------------------------

  Dipole Moment: [D]
     X:     0.1467      Y:     0.0000      Z:     1.9681     Total:     1.9736

*** Psi4 exiting successfully. Buy a developer a beer!
