                               Psi4 1.4a3.dev225

  ==> Input File <==

--------------------------------------------------------------------------
#psi4
#
memory 32 gb

molecule  {
0 1
  F        2.3385500     0.0000060     0.9042500
  F        1.3594210     1.0893460    -0.7117020
  F        1.3594370    -1.0893460    -0.7117010
  F       -1.3594380     1.0893620    -0.7116760
  F       -1.3594210    -1.0893290    -0.7117260
  F       -2.3385500    -0.0000290     0.9042500
  C        0.0000000    -0.0000100     0.8940430
  C        1.2853711     0.0000011     0.0659695
  C       -1.2685580     0.0000010     0.0768010
  H        0.0000000     0.8876500     1.5294500
  H        0.0000010    -0.8876820     1.5294320
units angstrom
no_reorient  #important for SAPT in psi4, default
symmetry c1  #important for SAPT in psi4, default
}

set PROPERTIES_ORIGIN ["COM"]
properties('MP2/aug-cc-pvtz', properties = ['dipole'])
--------------------------------------------------------------------------

    Molecular point group: c1
  Charge       = 0
  Multiplicity = 1
  Basis Set: AUG-CC-PVTZ
    Blend: AUG-CC-PVTZ
  Basis Set: (AUG-CC-PVTZ AUX)
    Blend: AUG-CC-PVTZ-JKFIT

    Orbital Energies [Eh]
    ---------------------

    Doubly Occupied:

       1A    -26.358487     2A    -26.356434     3A    -26.356413
       4A    -26.355392     5A    -26.353234     6A    -26.353212
       7A    -11.533986     8A    -11.532415     9A    -11.304971
      10A     -1.746993    11A     -1.738961    12A     -1.653974
      13A     -1.653508    14A     -1.647497    15A     -1.646414
      16A     -1.134946    17A     -0.993142    18A     -0.935178
      19A     -0.850663    20A     -0.847297    21A     -0.846093
      22A     -0.832755    23A     -0.820293    24A     -0.770278
      25A     -0.740397    26A     -0.726372    27A     -0.721541
      28A     -0.715871    29A     -0.688948    30A     -0.686715
      31A     -0.673310    32A     -0.671526    33A     -0.668520
      34A     -0.661344    35A     -0.620346    36A     -0.598517
      37A     -0.579581

  @DF-RHF Final Energy:  -711.71339566914560

   => Energetics <=

    Nuclear Repulsion Energy =            543.4500783863165907
    One-Electron Energy =               -2071.5759043459706845
    Two-Electron Energy =                 816.4124302905084960
    Total Energy =                       -711.7133956691455978
  Basis Set: (AUG-CC-PVTZ AUX)
    Blend: AUG-CC-PVTZ-RI
    Molecular point group: c1

    Geometry (in Angstrom), charge = 0, multiplicity = 1:

       Center              X                  Y                   Z               Mass
    ------------   -----------------  -----------------  -----------------  -----------------
         F            2.337222821351     0.000005585979     0.931890719691    18.998403162730
         F            1.358093821351     1.089345585979    -0.684061280309    18.998403162730
         F            1.358109821351    -1.089346414021    -0.684060280309    18.998403162730
         F           -1.360765178649     1.089361585979    -0.684035280309    18.998403162730
         F           -1.360748178649    -1.089329414021    -0.684085280309    18.998403162730
         F           -2.339877178649    -0.000029414021     0.931890719691    18.998403162730
         C           -0.001327178649    -0.000010414021     0.921683719691    12.000000000000
         C            1.284043921351     0.000000685979     0.093610219691    12.000000000000
         C           -1.269885178649     0.000000585979     0.104441719691    12.000000000000
         H           -0.001327178649     0.887649585979     1.557090719691     1.007825032230
         H           -0.001326178649    -0.887682414021     1.557072719691     1.007825032230

  Basis Set: AUG-CC-PVTZ
    Blend: AUG-CC-PVTZ
  Basis Set: (AUG-CC-PVTZ AUX)
    Blend: AUG-CC-PVTZ-JKFIT
	 Reference Energy          =    -711.7133956691455978 [Eh]
	 Singles Energy            =      -0.0000000000000000 [Eh]
	 Same-Spin Energy          =      -0.5601153101434438 [Eh]
	 Opposite-Spin Energy      =      -1.6103328397054488 [Eh]
	 Correlation Energy        =      -2.1704481498488928 [Eh]
	 Total Energy              =    -713.8838438189944782 [Eh]

	 ================> DF-SCS-MP2 Energies <==================
	-----------------------------------------------------------
	 SCS Same-Spin Scale       =       0.3333333333333333 [-]
	 SCS Opposite-Spin Scale   =       1.2000000000000000 [-]
	 SCS Same-Spin Energy      =      -0.1867051033811479 [Eh]
	 SCS Opposite-Spin Energy  =      -1.9323994076465385 [Eh]
	 SCS Correlation Energy    =      -2.1191045110276865 [Eh]
	 SCS Total Energy          =    -713.8325001801732697 [Eh]
	-----------------------------------------------------------

  Dipole Moment: [D]
     X:     0.1312      Y:     0.0000      Z:     1.9871     Total:     1.9914

*** Psi4 exiting successfully. Buy a developer a beer!
