                               Psi4 1.3.2 release

  ==> Input File <==

--------------------------------------------------------------------------
#psi4
#
memory 32 gb

molecule  {
0 1
  F        2.3385500     0.0000060     0.9042500
  F        1.3594210     1.0893460    -0.7117020
  F        1.3594370    -1.0893460    -0.7117010
  F       -1.3594380     1.0893620    -0.7116760
  F       -1.3594210    -1.0893290    -0.7117260
  F       -2.3385500    -0.0000290     0.9042500
  C        0.0000000    -0.0000100     0.8940430
  C        1.3224758    -0.0000002     0.1672819
  C       -1.2685580     0.0000010     0.0768010
  H        0.0000000     0.8876500     1.5294500
  H        0.0000010    -0.8876820     1.5294320
units angstrom
no_reorient  #important for SAPT in psi4, default
symmetry c1  #important for SAPT in psi4, default
}

set PROPERTIES_ORIGIN ["COM"]
properties('MP2/aug-cc-pvtz', properties = ['dipole'])
--------------------------------------------------------------------------

    Molecular point group: c1
  Charge       = 0
  Multiplicity = 1
  Basis Set: AUG-CC-PVTZ
    Blend: AUG-CC-PVTZ
  Basis Set: (AUG-CC-PVTZ AUX)
    Blend: AUG-CC-PVTZ-JKFIT

    Orbital Energies [Eh]
    ---------------------

    Doubly Occupied:

       1A    -26.396978     2A    -26.356784     3A    -26.350775
       4A    -26.350753     5A    -26.334006     6A    -26.333984
       7A    -11.536284     8A    -11.534427     9A    -11.307638
      10A     -1.774770    11A     -1.738821    12A     -1.655725
      13A     -1.647037    14A     -1.644886    15A     -1.614218
      16A     -1.139932    17A     -1.000017    18A     -0.939441
      19A     -0.854052    20A     -0.851718    21A     -0.847179
      22A     -0.832526    23A     -0.826719    24A     -0.771321
      25A     -0.733427    26A     -0.730908    27A     -0.717077
      28A     -0.709523    29A     -0.689228    30A     -0.682127
      31A     -0.669529    32A     -0.665556    33A     -0.658379
      34A     -0.646633    35A     -0.620389    36A     -0.595837
      37A     -0.586446

  @DF-RHF Final Energy:  -711.70039616588838

   => Energetics <=

    Nuclear Repulsion Energy =            542.8658112048492512
    One-Electron Energy =               -2070.4423156918555833
    Two-Electron Energy =                 815.8761083211179539
    Total Energy =                       -711.7003961658883782
  Basis Set: (AUG-CC-PVTZ AUX)
    Blend: AUG-CC-PVTZ-RI
    Molecular point group: c1

    Geometry (in Angstrom), charge = 0, multiplicity = 1:

       Center              X                  Y                   Z               Mass
    ------------   -----------------  -----------------  -----------------  -----------------
         F            2.334293619886     0.000005688607     0.923892691667    18.998403162730
         F            1.355164619886     1.089345688607    -0.692059308333    18.998403162730
         F            1.355180619886    -1.089346311393    -0.692058308333    18.998403162730
         F           -1.363694380114     1.089361688607    -0.692033308333    18.998403162730
         F           -1.363677380114    -1.089329311393    -0.692083308333    18.998403162730
         F           -2.342806380114    -0.000029311393     0.923892691667    18.998403162730
         C           -0.004256380114    -0.000010311393     0.913685691667    12.000000000000
         C            1.318219419886    -0.000000511393     0.186924591667    12.000000000000
         C           -1.272814380114     0.000000688607     0.096443691667    12.000000000000
         H           -0.004256380114     0.887649688607     1.549092691667     1.007825032230
         H           -0.004255380114    -0.887682311393     1.549074691667     1.007825032230

  Basis Set: AUG-CC-PVTZ
    Blend: AUG-CC-PVTZ
  Basis Set: (AUG-CC-PVTZ AUX)
    Blend: AUG-CC-PVTZ-JKFIT
	 Reference Energy          =    -711.7003961658883782 [Eh]
	 Singles Energy            =      -0.0000000000000000 [Eh]
	 Same-Spin Energy          =      -0.5607048275217389 [Eh]
	 Opposite-Spin Energy      =      -1.6117774758120174 [Eh]
	 Correlation Energy        =      -2.1724823033337564 [Eh]
	 Total Energy              =    -713.8728784692220870 [Eh]

	 ================> DF-SCS-MP2 Energies <==================
	-----------------------------------------------------------
	 SCS Same-Spin Scale       =       0.3333333333333333 [-]
	 SCS Opposite-Spin Scale   =       1.2000000000000000 [-]
	 SCS Same-Spin Energy      =      -0.1869016091739130 [Eh]
	 SCS Opposite-Spin Energy  =      -1.9341329709744208 [Eh]
	 SCS Correlation Energy    =      -2.1210345801483337 [Eh]
	 SCS Total Energy          =    -713.8214307460367536 [Eh]
	-----------------------------------------------------------

  Dipole Moment: [D]
     X:     0.4488      Y:    -0.0000      Z:     2.7533     Total:     2.7896

*** Psi4 exiting successfully. Buy a developer a beer!
