                               Psi4 1.3.2 release

  ==> Input File <==

--------------------------------------------------------------------------
#psi4
#
memory 32 gb

molecule  {
0 1
  F        2.3385500     0.0000060     0.9042500
  F        1.3594210     1.0893460    -0.7117020
  F        1.3594370    -1.0893460    -0.7117010
  F       -1.3594380     1.0893620    -0.7116760
  F       -1.3594210    -1.0893290    -0.7117260
  F       -2.3385500    -0.0000290     0.9042500
  C        0.0000000    -0.0000100     0.8940430
  C        1.4366887     0.0000025    -0.0315137
  C       -1.2685580     0.0000010     0.0768010
  H        0.0000000     0.8876500     1.5294500
  H        0.0000010    -0.8876820     1.5294320
units angstrom
no_reorient  #important for SAPT in psi4, default
symmetry c1  #important for SAPT in psi4, default
}

set PROPERTIES_ORIGIN ["COM"]
properties('MP2/aug-cc-pvtz', properties = ['dipole'])
--------------------------------------------------------------------------

    Molecular point group: c1
  Charge       = 0
  Multiplicity = 1
  Basis Set: AUG-CC-PVTZ
    Blend: AUG-CC-PVTZ
  Basis Set: (AUG-CC-PVTZ AUX)
    Blend: AUG-CC-PVTZ-JKFIT

    Orbital Energies [Eh]
    ---------------------

    Doubly Occupied:

       1A    -26.375785     2A    -26.375764     3A    -26.374975
       4A    -26.341904     5A    -26.341883     6A    -26.341504
       7A    -11.540462     8A    -11.514856     9A    -11.280756
      10A     -1.782779    11A     -1.727705    12A     -1.692976
      13A     -1.688756    14A     -1.636160    15A     -1.635082
      16A     -1.090505    17A     -0.995075    18A     -0.931533
      19A     -0.878078    20A     -0.877904    21A     -0.845767
      22A     -0.824972    23A     -0.818685    24A     -0.768727
      25A     -0.751359    26A     -0.743545    27A     -0.723259
      28A     -0.711694    29A     -0.710410    30A     -0.705578
      31A     -0.689257    32A     -0.666938    33A     -0.664541
      34A     -0.651819    35A     -0.596818    36A     -0.574804
      37A     -0.501701

  @DF-RHF Final Energy:  -711.68001265193379

   => Energetics <=

    Nuclear Repulsion Energy =            543.0128906101765551
    One-Electron Energy =               -2070.6371730395794657
    Two-Electron Energy =                 815.9442697774691169
    Total Energy =                       -711.6800126519337937
  Basis Set: (AUG-CC-PVTZ AUX)
    Blend: AUG-CC-PVTZ-RI
    Molecular point group: c1

    Geometry (in Angstrom), charge = 0, multiplicity = 1:

       Center              X                  Y                   Z               Mass
    ------------   -----------------  -----------------  -----------------  -----------------
         F            2.325277171999     0.000005475458     0.939586454521    18.998403162730
         F            1.346148171999     1.089345475458    -0.676365545479    18.998403162730
         F            1.346164171999    -1.089346524542    -0.676364545479    18.998403162730
         F           -1.372710828001     1.089361475458    -0.676339545479    18.998403162730
         F           -1.372693828001    -1.089329524542    -0.676389545479    18.998403162730
         F           -2.351822828001    -0.000029524542     0.939586454521    18.998403162730
         C           -0.013272828001    -0.000010524542     0.929379454521    12.000000000000
         C            1.423415871999     0.000001975458     0.003822754521    12.000000000000
         C           -1.281830828001     0.000000475458     0.112137454521    12.000000000000
         H           -0.013272828001     0.887649475458     1.564786454521     1.007825032230
         H           -0.013271828001    -0.887682524542     1.564768454521     1.007825032230

  Basis Set: AUG-CC-PVTZ
    Blend: AUG-CC-PVTZ
  Basis Set: (AUG-CC-PVTZ AUX)
    Blend: AUG-CC-PVTZ-JKFIT
	 Reference Energy          =    -711.6800126519337937 [Eh]
	 Singles Energy            =      -0.0000000000000000 [Eh]
	 Same-Spin Energy          =      -0.5596902458438919 [Eh]
	 Opposite-Spin Energy      =      -1.6082867141469341 [Eh]
	 Correlation Energy        =      -2.1679769599908258 [Eh]
	 Total Energy              =    -713.8479896119246177 [Eh]

	 ================> DF-SCS-MP2 Energies <==================
	-----------------------------------------------------------
	 SCS Same-Spin Scale       =       0.3333333333333333 [-]
	 SCS Opposite-Spin Scale   =       1.2000000000000000 [-]
	 SCS Same-Spin Energy      =      -0.1865634152812973 [Eh]
	 SCS Opposite-Spin Energy  =      -1.9299440569763209 [Eh]
	 SCS Correlation Energy    =      -2.1165074722576183 [Eh]
	 SCS Total Energy          =    -713.7965201241913746 [Eh]
	-----------------------------------------------------------

  Dipole Moment: [D]
     X:     1.3956      Y:     0.0000      Z:     1.3015     Total:     1.9083

*** Psi4 exiting successfully. Buy a developer a beer!
