                               Psi4 1.4a3.dev225

  ==> Input File <==

--------------------------------------------------------------------------
#psi4
#
memory 32 gb

molecule  {
0 1
  F        2.3385500     0.0000060     0.9042500
  F        1.3594210     1.0893460    -0.7117020
  F        1.3594370    -1.0893460    -0.7117010
  F       -1.3594380     1.0893620    -0.7116760
  F       -1.3594210    -1.0893290    -0.7117260
  F       -2.3385500    -0.0000290     0.9042500
  C        0.0000000    -0.0000100     0.8940430
  C        1.2517449     0.0000009     0.0876325
  C       -1.2685580     0.0000010     0.0768010
  H        0.0000000     0.8876500     1.5294500
  H        0.0000010    -0.8876820     1.5294320
units angstrom
no_reorient  #important for SAPT in psi4, default
symmetry c1  #important for SAPT in psi4, default
}

set PROPERTIES_ORIGIN ["COM"]
properties('MP2/aug-cc-pvtz', properties = ['dipole'])
--------------------------------------------------------------------------

    Molecular point group: c1
  Charge       = 0
  Multiplicity = 1
  Basis Set: AUG-CC-PVTZ
    Blend: AUG-CC-PVTZ
  Basis Set: (AUG-CC-PVTZ AUX)
    Blend: AUG-CC-PVTZ-JKFIT

    Orbital Energies [Eh]
    ---------------------

    Doubly Occupied:

       1A    -26.358194     2A    -26.355641     3A    -26.355619
       4A    -26.355109     5A    -26.352443     6A    -26.352421
       7A    -11.536215     8A    -11.534774     9A    -11.308615
      10A     -1.743857    11A     -1.735616    12A     -1.650663
      13A     -1.650615    14A     -1.644579    15A     -1.642960
      16A     -1.147275    17A     -0.994990    18A     -0.933869
      19A     -0.849241    20A     -0.845964    21A     -0.845435
      22A     -0.829363    23A     -0.817480    24A     -0.769230
      25A     -0.739755    26A     -0.725352    27A     -0.720285
      28A     -0.714284    29A     -0.686396    30A     -0.684495
      31A     -0.670925    32A     -0.669346    33A     -0.667216
      34A     -0.660012    35A     -0.624843    36A     -0.607467
      37A     -0.590179

  @DF-RHF Final Energy:  -711.71101081214147

   => Energetics <=

    Nuclear Repulsion Energy =            543.4920230423865632
    One-Electron Energy =               -2071.6646236763890556
    Two-Electron Energy =                 816.4615898218610255
    Total Energy =                       -711.7110108121414669
  Basis Set: (AUG-CC-PVTZ AUX)
    Blend: AUG-CC-PVTZ-RI
    Molecular point group: c1

    Geometry (in Angstrom), charge = 0, multiplicity = 1:

       Center              X                  Y                   Z               Mass
    ------------   -----------------  -----------------  -----------------  -----------------
         F            2.339877415358     0.000005601768     0.930180551132    18.998403162730
         F            1.360748415358     1.089345601768    -0.685771448868    18.998403162730
         F            1.360764415358    -1.089346398232    -0.685770448868    18.998403162730
         F           -1.358110584642     1.089361601768    -0.685745448868    18.998403162730
         F           -1.358093584642    -1.089329398232    -0.685795448868    18.998403162730
         F           -2.337222584642    -0.000029398232     0.930180551132    18.998403162730
         C            0.001327415358    -0.000010398232     0.919973551132    12.000000000000
         C            1.253072315358     0.000000501768     0.113563051132    12.000000000000
         C           -1.267230584642     0.000000601768     0.102731551132    12.000000000000
         H            0.001327415358     0.887649601768     1.555380551132     1.007825032230
         H            0.001328415358    -0.887682398232     1.555362551132     1.007825032230

  Basis Set: AUG-CC-PVTZ
    Blend: AUG-CC-PVTZ
  Basis Set: (AUG-CC-PVTZ AUX)
    Blend: AUG-CC-PVTZ-JKFIT
	 Reference Energy          =    -711.7110108121414669 [Eh]
	 Singles Energy            =      -0.0000000000000000 [Eh]
	 Same-Spin Energy          =      -0.5606688438832623 [Eh]
	 Opposite-Spin Energy      =      -1.6117752697051544 [Eh]
	 Correlation Energy        =      -2.1724441135884165 [Eh]
	 Total Energy              =    -713.8834549257298931 [Eh]

	 ================> DF-SCS-MP2 Energies <==================
	-----------------------------------------------------------
	 SCS Same-Spin Scale       =       0.3333333333333333 [-]
	 SCS Opposite-Spin Scale   =       1.2000000000000000 [-]
	 SCS Same-Spin Energy      =      -0.1868896146277541 [Eh]
	 SCS Opposite-Spin Energy  =      -1.9341303236461851 [Eh]
	 SCS Correlation Energy    =      -2.1210199382739390 [Eh]
	 SCS Total Energy          =    -713.8320307504153561 [Eh]
	-----------------------------------------------------------

  Dipole Moment: [D]
     X:    -0.1305      Y:     0.0000      Z:     2.1285     Total:     2.1325

*** Psi4 exiting successfully. Buy a developer a beer!
