                               Psi4 1.3.2 release

  ==> Input File <==

--------------------------------------------------------------------------
#psi4
#
memory 32 gb

molecule  {
0 1
  F        2.3239461     0.0000058     0.9227979
  F        1.3594210     1.0893460    -0.7117020
  F        1.3594370    -1.0893460    -0.7117010
  F       -1.3594380     1.0893620    -0.7116760
  F       -1.3594210    -1.0893290    -0.7117260
  F       -2.3385500    -0.0000290     0.9042500
  C        0.0000000    -0.0000100     0.8940430
  C        1.2685580     0.0000010     0.0768010
  C       -1.2685580     0.0000010     0.0768010
  H        0.0000000     0.8876500     1.5294500
  H        0.0000010    -0.8876820     1.5294320
units angstrom
no_reorient  #important for SAPT in psi4, default
symmetry c1  #important for SAPT in psi4, default
}

set PROPERTIES_ORIGIN ["COM"]
properties('MP2/aug-cc-pvtz', properties = ['dipole'])
--------------------------------------------------------------------------

    Molecular point group: c1
  Charge       = 0
  Multiplicity = 1
  Basis Set: AUG-CC-PVTZ
    Blend: AUG-CC-PVTZ
  Basis Set: (AUG-CC-PVTZ AUX)
    Blend: AUG-CC-PVTZ-JKFIT

    Orbital Energies [Eh]
    ---------------------

    Doubly Occupied:

       1A    -26.357425     2A    -26.356329     3A    -26.355233
       4A    -26.355212     5A    -26.354130     6A    -26.354109
       7A    -11.534489     8A    -11.533651     9A    -11.305991
      10A     -1.744074    11A     -1.738352    12A     -1.651133
      13A     -1.651001    14A     -1.647994    15A     -1.646091
      16A     -1.140476    17A     -0.993930    18A     -0.934470
      19A     -0.849651    20A     -0.846367    21A     -0.845919
      22A     -0.831502    23A     -0.819008    24A     -0.769644
      25A     -0.739744    26A     -0.725474    27A     -0.721793
      28A     -0.715040    29A     -0.687749    30A     -0.685766
      31A     -0.672564    32A     -0.671277    33A     -0.667854
      34A     -0.661473    35A     -0.622135    36A     -0.602241
      37A     -0.584106

  @DF-RHF Final Energy:  -711.71253347675110

   => Energetics <=

    Nuclear Repulsion Energy =            543.5203016893899530
    One-Electron Energy =               -2071.7188748879630111
    Two-Electron Energy =                 816.4860397218219532
    Total Energy =                       -711.7125334767511049
  Basis Set: (AUG-CC-PVTZ AUX)
    Blend: AUG-CC-PVTZ-RI
    Molecular point group: c1

    Geometry (in Angstrom), charge = 0, multiplicity = 1:

       Center              X                  Y                   Z               Mass
    ------------   -----------------  -----------------  -----------------  -----------------
         F            2.325771479554     0.000005418871     0.947265335327    18.998403162730
         F            1.361246379554     1.089345618871    -0.687234564673    18.998403162730
         F            1.361262379554    -1.089346381129    -0.687233564673    18.998403162730
         F           -1.357612620446     1.089361618871    -0.687208564673    18.998403162730
         F           -1.357595620446    -1.089329381129    -0.687258564673    18.998403162730
         F           -2.336724620446    -0.000029381129     0.928717435327    18.998403162730
         C            0.001825379554    -0.000010381129     0.918510435327    12.000000000000
         C            1.270383379554     0.000000618871     0.101268435327    12.000000000000
         C           -1.266732620446     0.000000618871     0.101268435327    12.000000000000
         H            0.001825379554     0.887649618871     1.553917435327     1.007825032230
         H            0.001826379554    -0.887682381129     1.553899435327     1.007825032230

  Basis Set: AUG-CC-PVTZ
    Blend: AUG-CC-PVTZ
  Basis Set: (AUG-CC-PVTZ AUX)
    Blend: AUG-CC-PVTZ-JKFIT
	 Reference Energy          =    -711.7125334767511049 [Eh]
	 Singles Energy            =      -0.0000000000000000 [Eh]
	 Same-Spin Energy          =      -0.5603917413433382 [Eh]
	 Opposite-Spin Energy      =      -1.6110730543483971 [Eh]
	 Correlation Energy        =      -2.1714647956917354 [Eh]
	 Total Energy              =    -713.8839982724427955 [Eh]

	 ================> DF-SCS-MP2 Energies <==================
	-----------------------------------------------------------
	 SCS Same-Spin Scale       =       0.3333333333333333 [-]
	 SCS Opposite-Spin Scale   =       1.2000000000000000 [-]
	 SCS Same-Spin Energy      =      -0.1867972471144461 [Eh]
	 SCS Opposite-Spin Energy  =      -1.9332876652180764 [Eh]
	 SCS Correlation Energy    =      -2.1200849123325223 [Eh]
	 SCS Total Energy          =    -713.8326183890836774 [Eh]
	-----------------------------------------------------------

  Dipole Moment: [D]
     X:     0.0356      Y:     0.0000      Z:     2.0350     Total:     2.0353

*** Psi4 exiting successfully. Buy a developer a beer!
