                               Psi4 1.3.2 release

  ==> Input File <==

--------------------------------------------------------------------------
#psi4
#
memory 32 gb

molecule  {
0 1
  F        2.3385500     0.0000060     0.9042500
  F        1.3594210     1.0893460    -0.7117020
  F        1.3594370    -1.0893460    -0.7117010
  F       -1.3594380     1.0893620    -0.7116760
  F       -1.3594210    -1.0893290    -0.7117260
  F       -2.3385500    -0.0000290     0.9042500
  C        0.0000000    -0.0000100     0.8940430
  C        1.2948607     0.0901937     0.1244178
  C       -1.2685580     0.0000010     0.0768010
  H        0.0000000     0.8876500     1.5294500
  H        0.0000010    -0.8876820     1.5294320
units angstrom
no_reorient  #important for SAPT in psi4, default
symmetry c1  #important for SAPT in psi4, default
}

set PROPERTIES_ORIGIN ["COM"]
properties('MP2/aug-cc-pvtz', properties = ['dipole'])
--------------------------------------------------------------------------

    Molecular point group: c1
  Charge       = 0
  Multiplicity = 1
  Basis Set: AUG-CC-PVTZ
    Blend: AUG-CC-PVTZ
  Basis Set: (AUG-CC-PVTZ AUX)
    Blend: AUG-CC-PVTZ-JKFIT

    Orbital Energies [Eh]
    ---------------------

    Doubly Occupied:

       1A    -26.376824     2A    -26.373387     3A    -26.356933
       4A    -26.354521     5A    -26.350813     6A    -26.313984
       7A    -11.536536     8A    -11.534559     9A    -11.307881
      10A     -1.758246    11A     -1.739934    12A     -1.682982
      13A     -1.648965    14A     -1.646127    15A     -1.601148
      16A     -1.140942    17A     -0.997340    18A     -0.937946
      19A     -0.860374    20A     -0.850210    21A     -0.842898
      22A     -0.831225    23A     -0.824414    24A     -0.772410
      25A     -0.739432    26A     -0.730439    27A     -0.722618
      28A     -0.705774    29A     -0.700889    30A     -0.679240
      31A     -0.676263    32A     -0.663909    33A     -0.651526
      34A     -0.645765    35A     -0.624838    36A     -0.596239
      37A     -0.583434

  @DF-RHF Final Energy:  -711.70243234646341

   => Energetics <=

    Nuclear Repulsion Energy =            543.1392424443777145
    One-Electron Energy =               -2070.9614190622542083
    Two-Electron Energy =                 816.1197442714130830
    Total Energy =                       -711.7024323464634108
  Basis Set: (AUG-CC-PVTZ AUX)
    Blend: AUG-CC-PVTZ-RI
    Molecular point group: c1

    Geometry (in Angstrom), charge = 0, multiplicity = 1:

       Center              X                  Y                   Z               Mass
    ------------   -----------------  -----------------  -----------------  -----------------
         F            2.336473672315    -0.007114598148     0.927276564451    18.998403162730
         F            1.357344672315     1.082225401852    -0.688675435549    18.998403162730
         F            1.357360672315    -1.096466598148    -0.688674435549    18.998403162730
         F           -1.361514327685     1.082241401852    -0.688649435549    18.998403162730
         F           -1.361497327685    -1.096449598148    -0.688699435549    18.998403162730
         F           -2.340626327685    -0.007149598148     0.927276564451    18.998403162730
         C           -0.002076327685    -0.007130598148     0.917069564451    12.000000000000
         C            1.292784372315     0.083073101852     0.147444364451    12.000000000000
         C           -1.270634327685    -0.007119598148     0.099827564451    12.000000000000
         H           -0.002076327685     0.880529401852     1.552476564451     1.007825032230
         H           -0.002075327685    -0.894802598148     1.552458564451     1.007825032230

  Basis Set: AUG-CC-PVTZ
    Blend: AUG-CC-PVTZ
  Basis Set: (AUG-CC-PVTZ AUX)
    Blend: AUG-CC-PVTZ-JKFIT
	 Reference Energy          =    -711.7024323464634108 [Eh]
	 Singles Energy            =      -0.0000000000000000 [Eh]
	 Same-Spin Energy          =      -0.5607211725402256 [Eh]
	 Opposite-Spin Energy      =      -1.6117151410555253 [Eh]
	 Correlation Energy        =      -2.1724363135957510 [Eh]
	 Total Energy              =    -713.8748686600591782 [Eh]

	 ================> DF-SCS-MP2 Energies <==================
	-----------------------------------------------------------
	 SCS Same-Spin Scale       =       0.3333333333333333 [-]
	 SCS Opposite-Spin Scale   =       1.2000000000000000 [-]
	 SCS Same-Spin Energy      =      -0.1869070575134085 [Eh]
	 SCS Opposite-Spin Energy  =      -1.9340581692666303 [Eh]
	 SCS Correlation Energy    =      -2.1209652267800387 [Eh]
	 SCS Total Energy          =    -713.8233975732434828 [Eh]
	-----------------------------------------------------------

  Dipole Moment: [D]
     X:     0.2141      Y:     0.6823      Z:     2.4144     Total:     2.5181

*** Psi4 exiting successfully. Buy a developer a beer!
