                               Psi4 1.3.2 release

  ==> Input File <==

--------------------------------------------------------------------------
#psi4
#
memory 32 gb

molecule  {
0 1
  F        2.3385500     0.0000060     0.9042500
  F        1.3594210     1.0893460    -0.7117020
  F        1.3594370    -1.0893460    -0.7117010
  F       -1.3594380     1.0893620    -0.7116760
  F       -1.3594210    -1.0893290    -0.7117260
  F       -2.3385500    -0.0000290     0.9042500
  C        0.0000000    -0.0000100     0.8940430
  C        1.2541020     0.0000013     0.0547861
  C       -1.2685580     0.0000010     0.0768010
  H        0.0000000     0.8876500     1.5294500
  H        0.0000010    -0.8876820     1.5294320
units angstrom
no_reorient  #important for SAPT in psi4, default
symmetry c1  #important for SAPT in psi4, default
}

set PROPERTIES_ORIGIN ["COM"]
properties('MP2/aug-cc-pvtz', properties = ['dipole'])
--------------------------------------------------------------------------

    Molecular point group: c1
  Charge       = 0
  Multiplicity = 1
  Basis Set: AUG-CC-PVTZ
    Blend: AUG-CC-PVTZ
  Basis Set: (AUG-CC-PVTZ AUX)
    Blend: AUG-CC-PVTZ-JKFIT

    Orbital Energies [Eh]
    ---------------------

    Doubly Occupied:

       1A    -26.359230     2A    -26.359209     3A    -26.356888
       4A    -26.355454     5A    -26.355432     6A    -26.346765
       7A    -11.534445     8A    -11.534404     9A    -11.307019
      10A     -1.745483    11A     -1.739327    12A     -1.657599
      13A     -1.649649    14A     -1.648777    15A     -1.639055
      16A     -1.141582    17A     -0.993657    18A     -0.935397
      19A     -0.849168    20A     -0.847744    21A     -0.846597
      22A     -0.833179    23A     -0.817398    24A     -0.771605
      25A     -0.741807    26A     -0.724168    27A     -0.718627
      28A     -0.716331    29A     -0.689746    30A     -0.683175
      31A     -0.675652    32A     -0.668889    33A     -0.667332
      34A     -0.660739    35A     -0.623036    36A     -0.605457
      37A     -0.583439

  @DF-RHF Final Energy:  -711.71204855044357

   => Energetics <=

    Nuclear Repulsion Energy =            543.6371856292977327
    One-Electron Energy =               -2071.9315411331604082
    Two-Electron Energy =                 816.5823069534192200
    Total Energy =                       -711.7120485504435692
  Basis Set: (AUG-CC-PVTZ AUX)
    Blend: AUG-CC-PVTZ-RI
    Molecular point group: c1

    Geometry (in Angstrom), charge = 0, multiplicity = 1:

       Center              X                  Y                   Z               Mass
    ------------   -----------------  -----------------  -----------------  -----------------
         F            2.339691335946     0.000005570191     0.932773584440    18.998403162730
         F            1.360562335946     1.089345570191    -0.683178415560    18.998403162730
         F            1.360578335946    -1.089346429809    -0.683177415560    18.998403162730
         F           -1.358296664054     1.089361570191    -0.683152415560    18.998403162730
         F           -1.358279664054    -1.089329429809    -0.683202415560    18.998403162730
         F           -2.337408664054    -0.000029429809     0.932773584440    18.998403162730
         C            0.001141335946    -0.000010429809     0.922566584440    12.000000000000
         C            1.255243335946     0.000000870191     0.083309684440    12.000000000000
         C           -1.267416664054     0.000000570191     0.105324584440    12.000000000000
         H            0.001141335946     0.887649570191     1.557973584440     1.007825032230
         H            0.001142335946    -0.887682429809     1.557955584440     1.007825032230

  Basis Set: AUG-CC-PVTZ
    Blend: AUG-CC-PVTZ
  Basis Set: (AUG-CC-PVTZ AUX)
    Blend: AUG-CC-PVTZ-JKFIT
	 Reference Energy          =    -711.7120485504435692 [Eh]
	 Singles Energy            =      -0.0000000000000000 [Eh]
	 Same-Spin Energy          =      -0.5604190120569197 [Eh]
	 Opposite-Spin Energy      =      -1.6110817714719696 [Eh]
	 Correlation Energy        =      -2.1715007835288893 [Eh]
	 Total Energy              =    -713.8835493339724962 [Eh]

	 ================> DF-SCS-MP2 Energies <==================
	-----------------------------------------------------------
	 SCS Same-Spin Scale       =       0.3333333333333333 [-]
	 SCS Opposite-Spin Scale   =       1.2000000000000000 [-]
	 SCS Same-Spin Energy      =      -0.1868063373523066 [Eh]
	 SCS Opposite-Spin Energy  =      -1.9332981257663635 [Eh]
	 SCS Correlation Energy    =      -2.1201044631186701 [Eh]
	 SCS Total Energy          =    -713.8321530135622197 [Eh]
	-----------------------------------------------------------

  Dipole Moment: [D]
     X:    -0.1167      Y:     0.0000      Z:     1.8915     Total:     1.8951

*** Psi4 exiting successfully. Buy a developer a beer!
