                               Psi4 1.4a3.dev225

  ==> Input File <==

--------------------------------------------------------------------------
#psi4
#
memory 32 gb

molecule  {
0 1
  F        2.3385500     0.0000060     0.9042500
  F        1.3594210     1.0893460    -0.7117020
  F        1.3594370    -1.0893460    -0.7117010
  F       -1.3594380     1.0893620    -0.7116760
  F       -1.3594210    -1.0893290    -0.7117260
  F       -2.3385500    -0.0000290     0.9042500
  C        0.0000000    -0.0000100     0.8940430
  C        1.3105907     0.0000014     0.0497223
  C       -1.2685580     0.0000010     0.0768010
  H        0.0000000     0.8876500     1.5294500
  H        0.0000010    -0.8876820     1.5294320
units angstrom
no_reorient  #important for SAPT in psi4, default
symmetry c1  #important for SAPT in psi4, default
}

set PROPERTIES_ORIGIN ["COM"]
properties('MP2/aug-cc-pvtz', properties = ['dipole'])
--------------------------------------------------------------------------

    Molecular point group: c1
  Charge       = 0
  Multiplicity = 1
  Basis Set: AUG-CC-PVTZ
    Blend: AUG-CC-PVTZ
  Basis Set: (AUG-CC-PVTZ AUX)
    Blend: AUG-CC-PVTZ-JKFIT

    Orbital Energies [Eh]
    ---------------------

    Doubly Occupied:

       1A    -26.361037     2A    -26.359450     3A    -26.359428
       4A    -26.353252     5A    -26.351420     6A    -26.351398
       7A    -11.533806     8A    -11.529577     9A    -11.301867
      10A     -1.752930    11A     -1.737644    12A     -1.660260
      13A     -1.659505    14A     -1.645684    15A     -1.645156
      16A     -1.126392    17A     -0.992297    18A     -0.935633
      19A     -0.853823    20A     -0.851033    21A     -0.845521
      22A     -0.832997    23A     -0.821328    24A     -0.770728
      25A     -0.741389    26A     -0.729135    27A     -0.720305
      28A     -0.716698    29A     -0.692043    30A     -0.689848
      31A     -0.674120    32A     -0.671575    33A     -0.670763
      34A     -0.660487    35A     -0.616787    36A     -0.593623
      37A     -0.568925

  @DF-RHF Final Energy:  -711.71258613349971

   => Energetics <=

    Nuclear Repulsion Energy =            543.4098743696206384
    One-Electron Energy =               -2071.4891956928286163
    Two-Electron Energy =                 816.3667351897082654
    Total Energy =                       -711.7125861334997126
  Basis Set: (AUG-CC-PVTZ AUX)
    Blend: AUG-CC-PVTZ-RI
    Molecular point group: c1

    Geometry (in Angstrom), charge = 0, multiplicity = 1:

       Center              X                  Y                   Z               Mass
    ------------   -----------------  -----------------  -----------------  -----------------
         F            2.335231879792     0.000005562296     0.933173342162    18.998403162730
         F            1.356102879792     1.089345562296    -0.682778657838    18.998403162730
         F            1.356118879792    -1.089346437704    -0.682777657838    18.998403162730
         F           -1.362756120208     1.089361562296    -0.682752657838    18.998403162730
         F           -1.362739120208    -1.089329437704    -0.682802657838    18.998403162730
         F           -2.341868120208    -0.000029437704     0.933173342162    18.998403162730
         C           -0.003318120208    -0.000010437704     0.922966342162    12.000000000000
         C            1.307272579792     0.000000962296     0.078645642162    12.000000000000
         C           -1.271876120208     0.000000562296     0.105724342162    12.000000000000
         H           -0.003318120208     0.887649562296     1.558373342162     1.007825032230
         H           -0.003317120208    -0.887682437704     1.558355342162     1.007825032230

  Basis Set: AUG-CC-PVTZ
    Blend: AUG-CC-PVTZ
  Basis Set: (AUG-CC-PVTZ AUX)
    Blend: AUG-CC-PVTZ-JKFIT
	 Reference Energy          =    -711.7125861334997126 [Eh]
	 Singles Energy            =      -0.0000000000000000 [Eh]
	 Same-Spin Energy          =      -0.5598144416334061 [Eh]
	 Opposite-Spin Energy      =      -1.6094907146674164 [Eh]
	 Correlation Energy        =      -2.1693051563008225 [Eh]
	 Total Energy              =    -713.8818912898004783 [Eh]

	 ================> DF-SCS-MP2 Energies <==================
	-----------------------------------------------------------
	 SCS Same-Spin Scale       =       0.3333333333333333 [-]
	 SCS Opposite-Spin Scale   =       1.2000000000000000 [-]
	 SCS Same-Spin Energy      =      -0.1866048138778020 [Eh]
	 SCS Opposite-Spin Energy  =      -1.9313888576008997 [Eh]
	 SCS Correlation Energy    =      -2.1179936714787018 [Eh]
	 SCS Total Energy          =    -713.8305798049784698 [Eh]
	-----------------------------------------------------------

  Dipole Moment: [D]
     X:     0.3302      Y:     0.0000      Z:     1.8794     Total:     1.9082

*** Psi4 exiting successfully. Buy a developer a beer!
