                               Psi4 1.3.2 release

  ==> Input File <==

--------------------------------------------------------------------------
#psi4
#
memory 32 gb

molecule  {
0 1
  F        2.3385500     0.0000060     0.9042500
  F        1.3594210     1.0893460    -0.7117020
  F        1.3594370    -1.0893460    -0.7117010
  F       -1.3594380     1.0893620    -0.7116760
  F       -1.3594210    -1.0893290    -0.7117260
  F       -2.3385500    -0.0000290     0.9042500
  C        0.0000000    -0.0000100     0.8940430
  C        1.1004273    -0.0000005     0.1851157
  C       -1.2685580     0.0000010     0.0768010
  H        0.0000000     0.8876500     1.5294500
  H        0.0000010    -0.8876820     1.5294320
units angstrom
no_reorient  #important for SAPT in psi4, default
symmetry c1  #important for SAPT in psi4, default
}

set PROPERTIES_ORIGIN ["COM"]
properties('MP2/aug-cc-pvtz', properties = ['dipole'])
--------------------------------------------------------------------------

    Molecular point group: c1
  Charge       = 0
  Multiplicity = 1
  Basis Set: AUG-CC-PVTZ
    Blend: AUG-CC-PVTZ
  Basis Set: (AUG-CC-PVTZ AUX)
    Blend: AUG-CC-PVTZ-JKFIT

    Orbital Energies [Eh]
    ---------------------

    Doubly Occupied:

       1A    -26.371147     2A    -26.366969     3A    -26.366947
       4A    -26.338404     5A    -26.333097     6A    -26.333075
       7A    -11.554873     8A    -11.541547     9A    -11.319735
      10A     -1.754894    11A     -1.691368    12A     -1.662415
      13A     -1.660743    14A     -1.604908    15A     -1.601043
      16A     -1.217800    17A     -1.010761    18A     -0.921418
      19A     -0.857408    20A     -0.855063    21A     -0.849846
      22A     -0.801856    23A     -0.795120    24A     -0.757705
      25A     -0.742613    26A     -0.732849    27A     -0.706154
      28A     -0.699513    29A     -0.690186    30A     -0.685208
      31A     -0.676679    32A     -0.652918    33A     -0.641667
      34A     -0.641587    35A     -0.638815    36A     -0.637029
      37A     -0.610532

  @DF-RHF Final Energy:  -711.64234073685282

   => Energetics <=

    Nuclear Repulsion Energy =            543.6625715074089840
    One-Electron Energy =               -2071.9620461344684372
    Two-Electron Energy =                 816.6571338902066373
    Total Energy =                       -711.6423407368528160
  Basis Set: (AUG-CC-PVTZ AUX)
    Blend: AUG-CC-PVTZ-RI
    Molecular point group: c1

    Geometry (in Angstrom), charge = 0, multiplicity = 1:

       Center              X                  Y                   Z               Mass
    ------------   -----------------  -----------------  -----------------  -----------------
         F            2.351823064709     0.000005712290     0.922484816301    18.998403162730
         F            1.372694064709     1.089345712290    -0.693467183699    18.998403162730
         F            1.372710064709    -1.089346287710    -0.693466183699    18.998403162730
         F           -1.346164935291     1.089361712290    -0.693441183699    18.998403162730
         F           -1.346147935291    -1.089329287710    -0.693491183699    18.998403162730
         F           -2.325276935291    -0.000029287710     0.922484816301    18.998403162730
         C            0.013273064709    -0.000010287710     0.912277816301    12.000000000000
         C            1.113700364709    -0.000000787710     0.203350516301    12.000000000000
         C           -1.255284935291     0.000000712290     0.095035816301    12.000000000000
         H            0.013273064709     0.887649712290     1.547684816301     1.007825032230
         H            0.013274064709    -0.887682287710     1.547666816301     1.007825032230

  Basis Set: AUG-CC-PVTZ
    Blend: AUG-CC-PVTZ
  Basis Set: (AUG-CC-PVTZ AUX)
    Blend: AUG-CC-PVTZ-JKFIT
	 Reference Energy          =    -711.6423407368528160 [Eh]
	 Singles Energy            =      -0.0000000000000000 [Eh]
	 Same-Spin Energy          =      -0.5654409094974363 [Eh]
	 Opposite-Spin Energy      =      -1.6228304930209527 [Eh]
	 Correlation Energy        =      -2.1882714025183891 [Eh]
	 Total Energy              =    -713.8306121393711692 [Eh]

	 ================> DF-SCS-MP2 Energies <==================
	-----------------------------------------------------------
	 SCS Same-Spin Scale       =       0.3333333333333333 [-]
	 SCS Opposite-Spin Scale   =       1.2000000000000000 [-]
	 SCS Same-Spin Energy      =      -0.1884803031658121 [Eh]
	 SCS Opposite-Spin Energy  =      -1.9473965916251432 [Eh]
	 SCS Correlation Energy    =      -2.1358768947909552 [Eh]
	 SCS Total Energy          =    -713.7782176316437699 [Eh]
	-----------------------------------------------------------

  Dipole Moment: [D]
     X:    -1.3361      Y:    -0.0000      Z:     2.7723     Total:     3.0774

*** Psi4 exiting successfully. Buy a developer a beer!
