                               Psi4 1.3.2 release

  ==> Input File <==

--------------------------------------------------------------------------
#psi4
#
memory 32 gb

molecule  {
0 1
  F        2.3385500     0.0000060     0.9042500
  F        1.3594210     1.0893460    -0.7117020
  F        1.3594370    -1.0893460    -0.7117010
  F       -1.3594380     1.0893620    -0.7116760
  F       -1.3594210    -1.0893290    -0.7117260
  F       -2.3385500    -0.0000290     0.9042500
  C        0.0000000    -0.0000100     0.8940430
  C        1.2175642    -0.1351508     0.0129083
  C       -1.2685580     0.0000010     0.0768010
  H        0.0000000     0.8876500     1.5294500
  H        0.0000010    -0.8876820     1.5294320
units angstrom
no_reorient  #important for SAPT in psi4, default
symmetry c1  #important for SAPT in psi4, default
}

set PROPERTIES_ORIGIN ["COM"]
properties('MP2/aug-cc-pvtz', properties = ['dipole'])
--------------------------------------------------------------------------

    Molecular point group: c1
  Charge       = 0
  Multiplicity = 1
  Basis Set: AUG-CC-PVTZ
    Blend: AUG-CC-PVTZ
  Basis Set: (AUG-CC-PVTZ AUX)
    Blend: AUG-CC-PVTZ-JKFIT

    Orbital Energies [Eh]
    ---------------------

    Doubly Occupied:

       1A    -26.414615     2A    -26.361294     3A    -26.357628
       4A    -26.355087     5A    -26.323336     6A    -26.322358
       7A    -11.538718     8A    -11.535352     9A    -11.309664
      10A     -1.808648    11A     -1.744278    12A     -1.653820
      13A     -1.649993    14A     -1.641201    15A     -1.596067
      16A     -1.145068    17A     -1.002791    18A     -0.951224
      19A     -0.862440    20A     -0.859636    21A     -0.857792
      22A     -0.839475    23A     -0.829238    24A     -0.780116
      25A     -0.736670    26A     -0.727510    27A     -0.712060
      28A     -0.699958    29A     -0.687969    30A     -0.680382
      31A     -0.676233    32A     -0.667195    33A     -0.658829
      34A     -0.631231    35A     -0.629959    36A     -0.603751
      37A     -0.574646

  @DF-RHF Final Energy:  -711.68413015098201

   => Energetics <=

    Nuclear Repulsion Energy =            544.0646418730476626
    One-Electron Energy =               -2072.6450817913528226
    Two-Electron Energy =                 816.8963097673232596
    Total Energy =                       -711.6841301509820141
  Basis Set: (AUG-CC-PVTZ AUX)
    Blend: AUG-CC-PVTZ-RI
    Molecular point group: c1

    Geometry (in Angstrom), charge = 0, multiplicity = 1:

       Center              X                  Y                   Z               Mass
    ------------   -----------------  -----------------  -----------------  -----------------
         F            2.342575783934     0.010675046812     0.936079594543    18.998403162730
         F            1.363446783934     1.100015046812    -0.679872405457    18.998403162730
         F            1.363462783934    -1.078676953188    -0.679871405457    18.998403162730
         F           -1.355412216066     1.100031046812    -0.679846405457    18.998403162730
         F           -1.355395216066    -1.078659953188    -0.679896405457    18.998403162730
         F           -2.334524216066     0.010640046812     0.936079594543    18.998403162730
         C            0.004025783934     0.010659046812     0.925872594543    12.000000000000
         C            1.221589983934    -0.124481753188     0.044737894543    12.000000000000
         C           -1.264532216066     0.010670046812     0.108630594543    12.000000000000
         H            0.004025783934     0.898319046812     1.561279594543     1.007825032230
         H            0.004026783934    -0.877012953188     1.561261594543     1.007825032230

  Basis Set: AUG-CC-PVTZ
    Blend: AUG-CC-PVTZ
  Basis Set: (AUG-CC-PVTZ AUX)
    Blend: AUG-CC-PVTZ-JKFIT
	 Reference Energy          =    -711.6841301509820141 [Eh]
	 Singles Energy            =      -0.0000000000000000 [Eh]
	 Same-Spin Energy          =      -0.5613590636908611 [Eh]
	 Opposite-Spin Energy      =      -1.6129595585311045 [Eh]
	 Correlation Energy        =      -2.1743186222219655 [Eh]
	 Total Energy              =    -713.8584487732040316 [Eh]

	 ================> DF-SCS-MP2 Energies <==================
	-----------------------------------------------------------
	 SCS Same-Spin Scale       =       0.3333333333333333 [-]
	 SCS Opposite-Spin Scale   =       1.2000000000000000 [-]
	 SCS Same-Spin Energy      =      -0.1871196878969537 [Eh]
	 SCS Opposite-Spin Energy  =      -1.9355514702373253 [Eh]
	 SCS Correlation Energy    =      -2.1226711581342790 [Eh]
	 SCS Total Energy          =    -713.8068013091162811 [Eh]
	-----------------------------------------------------------

  Dipole Moment: [D]
     X:    -0.4158      Y:    -1.0588      Z:     1.5498     Total:     1.9225

*** Psi4 exiting successfully. Buy a developer a beer!
