                               Psi4 1.3.2 release

  ==> Input File <==

--------------------------------------------------------------------------
#psi4
#
memory 32 gb

molecule  {
0 1
  F        2.3385500     0.0000060     0.9042500
  F        1.3594210     1.0893460    -0.7117020
  F        1.3594370    -1.0893460    -0.7117010
  F       -1.3594380     1.0893620    -0.7116760
  F       -1.3594210    -1.0893290    -0.7117260
  F       -2.3385500    -0.0000290     0.9042500
  C        0.0000000    -0.0000100     0.8940430
  C        1.2685580     0.0000010     0.0768010
  C       -1.2685580     0.0000010     0.0768010
  H        0.0000000     0.8876500     1.5294500
  H        0.0000010    -0.8876820     1.5294320
units angstrom
no_reorient  #important for SAPT in psi4, default
symmetry c1  #important for SAPT in psi4, default
}

set PROPERTIES_ORIGIN ["COM"]
properties('MP2/aug-cc-pvtz', properties = ['dipole'])
--------------------------------------------------------------------------

    Molecular point group: c1
  Charge       = 0
  Multiplicity = 1
  Basis Set: AUG-CC-PVTZ
    Blend: AUG-CC-PVTZ
  Basis Set: (AUG-CC-PVTZ AUX)
    Blend: AUG-CC-PVTZ-JKFIT

    Orbital Energies [Eh]
    ---------------------

    Doubly Occupied:

       1A    -26.356798     2A    -26.356798     3A    -26.354439
       4A    -26.354437     5A    -26.354418     6A    -26.354415
       7A    -11.534313     8A    -11.534307     9A    -11.306861
      10A     -1.744224    11A     -1.738535    12A     -1.650986
      13A     -1.650350    14A     -1.647799    15A     -1.646009
      16A     -1.140972    17A     -0.993967    18A     -0.934620
      19A     -0.849459    20A     -0.846234    21A     -0.845895
      22A     -0.831516    23A     -0.819104    24A     -0.769816
      25A     -0.739981    26A     -0.725253    27A     -0.721556
      28A     -0.715146    29A     -0.687412    30A     -0.685285
      31A     -0.672358    32A     -0.670777    33A     -0.667499
      34A     -0.661139    35A     -0.622632    36A     -0.602591
      37A     -0.585461

  @DF-RHF Final Energy:  -711.71271459854199

   => Energetics <=

    Nuclear Repulsion Energy =            543.4724253491179979
    One-Electron Energy =               -2071.6235492536270613
    Two-Electron Energy =                 816.4384093059669567
    Total Energy =                       -711.7127145985419929
  Basis Set: (AUG-CC-PVTZ AUX)
    Blend: AUG-CC-PVTZ-RI
    Molecular point group: c1

    Geometry (in Angstrom), charge = 0, multiplicity = 1:

       Center              X                  Y                   Z               Mass
    ------------   -----------------  -----------------  -----------------  -----------------
         F            2.338550118354     0.000005593874     0.931035635411    18.998403162730
         F            1.359421118354     1.089345593874    -0.684916364589    18.998403162730
         F            1.359437118354    -1.089346406126    -0.684915364589    18.998403162730
         F           -1.359437881646     1.089361593874    -0.684890364589    18.998403162730
         F           -1.359420881646    -1.089329406126    -0.684940364589    18.998403162730
         F           -2.338549881646    -0.000029406126     0.931035635411    18.998403162730
         C            0.000000118354    -0.000010406126     0.920828635411    12.000000000000
         C            1.268558118354     0.000000593874     0.103586635411    12.000000000000
         C           -1.268557881646     0.000000593874     0.103586635411    12.000000000000
         H            0.000000118354     0.887649593874     1.556235635411     1.007825032230
         H            0.000001118354    -0.887682406126     1.556217635411     1.007825032230

  Basis Set: AUG-CC-PVTZ
    Blend: AUG-CC-PVTZ
  Basis Set: (AUG-CC-PVTZ AUX)
    Blend: AUG-CC-PVTZ-JKFIT
	 Reference Energy          =    -711.7127145985419929 [Eh]
	 Singles Energy            =      -0.0000000000000000 [Eh]
	 Same-Spin Energy          =      -0.5603700493417320 [Eh]
	 Opposite-Spin Energy      =      -1.6110082767006302 [Eh]
	 Correlation Energy        =      -2.1713783260423623 [Eh]
	 Total Energy              =    -713.8840929245843654 [Eh]

	 ================> DF-SCS-MP2 Energies <==================
	-----------------------------------------------------------
	 SCS Same-Spin Scale       =       0.3333333333333333 [-]
	 SCS Opposite-Spin Scale   =       1.2000000000000000 [-]
	 SCS Same-Spin Energy      =      -0.1867900164472440 [Eh]
	 SCS Opposite-Spin Energy  =      -1.9332099320407561 [Eh]
	 SCS Correlation Energy    =      -2.1199999484880001 [Eh]
	 SCS Total Energy          =    -713.8327145470300366 [Eh]
	-----------------------------------------------------------

  Dipole Moment: [D]
     X:     0.0000      Y:     0.0000      Z:     2.0581     Total:     2.0581

*** Psi4 exiting successfully. Buy a developer a beer!
