                               Psi4 1.3.2 release

  ==> Input File <==

--------------------------------------------------------------------------
#psi4
#
memory 32 gb

molecule  {
0 1
  F        2.3385500     0.0000060     0.9042500
  F        1.3594210     1.0893460    -0.7117020
  F        1.3594370    -1.0893460    -0.7117010
  F       -1.3594380     1.0893620    -0.7116760
  F       -1.3594210    -1.0893290    -0.7117260
  F       -2.3385500    -0.0000290     0.9042500
  C        0.0000000    -0.0000100     0.8940430
  C        1.2084599     0.0000022    -0.0096984
  C       -1.2685580     0.0000010     0.0768010
  H        0.0000000     0.8876500     1.5294500
  H        0.0000010    -0.8876820     1.5294320
units angstrom
no_reorient  #important for SAPT in psi4, default
symmetry c1  #important for SAPT in psi4, default
}

set PROPERTIES_ORIGIN ["COM"]
properties('MP2/aug-cc-pvtz', properties = ['dipole'])
--------------------------------------------------------------------------

    Molecular point group: c1
  Charge       = 0
  Multiplicity = 1
  Basis Set: AUG-CC-PVTZ
    Blend: AUG-CC-PVTZ
  Basis Set: (AUG-CC-PVTZ AUX)
    Blend: AUG-CC-PVTZ-JKFIT

    Orbital Energies [Eh]
    ---------------------

    Doubly Occupied:

       1A    -26.373123     2A    -26.373102     3A    -26.358818
       4A    -26.358797     5A    -26.357424     6A    -26.316047
       7A    -11.536500     8A    -11.535054     9A    -11.308400
      10A     -1.757480    11A     -1.743795    12A     -1.681321
      13A     -1.652800    14A     -1.651228    15A     -1.601548
      16A     -1.144263    17A     -0.994647    18A     -0.940286
      19A     -0.857984    20A     -0.851987    21A     -0.848203
      22A     -0.839000    23A     -0.816112    24A     -0.778273
      25A     -0.748359    26A     -0.726904    27A     -0.721010
      28A     -0.702218    29A     -0.699985    30A     -0.682080
      31A     -0.681229    32A     -0.668073    33A     -0.652439
      34A     -0.648560    35A     -0.623683    36A     -0.613704
      37A     -0.575641

  @DF-RHF Final Energy:  -711.70268677495085

   => Energetics <=

    Nuclear Repulsion Energy =            544.1398874775591139
    One-Electron Energy =               -2072.8449971332720452
    Two-Electron Energy =                 817.0024228807620830
    Total Energy =                       -711.7026867749508483
  Basis Set: (AUG-CC-PVTZ AUX)
    Blend: AUG-CC-PVTZ-RI
    Molecular point group: c1

    Geometry (in Angstrom), charge = 0, multiplicity = 1:

       Center              X                  Y                   Z               Mass
    ------------   -----------------  -----------------  -----------------  -----------------
         F            2.343294515763     0.000005499141     0.937864262759    18.998403162730
         F            1.364165515763     1.089345499141    -0.678087737241    18.998403162730
         F            1.364181515763    -1.089346500859    -0.678086737241    18.998403162730
         F           -1.354693484237     1.089361499141    -0.678061737241    18.998403162730
         F           -1.354676484237    -1.089329500859    -0.678111737241    18.998403162730
         F           -2.333805484237    -0.000029500859     0.937864262759    18.998403162730
         C            0.004744515763    -0.000010500859     0.927657262759    12.000000000000
         C            1.213204415763     0.000001699141     0.023915862759    12.000000000000
         C           -1.263813484237     0.000000499141     0.110415262759    12.000000000000
         H            0.004744515763     0.887649499141     1.563064262759     1.007825032230
         H            0.004745515763    -0.887682500859     1.563046262759     1.007825032230

  Basis Set: AUG-CC-PVTZ
    Blend: AUG-CC-PVTZ
  Basis Set: (AUG-CC-PVTZ AUX)
    Blend: AUG-CC-PVTZ-JKFIT
	 Reference Energy          =    -711.7026867749508483 [Eh]
	 Singles Energy            =      -0.0000000000000000 [Eh]
	 Same-Spin Energy          =      -0.5608622542798347 [Eh]
	 Opposite-Spin Energy      =      -1.6118551002383521 [Eh]
	 Correlation Energy        =      -2.1727173545181868 [Eh]
	 Total Energy              =    -713.8754041294690751 [Eh]

	 ================> DF-SCS-MP2 Energies <==================
	-----------------------------------------------------------
	 SCS Same-Spin Scale       =       0.3333333333333333 [-]
	 SCS Opposite-Spin Scale   =       1.2000000000000000 [-]
	 SCS Same-Spin Energy      =      -0.1869540847599449 [Eh]
	 SCS Opposite-Spin Energy  =      -1.9342261202860225 [Eh]
	 SCS Correlation Energy    =      -2.1211802050459676 [Eh]
	 SCS Total Energy          =    -713.8238669799968648 [Eh]
	-----------------------------------------------------------

  Dipole Moment: [D]
     X:    -0.4820      Y:     0.0000      Z:     1.4045     Total:     1.4850

*** Psi4 exiting successfully. Buy a developer a beer!
