                               Psi4 1.3.2 release

  ==> Input File <==

--------------------------------------------------------------------------
#psi4
#
memory 32 gb

molecule  {
0 1
  F        2.3385500     0.0000060     0.9042500
  F        1.3594210     1.0893460    -0.7117020
  F        1.3594370    -1.0893460    -0.7117010
  F       -1.3594380     1.0893620    -0.7116760
  F       -1.3594210    -1.0893290    -0.7117260
  F       -2.3385500    -0.0000290     0.9042500
  C        0.0000000    -0.0000100     0.8940430
  C        1.2360750    -0.0901918     0.0331657
  C       -1.2685580     0.0000010     0.0768010
  H        0.0000000     0.8876500     1.5294500
  H        0.0000010    -0.8876820     1.5294320
units angstrom
no_reorient  #important for SAPT in psi4, default
symmetry c1  #important for SAPT in psi4, default
}

set PROPERTIES_ORIGIN ["COM"]
properties('MP2/aug-cc-pvtz', properties = ['dipole'])
--------------------------------------------------------------------------

    Molecular point group: c1
  Charge       = 0
  Multiplicity = 1
  Basis Set: AUG-CC-PVTZ
    Blend: AUG-CC-PVTZ
  Basis Set: (AUG-CC-PVTZ AUX)
    Blend: AUG-CC-PVTZ-JKFIT

    Orbital Energies [Eh]
    ---------------------

    Doubly Occupied:

       1A    -26.394141     2A    -26.358783     3A    -26.357211
       4A    -26.354766     5A    -26.335153     6A    -26.333729
       7A    -11.536319     8A    -11.534814     9A    -11.308162
      10A     -1.773967    11A     -1.742930    12A     -1.654986
      13A     -1.651482    14A     -1.648877    15A     -1.613795
      16A     -1.143148    17A     -0.996733    18A     -0.942485
      19A     -0.855871    20A     -0.852998    21A     -0.849542
      22A     -0.836067    23A     -0.822825    24A     -0.777397
      25A     -0.738951    26A     -0.725864    27A     -0.716476
      28A     -0.708501    29A     -0.690173    30A     -0.680981
      31A     -0.677166    32A     -0.666929    33A     -0.666054
      34A     -0.644682    35A     -0.627011    36A     -0.604575
      37A     -0.579236

  @DF-RHF Final Energy:  -711.70050980846918

   => Energetics <=

    Nuclear Repulsion Energy =            543.8417354968704558
    One-Electron Energy =               -2072.2789325380331320
    Two-Electron Energy =                 816.7366872326933844
    Total Energy =                       -711.7005098084691781
  Basis Set: (AUG-CC-PVTZ AUX)
    Blend: AUG-CC-PVTZ-RI
    Molecular point group: c1

    Geometry (in Angstrom), charge = 0, multiplicity = 1:

       Center              X                  Y                   Z               Mass
    ------------   -----------------  -----------------  -----------------  -----------------
         F            2.341114463334     0.007125793790     0.934480389975    18.998403162730
         F            1.361985463334     1.096465793790    -0.681471610025    18.998403162730
         F            1.362001463334    -1.082226206210    -0.681470610025    18.998403162730
         F           -1.356873536666     1.096481793790    -0.681445610025    18.998403162730
         F           -1.356856536666    -1.082209206210    -0.681495610025    18.998403162730
         F           -2.335985536666     0.007090793790     0.934480389975    18.998403162730
         C            0.002564463334     0.007109793790     0.924273389975    12.000000000000
         C            1.238639463334    -0.083072006210     0.063396089975    12.000000000000
         C           -1.265993536666     0.007120793790     0.107031389975    12.000000000000
         H            0.002564463334     0.894769793790     1.559680389975     1.007825032230
         H            0.002565463334    -0.880562206210     1.559662389975     1.007825032230

  Basis Set: AUG-CC-PVTZ
    Blend: AUG-CC-PVTZ
  Basis Set: (AUG-CC-PVTZ AUX)
    Blend: AUG-CC-PVTZ-JKFIT
	 Reference Energy          =    -711.7005098084691781 [Eh]
	 Singles Energy            =      -0.0000000000000000 [Eh]
	 Same-Spin Energy          =      -0.5608338295855239 [Eh]
	 Opposite-Spin Energy      =      -1.6118998113701890 [Eh]
	 Correlation Energy        =      -2.1727336409557130 [Eh]
	 Total Energy              =    -713.8732434494248764 [Eh]

	 ================> DF-SCS-MP2 Energies <==================
	-----------------------------------------------------------
	 SCS Same-Spin Scale       =       0.3333333333333333 [-]
	 SCS Opposite-Spin Scale   =       1.2000000000000000 [-]
	 SCS Same-Spin Energy      =      -0.1869446098618413 [Eh]
	 SCS Opposite-Spin Energy  =      -1.9342797736442268 [Eh]
	 SCS Correlation Energy    =      -2.1212243835060680 [Eh]
	 SCS Total Energy          =    -713.8217341919752243 [Eh]
	-----------------------------------------------------------

  Dipole Moment: [D]
     X:    -0.2635      Y:    -0.6977      Z:     1.7176     Total:     1.8726

*** Psi4 exiting successfully. Buy a developer a beer!
