                               Psi4 1.3.2 release

  ==> Input File <==

--------------------------------------------------------------------------
#psi4
#
memory 32 gb

molecule  {
0 1
  F        2.3385500     0.0000060     0.9042500
  F        1.3594210     1.0893460    -0.7117020
  F        1.3594370    -1.0893460    -0.7117010
  F       -1.3594380     1.0893620    -0.7116760
  F       -1.3594210    -1.0893290    -0.7117260
  F       -2.3385500    -0.0000290     0.9042500
  C        0.0000000    -0.0000100     0.8940430
  C        1.2530798    -0.0451229     0.0544719
  C       -1.2685580     0.0000010     0.0768010
  H        0.0000000     0.8876500     1.5294500
  H        0.0000010    -0.8876820     1.5294320
units angstrom
no_reorient  #important for SAPT in psi4, default
symmetry c1  #important for SAPT in psi4, default
}

set PROPERTIES_ORIGIN ["COM"]
properties('MP2/aug-cc-pvtz', properties = ['dipole'])
--------------------------------------------------------------------------

    Molecular point group: c1
  Charge       = 0
  Multiplicity = 1
  Basis Set: AUG-CC-PVTZ
    Blend: AUG-CC-PVTZ
  Basis Set: (AUG-CC-PVTZ AUX)
    Blend: AUG-CC-PVTZ-JKFIT

    Orbital Energies [Eh]
    ---------------------

    Doubly Occupied:

       1A    -26.374197     2A    -26.356938     3A    -26.356502
       4A    -26.354547     5A    -26.346255     6A    -26.344368
       7A    -11.534828     8A    -11.534470     9A    -11.307232
      10A     -1.750433    11A     -1.741106    12A     -1.658971
      13A     -1.650019    14A     -1.648907    15A     -1.631330
      16A     -1.141793    17A     -0.994259    18A     -0.936724
      19A     -0.851186    20A     -0.849273    21A     -0.846032
      22A     -0.833223    23A     -0.818806    24A     -0.772978
      25A     -0.740564    26A     -0.724364    27A     -0.719808
      28A     -0.713964    29A     -0.690052    30A     -0.682593
      31A     -0.675657    32A     -0.670235    33A     -0.666108
      34A     -0.656296    35A     -0.624106    36A     -0.604466
      37A     -0.582886

  @DF-RHF Final Energy:  -711.70979385111093

   => Energetics <=

    Nuclear Repulsion Energy =            543.6471494015387407
    One-Electron Energy =               -2071.9429359517189368
    Two-Electron Energy =                 816.5859926990693793
    Total Energy =                       -711.7097938511109305
  Basis Set: (AUG-CC-PVTZ AUX)
    Blend: AUG-CC-PVTZ-RI
    Molecular point group: c1

    Geometry (in Angstrom), charge = 0, multiplicity = 1:

       Center              X                  Y                   Z               Mass
    ------------   -----------------  -----------------  -----------------  -----------------
         F            2.339772032724     0.003567864798     0.932798388713    18.998403162730
         F            1.360643032724     1.092907864798    -0.683153611287    18.998403162730
         F            1.360659032724    -1.085784135202    -0.683152611287    18.998403162730
         F           -1.358215967276     1.092923864798    -0.683127611287    18.998403162730
         F           -1.358198967276    -1.085767135202    -0.683177611287    18.998403162730
         F           -2.337327967276     0.003532864798     0.932798388713    18.998403162730
         C            0.001222032724     0.003551864798     0.922591388713    12.000000000000
         C            1.254301832724    -0.041561035202     0.083020288713    12.000000000000
         C           -1.267335967276     0.003562864798     0.105349388713    12.000000000000
         H            0.001222032724     0.891211864798     1.557998388713     1.007825032230
         H            0.001223032724    -0.884120135202     1.557980388713     1.007825032230

  Basis Set: AUG-CC-PVTZ
    Blend: AUG-CC-PVTZ
  Basis Set: (AUG-CC-PVTZ AUX)
    Blend: AUG-CC-PVTZ-JKFIT
	 Reference Energy          =    -711.7097938511109305 [Eh]
	 Singles Energy            =      -0.0000000000000000 [Eh]
	 Same-Spin Energy          =      -0.5604985183240447 [Eh]
	 Opposite-Spin Energy      =      -1.6112417203212175 [Eh]
	 Correlation Energy        =      -2.1717402386452624 [Eh]
	 Total Energy              =    -713.8815340897562010 [Eh]

	 ================> DF-SCS-MP2 Energies <==================
	-----------------------------------------------------------
	 SCS Same-Spin Scale       =       0.3333333333333333 [-]
	 SCS Opposite-Spin Scale   =       1.2000000000000000 [-]
	 SCS Same-Spin Energy      =      -0.1868328394413482 [Eh]
	 SCS Opposite-Spin Energy  =      -1.9334900643854609 [Eh]
	 SCS Correlation Energy    =      -2.1203229038268092 [Eh]
	 SCS Total Energy          =    -713.8301167549377624 [Eh]
	-----------------------------------------------------------

  Dipole Moment: [D]
     X:    -0.1253      Y:    -0.3455      Z:     1.8867     Total:     1.9222

*** Psi4 exiting successfully. Buy a developer a beer!
