                               Psi4 1.3.2 release

  ==> Input File <==

--------------------------------------------------------------------------
#psi4
#
memory 32 gb

molecule  {
0 1
  F        2.3667757     0.0000063     0.8664038
  F        1.3594210     1.0893460    -0.7117020
  F        1.3594370    -1.0893460    -0.7117010
  F       -1.3594380     1.0893620    -0.7116760
  F       -1.3594210    -1.0893290    -0.7117260
  F       -2.3385500    -0.0000290     0.9042500
  C        0.0000000    -0.0000100     0.8940430
  C        1.2685580     0.0000010     0.0768010
  C       -1.2685580     0.0000010     0.0768010
  H        0.0000000     0.8876500     1.5294500
  H        0.0000010    -0.8876820     1.5294320
units angstrom
no_reorient  #important for SAPT in psi4, default
symmetry c1  #important for SAPT in psi4, default
}

set PROPERTIES_ORIGIN ["COM"]
properties('MP2/aug-cc-pvtz', properties = ['dipole'])
--------------------------------------------------------------------------

    Molecular point group: c1
  Charge       = 0
  Multiplicity = 1
  Basis Set: AUG-CC-PVTZ
    Blend: AUG-CC-PVTZ
  Basis Set: (AUG-CC-PVTZ AUX)
    Blend: AUG-CC-PVTZ-JKFIT

    Orbital Energies [Eh]
    ---------------------

    Doubly Occupied:

       1A    -26.357712     2A    -26.355472     3A    -26.355030
       4A    -26.355008     5A    -26.352828     6A    -26.352807
       7A    -11.535586     8A    -11.533954     9A    -11.308583
      10A     -1.744570    11A     -1.738877    12A     -1.650878
      13A     -1.650283    14A     -1.646098    15A     -1.645635
      16A     -1.141948    17A     -0.994032    18A     -0.934917
      19A     -0.849509    20A     -0.845893    21A     -0.845557
      22A     -0.831482    23A     -0.819229    24A     -0.770174
      25A     -0.740464    26A     -0.725220    27A     -0.720563
      28A     -0.715376    29A     -0.686846    30A     -0.684556
      31A     -0.671824    32A     -0.669437    33A     -0.667151
      34A     -0.659999    35A     -0.623584    36A     -0.603267
      37A     -0.588060

  @DF-RHF Final Energy:  -711.71260763723888

   => Energetics <=

    Nuclear Repulsion Energy =            543.3999445162040729
    One-Electron Energy =               -2071.4802853200403661
    Two-Electron Energy =                 816.3677331665975316
    Total Energy =                       -711.7126076372388752
  Basis Set: (AUG-CC-PVTZ AUX)
    Blend: AUG-CC-PVTZ-RI
    Molecular point group: c1

    Geometry (in Angstrom), charge = 0, multiplicity = 1:

       Center              X                  Y                   Z               Mass
    ------------   -----------------  -----------------  -----------------  -----------------
         F            2.363248043236     0.000005856379     0.897919623951    18.998403162730
         F            1.355893343236     1.089345556379    -0.680186176049    18.998403162730
         F            1.355909343236    -1.089346443621    -0.680185176049    18.998403162730
         F           -1.362965656764     1.089361556379    -0.680160176049    18.998403162730
         F           -1.362948656764    -1.089329443621    -0.680210176049    18.998403162730
         F           -2.342077656764    -0.000029443621     0.935765823951    18.998403162730
         C           -0.003527656764    -0.000010443621     0.925558823951    12.000000000000
         C            1.265030343236     0.000000556379     0.108316823951    12.000000000000
         C           -1.272085656764     0.000000556379     0.108316823951    12.000000000000
         H           -0.003527656764     0.887649556379     1.560965823951     1.007825032230
         H           -0.003526656764    -0.887682443621     1.560947823951     1.007825032230

  Basis Set: AUG-CC-PVTZ
    Blend: AUG-CC-PVTZ
  Basis Set: (AUG-CC-PVTZ AUX)
    Blend: AUG-CC-PVTZ-JKFIT
	 Reference Energy          =    -711.7126076372388752 [Eh]
	 Singles Energy            =      -0.0000000000000000 [Eh]
	 Same-Spin Energy          =      -0.5603397109113445 [Eh]
	 Opposite-Spin Energy      =      -1.6109046362166073 [Eh]
	 Correlation Energy        =      -2.1712443471279519 [Eh]
	 Total Energy              =    -713.8838519843668564 [Eh]

	 ================> DF-SCS-MP2 Energies <==================
	-----------------------------------------------------------
	 SCS Same-Spin Scale       =       0.3333333333333333 [-]
	 SCS Opposite-Spin Scale   =       1.2000000000000000 [-]
	 SCS Same-Spin Energy      =      -0.1867799036371148 [Eh]
	 SCS Opposite-Spin Energy  =      -1.9330855634599287 [Eh]
	 SCS Correlation Energy    =      -2.1198654670970436 [Eh]
	 SCS Total Energy          =    -713.8324731043359179 [Eh]
	-----------------------------------------------------------

  Dipole Moment: [D]
     X:    -0.0692      Y:     0.0000      Z:     2.1052     Total:     2.1064

*** Psi4 exiting successfully. Buy a developer a beer!
