                               Psi4 1.4a2.dev612

  ==> Input File <==

--------------------------------------------------------------------------
#psi4
#
memory 32 gb

molecule  {
0 1
  O       -2.8756320     0.4615000    -0.3051040
  O       -0.5220660     1.5374290     0.0548780
  N        0.6562510    -0.3746370    -0.3360270
  C        1.9647450     0.2268840    -0.0956960
  C       -1.8008595    -0.4402454    -0.4188137
  C        3.0067800    -0.5070980    -0.9241520
  C        2.2930000     0.2310680     1.3932270
  C       -0.4931590     0.3235730    -0.1949090
  C       -1.9724170    -1.5121580     0.7102480
  H        1.8788190     1.2611790    -0.4401960
  H        0.6035260    -1.3822150    -0.4365740
  H       -1.7868920    -0.9288770    -1.3618540
  H        3.9904500    -0.0508330    -0.7882090
  H        3.0812650    -1.5550640    -0.6116920
  H        2.7529100    -0.4768670    -1.9861430
  H        1.5225120     0.7762450     1.9430400
  H        3.2574000     0.7146530     1.5762130
  H        2.3438960    -0.7932520     1.7757830
  H       -2.9590570    -1.9673470     0.6070900
  H       -1.9090200    -1.0432980     1.6949070
  H       -1.2193110    -2.3035120     0.6420620
  H       -2.4442120     1.3312090    -0.1521090
units angstrom
no_reorient  #important for SAPT in psi4, default
symmetry c1  #important for SAPT in psi4, default
}

set PROPERTIES_ORIGIN ["COM"]
properties('MP2/aug-cc-pvtz', properties = ['dipole'])
--------------------------------------------------------------------------

    Molecular point group: c1
  Charge       = 0
  Multiplicity = 1
  Basis Set: AUG-CC-PVTZ
    Blend: AUG-CC-PVTZ
  Basis Set: (AUG-CC-PVTZ AUX)
    Blend: AUG-CC-PVTZ-JKFIT

    Orbital Energies [Eh]
    ---------------------

    Doubly Occupied:

       1A    -20.548157     2A    -20.532328     3A    -15.595611
       4A    -11.358312     5A    -11.296159     6A    -11.277127
       7A    -11.232327     8A    -11.231539     9A    -11.222073
      10A     -1.397356    11A     -1.346726    12A     -1.247854
      13A     -1.071074    14A     -1.017264    15A     -0.949757
      16A     -0.895380    17A     -0.824300    18A     -0.796060
      19A     -0.737544    20A     -0.680470    21A     -0.651649
      22A     -0.630696    23A     -0.628588    24A     -0.596904
      25A     -0.578614    26A     -0.564913    27A     -0.555089
      28A     -0.547009    29A     -0.541034    30A     -0.532372
      31A     -0.512482    32A     -0.502622    33A     -0.491013
      34A     -0.443422    35A     -0.433966    36A     -0.401522

  @DF-RHF Final Energy:  -439.13587696390869

   => Energetics <=

    Nuclear Repulsion Energy =            485.0409150543097212
    One-Electron Energy =               -1560.6149608222071947
    Two-Electron Energy =                 636.4381688039889013
    Total Energy =                       -439.1358769639086859
  Basis Set: (AUG-CC-PVTZ AUX)
    Blend: AUG-CC-PVTZ-RI
    Molecular point group: c1

    Geometry (in Angstrom), charge = 0, multiplicity = 1:

       Center              X                  Y                   Z               Mass
    ------------   -----------------  -----------------  -----------------  -----------------
         O           -2.875664845259     0.460563940617    -0.300623899310    15.994914619570
         O           -0.522098845259     1.536492940617     0.059358100690    15.994914619570
         N            0.656218154741    -0.375573059383    -0.331546899310    14.003074004430
         C            1.964712154741     0.225947940617    -0.091215899310    12.000000000000
         C           -1.800892345259    -0.441181459383    -0.414333599310    12.000000000000
         C            3.006747154741    -0.508034059383    -0.919671899310    12.000000000000
         C            2.292967154741     0.230131940617     1.397707100690    12.000000000000
         C           -0.493191845259     0.322636940617    -0.190428899310    12.000000000000
         C           -1.972449845259    -1.513094059383     0.714728100690    12.000000000000
         H            1.878786154741     1.260242940617    -0.435715899310     1.007825032230
         H            0.603493154741    -1.383151059383    -0.432093899310     1.007825032230
         H           -1.786924845259    -0.929813059383    -1.357373899310     1.007825032230
         H            3.990417154741    -0.051769059383    -0.783728899310     1.007825032230
         H            3.081232154741    -1.556000059383    -0.607211899310     1.007825032230
         H            2.752877154741    -0.477803059383    -1.981662899310     1.007825032230
         H            1.522479154741     0.775308940617     1.947520100690     1.007825032230
         H            3.257367154741     0.713716940617     1.580693100690     1.007825032230
         H            2.343863154741    -0.794188059383     1.780263100690     1.007825032230
         H           -2.959089845259    -1.968283059383     0.611570100690     1.007825032230
         H           -1.909052845259    -1.044234059383     1.699387100690     1.007825032230
         H           -1.219343845259    -2.304448059383     0.646542100690     1.007825032230
         H           -2.444244845259     1.330272940617    -0.147628899310     1.007825032230

  Basis Set: AUG-CC-PVTZ
    Blend: AUG-CC-PVTZ
  Basis Set: (AUG-CC-PVTZ AUX)
    Blend: AUG-CC-PVTZ-JKFIT
	 Reference Energy          =    -439.1358769639086859 [Eh]
	 Singles Energy            =      -0.0000000000000000 [Eh]
	 Same-Spin Energy          =      -0.4458522282493218 [Eh]
	 Opposite-Spin Energy      =      -1.4635056746374651 [Eh]
	 Correlation Energy        =      -1.9093579028867869 [Eh]
	 Total Energy              =    -441.0452348667954539 [Eh]

	 ================> DF-SCS-MP2 Energies <==================
	-----------------------------------------------------------
	 SCS Same-Spin Scale       =       0.3333333333333333 [-]
	 SCS Opposite-Spin Scale   =       1.2000000000000000 [-]
	 SCS Same-Spin Energy      =      -0.1486174094164406 [Eh]
	 SCS Opposite-Spin Energy  =      -1.7562068095649581 [Eh]
	 SCS Correlation Energy    =      -1.9048242189813986 [Eh]
	 SCS Total Energy          =    -441.0407011828900750 [Eh]
	-----------------------------------------------------------

  Dipole Moment: [D]
     X:     3.4464      Y:    -3.0303      Z:    -0.2240     Total:     4.5946

*** Psi4 exiting successfully. Buy a developer a beer!
