                               Psi4 1.4a2.dev612

  ==> Input File <==

--------------------------------------------------------------------------
#psi4
#
memory 32 gb

molecule  {
0 1
  O       -2.8756320     0.4615000    -0.3051040
  O       -0.5220660     1.5374290     0.0548780
  N        0.6562510    -0.3746370    -0.3360270
  C        1.9647450     0.2268840    -0.0956960
  C       -1.8012180    -0.4504720    -0.3698720
  C        3.0067800    -0.5070980    -0.9241520
  C        2.2930000     0.2310680     1.3932270
  C       -0.4931590     0.3235730    -0.1949090
  C       -1.9724170    -1.5121580     0.7102480
  H        1.8788190     1.2611790    -0.4401960
  H        0.5988862    -1.3991454    -0.3381269
  H       -1.7868920    -0.9288770    -1.3618540
  H        3.9904500    -0.0508330    -0.7882090
  H        3.0812650    -1.5550640    -0.6116920
  H        2.7529100    -0.4768670    -1.9861430
  H        1.5225120     0.7762450     1.9430400
  H        3.2574000     0.7146530     1.5762130
  H        2.3438960    -0.7932520     1.7757830
  H       -2.9590570    -1.9673470     0.6070900
  H       -1.9090200    -1.0432980     1.6949070
  H       -1.2193110    -2.3035120     0.6420620
  H       -2.4442120     1.3312090    -0.1521090
units angstrom
no_reorient  #important for SAPT in psi4, default
symmetry c1  #important for SAPT in psi4, default
}

set PROPERTIES_ORIGIN ["COM"]
properties('MP2/aug-cc-pvtz', properties = ['dipole'])
--------------------------------------------------------------------------

    Molecular point group: c1
  Charge       = 0
  Multiplicity = 1
  Basis Set: AUG-CC-PVTZ
    Blend: AUG-CC-PVTZ
  Basis Set: (AUG-CC-PVTZ AUX)
    Blend: AUG-CC-PVTZ-JKFIT

    Orbital Energies [Eh]
    ---------------------

    Doubly Occupied:

       1A    -20.547935     2A    -20.533061     3A    -15.596486
       4A    -11.358412     5A    -11.297419     6A    -11.276998
       7A    -11.231592     8A    -11.231534     9A    -11.222725
      10A     -1.397590    11A     -1.346117    12A     -1.247093
      13A     -1.072154    14A     -1.024016    15A     -0.949574
      16A     -0.895262    17A     -0.822317    18A     -0.792084
      19A     -0.736699    20A     -0.678528    21A     -0.650226
      22A     -0.630123    23A     -0.628034    24A     -0.599226
      25A     -0.581854    26A     -0.567835    27A     -0.554699
      28A     -0.548254    29A     -0.539411    30A     -0.530244
      31A     -0.512437    32A     -0.502846    33A     -0.491592
      34A     -0.445152    35A     -0.434799    36A     -0.401901

  @DF-RHF Final Energy:  -439.13699873016463

   => Energetics <=

    Nuclear Repulsion Energy =            485.3148727264869535
    One-Electron Energy =               -1561.1512897584323127
    Two-Electron Energy =                 636.6994183017807245
    Total Energy =                       -439.1369987301645779
  Basis Set: (AUG-CC-PVTZ AUX)
    Blend: AUG-CC-PVTZ-RI
    Molecular point group: c1

    Geometry (in Angstrom), charge = 0, multiplicity = 1:

       Center              X                  Y                   Z               Mass
    ------------   -----------------  -----------------  -----------------  -----------------
         O           -2.875596359565     0.461630209177    -0.305860710754    15.994914619570
         O           -0.522030359565     1.537559209177     0.054121289246    15.994914619570
         N            0.656286640435    -0.374506790823    -0.336783710754    14.003074004430
         C            1.964780640435     0.227014209177    -0.096452710754    12.000000000000
         C           -1.801182359565    -0.450341790823    -0.370628710754    12.000000000000
         C            3.006815640435    -0.506967790823    -0.924908710754    12.000000000000
         C            2.293035640435     0.231198209177     1.392470289246    12.000000000000
         C           -0.493123359565     0.323703209177    -0.195665710754    12.000000000000
         C           -1.972381359565    -1.512027790823     0.709491289246    12.000000000000
         H            1.878854640435     1.261309209177    -0.440952710754     1.007825032230
         H            0.598921840435    -1.399015190823    -0.338883610754     1.007825032230
         H           -1.786856359565    -0.928746790823    -1.362610710754     1.007825032230
         H            3.990485640435    -0.050702790823    -0.788965710754     1.007825032230
         H            3.081300640435    -1.554933790823    -0.612448710754     1.007825032230
         H            2.752945640435    -0.476736790823    -1.986899710754     1.007825032230
         H            1.522547640435     0.776375209177     1.942283289246     1.007825032230
         H            3.257435640435     0.714783209177     1.575456289246     1.007825032230
         H            2.343931640435    -0.793121790823     1.775026289246     1.007825032230
         H           -2.959021359565    -1.967216790823     0.606333289246     1.007825032230
         H           -1.908984359565    -1.043167790823     1.694150289246     1.007825032230
         H           -1.219275359565    -2.303381790823     0.641305289246     1.007825032230
         H           -2.444176359565     1.331339209177    -0.152865710754     1.007825032230

  Basis Set: AUG-CC-PVTZ
    Blend: AUG-CC-PVTZ
  Basis Set: (AUG-CC-PVTZ AUX)
    Blend: AUG-CC-PVTZ-JKFIT
	 Reference Energy          =    -439.1369987301646347 [Eh]
	 Singles Energy            =      -0.0000000000000000 [Eh]
	 Same-Spin Energy          =      -0.4461285816208362 [Eh]
	 Opposite-Spin Energy      =      -1.4638797522667590 [Eh]
	 Correlation Energy        =      -1.9100083338875953 [Eh]
	 Total Energy              =    -441.0470070640522522 [Eh]

	 ================> DF-SCS-MP2 Energies <==================
	-----------------------------------------------------------
	 SCS Same-Spin Scale       =       0.3333333333333333 [-]
	 SCS Opposite-Spin Scale   =       1.2000000000000000 [-]
	 SCS Same-Spin Energy      =      -0.1487095272069454 [Eh]
	 SCS Opposite-Spin Energy  =      -1.7566557027201108 [Eh]
	 SCS Correlation Energy    =      -1.9053652299270563 [Eh]
	 SCS Total Energy          =    -441.0423639600916772 [Eh]
	-----------------------------------------------------------

  Dipole Moment: [D]
     X:     3.4236      Y:    -3.0496      Z:    -0.0184     Total:     4.5849

*** Psi4 exiting successfully. Buy a developer a beer!
