                               Psi4 1.4a2.dev612

  ==> Input File <==

--------------------------------------------------------------------------
#psi4
#
memory 32 gb

molecule  {
0 1
  O       -2.8756320     0.4615000    -0.3051040
  O       -0.5220660     1.5374290     0.0548780
  N        0.6562510    -0.3746370    -0.3360270
  C        1.9647450     0.2268840    -0.0956960
  C       -1.8012180    -0.4504720    -0.3698720
  C        3.0067800    -0.5070980    -0.9241520
  C        2.2930000     0.2310680     1.3932270
  C       -0.4931590     0.3235730    -0.1949090
  C       -1.9724170    -1.5121580     0.7102480
  H        1.8788190     1.2611790    -0.4401960
  H        0.5965663    -1.4076106    -0.2889033
  H       -1.7868920    -0.9288770    -1.3618540
  H        3.9904500    -0.0508330    -0.7882090
  H        3.0812650    -1.5550640    -0.6116920
  H        2.7529100    -0.4768670    -1.9861430
  H        1.5225120     0.7762450     1.9430400
  H        3.2574000     0.7146530     1.5762130
  H        2.3438960    -0.7932520     1.7757830
  H       -2.9590570    -1.9673470     0.6070900
  H       -1.9090200    -1.0432980     1.6949070
  H       -1.2193110    -2.3035120     0.6420620
  H       -2.4442120     1.3312090    -0.1521090
units angstrom
no_reorient  #important for SAPT in psi4, default
symmetry c1  #important for SAPT in psi4, default
}

set PROPERTIES_ORIGIN ["COM"]
properties('MP2/aug-cc-pvtz', properties = ['dipole'])
--------------------------------------------------------------------------

    Molecular point group: c1
  Charge       = 0
  Multiplicity = 1
  Basis Set: AUG-CC-PVTZ
    Blend: AUG-CC-PVTZ
  Basis Set: (AUG-CC-PVTZ AUX)
    Blend: AUG-CC-PVTZ-JKFIT

    Orbital Energies [Eh]
    ---------------------

    Doubly Occupied:

       1A    -20.548025     2A    -20.533474     3A    -15.597116
       4A    -11.358500     5A    -11.297470     6A    -11.276843
       7A    -11.231977     8A    -11.231122     9A    -11.222953
      10A     -1.397789    11A     -1.346239    12A     -1.246337
      13A     -1.072057    14A     -1.024050    15A     -0.949427
      16A     -0.895359    17A     -0.822155    18A     -0.789880
      19A     -0.736806    20A     -0.678336    21A     -0.650335
      22A     -0.629881    23A     -0.626631    24A     -0.600143
      25A     -0.581967    26A     -0.568105    27A     -0.554492
      28A     -0.548288    29A     -0.539396    30A     -0.530244
      31A     -0.512325    32A     -0.502861    33A     -0.491595
      34A     -0.445262    35A     -0.435057    36A     -0.402194

  @DF-RHF Final Energy:  -439.13613355082055

   => Energetics <=

    Nuclear Repulsion Energy =            485.2884100446505613
    One-Electron Energy =               -1561.0997024110340590
    Two-Electron Energy =                 636.6751588155628951
    Total Energy =                       -439.1361335508205457
  Basis Set: (AUG-CC-PVTZ AUX)
    Blend: AUG-CC-PVTZ-RI
    Molecular point group: c1

    Geometry (in Angstrom), charge = 0, multiplicity = 1:

       Center              X                  Y                   Z               Mass
    ------------   -----------------  -----------------  -----------------  -----------------
         O           -2.875578524713     0.461695287667    -0.306239130349    15.994914619570
         O           -0.522012524713     1.537624287667     0.053742869651    15.994914619570
         N            0.656304475287    -0.374441712333    -0.337162130349    14.003074004430
         C            1.964798475287     0.227079287667    -0.096831130349    12.000000000000
         C           -1.801164524713    -0.450276712333    -0.371007130349    12.000000000000
         C            3.006833475287    -0.506902712333    -0.925287130349    12.000000000000
         C            2.293053475287     0.231263287667     1.392091869651    12.000000000000
         C           -0.493105524713     0.323768287667    -0.196044130349    12.000000000000
         C           -1.972363524713    -1.511962712333     0.709112869651    12.000000000000
         H            1.878872475287     1.261374287667    -0.441331130349     1.007825032230
         H            0.596619775287    -1.407415312333    -0.290038430349     1.007825032230
         H           -1.786838524713    -0.928681712333    -1.362989130349     1.007825032230
         H            3.990503475287    -0.050637712333    -0.789344130349     1.007825032230
         H            3.081318475287    -1.554868712333    -0.612827130349     1.007825032230
         H            2.752963475287    -0.476671712333    -1.987278130349     1.007825032230
         H            1.522565475287     0.776440287667     1.941904869651     1.007825032230
         H            3.257453475287     0.714848287667     1.575077869651     1.007825032230
         H            2.343949475287    -0.793056712333     1.774647869651     1.007825032230
         H           -2.959003524713    -1.967151712333     0.605954869651     1.007825032230
         H           -1.908966524713    -1.043102712333     1.693771869651     1.007825032230
         H           -1.219257524713    -2.303316712333     0.640926869651     1.007825032230
         H           -2.444158524713     1.331404287667    -0.153244130349     1.007825032230

  Basis Set: AUG-CC-PVTZ
    Blend: AUG-CC-PVTZ
  Basis Set: (AUG-CC-PVTZ AUX)
    Blend: AUG-CC-PVTZ-JKFIT
	 Reference Energy          =    -439.1361335508205457 [Eh]
	 Singles Energy            =      -0.0000000000000000 [Eh]
	 Same-Spin Energy          =      -0.4462098608499920 [Eh]
	 Opposite-Spin Energy      =      -1.4640876485046603 [Eh]
	 Correlation Energy        =      -1.9102975093546524 [Eh]
	 Total Energy              =    -441.0464310601752231 [Eh]

	 ================> DF-SCS-MP2 Energies <==================
	-----------------------------------------------------------
	 SCS Same-Spin Scale       =       0.3333333333333333 [-]
	 SCS Opposite-Spin Scale   =       1.2000000000000000 [-]
	 SCS Same-Spin Energy      =      -0.1487366202833307 [Eh]
	 SCS Opposite-Spin Energy  =      -1.7569051782055924 [Eh]
	 SCS Correlation Energy    =      -1.9056417984889231 [Eh]
	 SCS Total Energy          =    -441.0417753493094892 [Eh]
	-----------------------------------------------------------

  Dipole Moment: [D]
     X:     3.4037      Y:    -3.0397      Z:     0.0435     Total:     4.5636

*** Psi4 exiting successfully. Buy a developer a beer!
