                               Psi4 1.4a2.dev612

  ==> Input File <==

--------------------------------------------------------------------------
#psi4
#
memory 32 gb

molecule  {
0 1
  O       -2.8756320     0.4615000    -0.3051040
  O       -0.5220660     1.5374290     0.0548780
  N        0.6562510    -0.3746370    -0.3360270
  C        1.9647450     0.2268840    -0.0956960
  C       -1.8012180    -0.4504720    -0.3698720
  C        3.0067800    -0.5070980    -0.9241520
  C        2.2930000     0.2310680     1.3932270
  C       -0.4931590     0.3235730    -0.1949090
  C       -1.9724170    -1.5121580     0.7102480
  H        1.8788190     1.2611790    -0.4401960
  H        0.6012061    -1.3906802    -0.3873504
  H       -1.7868920    -0.9288770    -1.3618540
  H        3.9904500    -0.0508330    -0.7882090
  H        3.0812650    -1.5550640    -0.6116920
  H        2.7529100    -0.4768670    -1.9861430
  H        1.5225120     0.7762450     1.9430400
  H        3.2574000     0.7146530     1.5762130
  H        2.3438960    -0.7932520     1.7757830
  H       -2.9590570    -1.9673470     0.6070900
  H       -1.9090200    -1.0432980     1.6949070
  H       -1.2193110    -2.3035120     0.6420620
  H       -2.4442120     1.3312090    -0.1521090
units angstrom
no_reorient  #important for SAPT in psi4, default
symmetry c1  #important for SAPT in psi4, default
}

set PROPERTIES_ORIGIN ["COM"]
properties('MP2/aug-cc-pvtz', properties = ['dipole'])
--------------------------------------------------------------------------

    Molecular point group: c1
  Charge       = 0
  Multiplicity = 1
  Basis Set: AUG-CC-PVTZ
    Blend: AUG-CC-PVTZ
  Basis Set: (AUG-CC-PVTZ AUX)
    Blend: AUG-CC-PVTZ-JKFIT

    Orbital Energies [Eh]
    ---------------------

    Doubly Occupied:

       1A    -20.547851     2A    -20.532723     3A    -15.596015
       4A    -11.358340     5A    -11.297370     6A    -11.277130
       7A    -11.231930     8A    -11.231191     9A    -11.222504
      10A     -1.397420    11A     -1.346007    12A     -1.247650
      13A     -1.072219    14A     -1.023949    15A     -0.949720
      16A     -0.895147    17A     -0.822410    18A     -0.793789
      19A     -0.736585    20A     -0.678740    21A     -0.650064
      22A     -0.631015    23A     -0.628670    24A     -0.598198
      25A     -0.581736    26A     -0.567557    27A     -0.554906
      28A     -0.548196    29A     -0.539431    30A     -0.530242
      31A     -0.512478    32A     -0.502828    33A     -0.491567
      34A     -0.445043    35A     -0.434572    36A     -0.401641

  @DF-RHF Final Energy:  -439.13755219152029

   => Energetics <=

    Nuclear Repulsion Energy =            485.3300190007145147
    One-Electron Energy =               -1561.1814738248533558
    Two-Electron Energy =                 636.7139026326184421
    Total Energy =                       -439.1375521915202853
  Basis Set: (AUG-CC-PVTZ AUX)
    Blend: AUG-CC-PVTZ-RI
    Molecular point group: c1

    Geometry (in Angstrom), charge = 0, multiplicity = 1:

       Center              X                  Y                   Z               Mass
    ------------   -----------------  -----------------  -----------------  -----------------
         O           -2.875614194417     0.461565130687    -0.305482291928    15.994914619570
         O           -0.522048194417     1.537494130687     0.054499708072    15.994914619570
         N            0.656268805583    -0.374571869313    -0.336405291928    14.003074004430
         C            1.964762805583     0.226949130687    -0.096074291928    12.000000000000
         C           -1.801200194417    -0.450406869313    -0.370250291928    12.000000000000
         C            3.006797805583    -0.507032869313    -0.924530291928    12.000000000000
         C            2.293017805583     0.231133130687     1.392848708072    12.000000000000
         C           -0.493141194417     0.323638130687    -0.195287291928    12.000000000000
         C           -1.972399194417    -1.512092869313     0.709869708072    12.000000000000
         H            1.878836805583     1.261244130687    -0.440574291928     1.007825032230
         H            0.601223905583    -1.390615069313    -0.387728691928     1.007825032230
         H           -1.786874194417    -0.928811869313    -1.362232291928     1.007825032230
         H            3.990467805583    -0.050767869313    -0.788587291928     1.007825032230
         H            3.081282805583    -1.554998869313    -0.612070291928     1.007825032230
         H            2.752927805583    -0.476801869313    -1.986521291928     1.007825032230
         H            1.522529805583     0.776310130687     1.942661708072     1.007825032230
         H            3.257417805583     0.714718130687     1.575834708072     1.007825032230
         H            2.343913805583    -0.793186869313     1.775404708072     1.007825032230
         H           -2.959039194417    -1.967281869313     0.606711708072     1.007825032230
         H           -1.909002194417    -1.043232869313     1.694528708072     1.007825032230
         H           -1.219293194417    -2.303446869313     0.641683708072     1.007825032230
         H           -2.444194194417     1.331274130687    -0.152487291928     1.007825032230

  Basis Set: AUG-CC-PVTZ
    Blend: AUG-CC-PVTZ
  Basis Set: (AUG-CC-PVTZ AUX)
    Blend: AUG-CC-PVTZ-JKFIT
	 Reference Energy          =    -439.1375521915202853 [Eh]
	 Singles Energy            =      -0.0000000000000000 [Eh]
	 Same-Spin Energy          =      -0.4460684981675482 [Eh]
	 Opposite-Spin Energy      =      -1.4637285133403790 [Eh]
	 Correlation Energy        =      -1.9097970115079272 [Eh]
	 Total Energy              =    -441.0473492030282046 [Eh]

	 ================> DF-SCS-MP2 Energies <==================
	-----------------------------------------------------------
	 SCS Same-Spin Scale       =       0.3333333333333333 [-]
	 SCS Opposite-Spin Scale   =       1.2000000000000000 [-]
	 SCS Same-Spin Energy      =      -0.1486894993891827 [Eh]
	 SCS Opposite-Spin Energy  =      -1.7564742160084548 [Eh]
	 SCS Correlation Energy    =      -1.9051637153976375 [Eh]
	 SCS Total Energy          =    -441.0427159069179197 [Eh]
	-----------------------------------------------------------

  Dipole Moment: [D]
     X:     3.4421      Y:    -3.0564      Z:    -0.0807     Total:     4.6039

*** Psi4 exiting successfully. Buy a developer a beer!
