                               Psi4 1.4a2.dev612

  ==> Input File <==

--------------------------------------------------------------------------
#psi4
#
memory 32 gb

molecule  {
0 1
  O       -2.8756320     0.4615000    -0.3051040
  O       -0.5220660     1.5374290     0.0548780
  N        0.6562510    -0.3746370    -0.3360270
  C        1.9647450     0.2268840    -0.0956960
  C       -1.7994257    -0.3993390    -0.6145804
  C        3.0067800    -0.5070980    -0.9241520
  C        2.2930000     0.2310680     1.3932270
  C       -0.4931590     0.3235730    -0.1949090
  C       -1.9724170    -1.5121580     0.7102480
  H        1.8788190     1.2611790    -0.4401960
  H        0.6035260    -1.3822150    -0.4365740
  H       -1.7868920    -0.9288770    -1.3618540
  H        3.9904500    -0.0508330    -0.7882090
  H        3.0812650    -1.5550640    -0.6116920
  H        2.7529100    -0.4768670    -1.9861430
  H        1.5225120     0.7762450     1.9430400
  H        3.2574000     0.7146530     1.5762130
  H        2.3438960    -0.7932520     1.7757830
  H       -2.9590570    -1.9673470     0.6070900
  H       -1.9090200    -1.0432980     1.6949070
  H       -1.2193110    -2.3035120     0.6420620
  H       -2.4442120     1.3312090    -0.1521090
units angstrom
no_reorient  #important for SAPT in psi4, default
symmetry c1  #important for SAPT in psi4, default
}

set PROPERTIES_ORIGIN ["COM"]
properties('MP2/aug-cc-pvtz', properties = ['dipole'])
--------------------------------------------------------------------------

    Molecular point group: c1
  Charge       = 0
  Multiplicity = 1
  Basis Set: AUG-CC-PVTZ
    Blend: AUG-CC-PVTZ
  Basis Set: (AUG-CC-PVTZ AUX)
    Blend: AUG-CC-PVTZ-JKFIT

    Orbital Energies [Eh]
    ---------------------

    Doubly Occupied:

       1A    -20.551966     2A    -20.532054     3A    -15.594727
       4A    -11.362251     5A    -11.296935     6A    -11.276614
       7A    -11.234563     8A    -11.232255     9A    -11.221142
      10A     -1.396547    11A     -1.346750    12A     -1.247110
      13A     -1.068509    14A     -1.001223    15A     -0.949231
      16A     -0.897534    17A     -0.835272    18A     -0.799990
      19A     -0.741511    20A     -0.689134    21A     -0.658553
      22A     -0.629946    23A     -0.623628    24A     -0.597961
      25A     -0.572516    26A     -0.559160    27A     -0.555177
      28A     -0.549678    29A     -0.544118    30A     -0.532890
      31A     -0.510441    32A     -0.501280    33A     -0.488586
      34A     -0.441341    35A     -0.412387    36A     -0.396885

  @DF-RHF Final Energy:  -439.07627522095947

   => Energetics <=

    Nuclear Repulsion Energy =            483.6024976314932360
    One-Electron Energy =               -1557.6578193710627147
    Two-Electron Energy =                 634.9790465186100619
    Total Energy =                       -439.0762752209594737
  Basis Set: (AUG-CC-PVTZ AUX)
    Blend: AUG-CC-PVTZ-RI
    Molecular point group: c1

    Geometry (in Angstrom), charge = 0, multiplicity = 1:

       Center              X                  Y                   Z               Mass
    ------------   -----------------  -----------------  -----------------  -----------------
         O           -2.875796090911     0.456819494296    -0.282704016367    15.994914619570
         O           -0.522230090911     1.532748494296     0.077277983633    15.994914619570
         N            0.656086909089    -0.379317505704    -0.313627016367    14.003074004430
         C            1.964580909089     0.222203494296    -0.073296016367    12.000000000000
         C           -1.799589790911    -0.404019505704    -0.592180416367    12.000000000000
         C            3.006615909089    -0.511778505704    -0.901752016367    12.000000000000
         C            2.292835909089     0.226387494296     1.415626983633    12.000000000000
         C           -0.493323090911     0.318892494296    -0.172509016367    12.000000000000
         C           -1.972581090911    -1.516838505704     0.732647983633    12.000000000000
         H            1.878654909089     1.256498494296    -0.417796016367     1.007825032230
         H            0.603361909089    -1.386895505704    -0.414174016367     1.007825032230
         H           -1.787056090911    -0.933557505704    -1.339454016367     1.007825032230
         H            3.990285909089    -0.055513505704    -0.765809016367     1.007825032230
         H            3.081100909089    -1.559744505704    -0.589292016367     1.007825032230
         H            2.752745909089    -0.481547505704    -1.963743016367     1.007825032230
         H            1.522347909089     0.771564494296     1.965439983633     1.007825032230
         H            3.257235909089     0.709972494296     1.598612983633     1.007825032230
         H            2.343731909089    -0.797932505704     1.798182983633     1.007825032230
         H           -2.959221090911    -1.972027505704     0.629489983633     1.007825032230
         H           -1.909184090911    -1.047978505704     1.717306983633     1.007825032230
         H           -1.219475090911    -2.308192505704     0.664461983633     1.007825032230
         H           -2.444376090911     1.326528494296    -0.129709016367     1.007825032230

  Basis Set: AUG-CC-PVTZ
    Blend: AUG-CC-PVTZ
  Basis Set: (AUG-CC-PVTZ AUX)
    Blend: AUG-CC-PVTZ-JKFIT
	 Reference Energy          =    -439.0762752209594737 [Eh]
	 Singles Energy            =      -0.0000000000000000 [Eh]
	 Same-Spin Energy          =      -0.4465028939560726 [Eh]
	 Opposite-Spin Energy      =      -1.4665010300686190 [Eh]
	 Correlation Energy        =      -1.9130039240246917 [Eh]
	 Total Energy              =    -440.9892791449841525 [Eh]

	 ================> DF-SCS-MP2 Energies <==================
	-----------------------------------------------------------
	 SCS Same-Spin Scale       =       0.3333333333333333 [-]
	 SCS Opposite-Spin Scale   =       1.2000000000000000 [-]
	 SCS Same-Spin Energy      =      -0.1488342979853575 [Eh]
	 SCS Opposite-Spin Energy  =      -1.7598012360823427 [Eh]
	 SCS Correlation Energy    =      -1.9086355340677001 [Eh]
	 SCS Total Energy          =    -440.9849107550271583 [Eh]
	-----------------------------------------------------------

  Dipole Moment: [D]
     X:     3.3624      Y:    -2.9018      Z:    -0.4873     Total:     4.4681

*** Psi4 exiting successfully. Buy a developer a beer!
