                               Psi4 1.4a2.dev612

  ==> Input File <==

--------------------------------------------------------------------------
#psi4
#
memory 32 gb

molecule  {
0 1
  O       -2.8756320     0.4615000    -0.3051040
  O       -0.5220660     1.5374290     0.0548780
  N        0.6562510    -0.3746370    -0.3360270
  C        1.9647450     0.2268840    -0.0956960
  C       -1.8012180    -0.4504720    -0.3698720
  C        3.0067800    -0.5070980    -0.9241520
  C        2.2930000     0.2310680     1.3932270
  C       -0.4931590     0.3235730    -0.1949090
  C       -1.9724170    -1.5121580     0.7102480
  H        1.8788190     1.2611790    -0.4401960
  H        0.5942464    -1.4160758    -0.2396798
  H       -1.7868920    -0.9288770    -1.3618540
  H        3.9904500    -0.0508330    -0.7882090
  H        3.0812650    -1.5550640    -0.6116920
  H        2.7529100    -0.4768670    -1.9861430
  H        1.5225120     0.7762450     1.9430400
  H        3.2574000     0.7146530     1.5762130
  H        2.3438960    -0.7932520     1.7757830
  H       -2.9590570    -1.9673470     0.6070900
  H       -1.9090200    -1.0432980     1.6949070
  H       -1.2193110    -2.3035120     0.6420620
  H       -2.4442120     1.3312090    -0.1521090
units angstrom
no_reorient  #important for SAPT in psi4, default
symmetry c1  #important for SAPT in psi4, default
}

set PROPERTIES_ORIGIN ["COM"]
properties('MP2/aug-cc-pvtz', properties = ['dipole'])
--------------------------------------------------------------------------

    Molecular point group: c1
  Charge       = 0
  Multiplicity = 1
  Basis Set: AUG-CC-PVTZ
    Blend: AUG-CC-PVTZ
  Basis Set: (AUG-CC-PVTZ AUX)
    Blend: AUG-CC-PVTZ-JKFIT

    Orbital Energies [Eh]
    ---------------------

    Doubly Occupied:

       1A    -20.548119     2A    -20.533956     3A    -15.597896
       4A    -11.358603     5A    -11.297521     6A    -11.276670
       7A    -11.232345     8A    -11.230698     9A    -11.223189
      10A     -1.398014    11A     -1.346371    12A     -1.245405
      13A     -1.071932    14A     -1.024054    15A     -0.949283
      16A     -0.895438    17A     -0.821950    18A     -0.787221
      19A     -0.736904    20A     -0.678169    21A     -0.650391
      22A     -0.629885    23A     -0.624873    24A     -0.600928
      25A     -0.582076    26A     -0.568364    27A     -0.554292
      28A     -0.548298    29A     -0.539384    30A     -0.530247
      31A     -0.512134    32A     -0.502873    33A     -0.491573
      34A     -0.445371    35A     -0.435342    36A     -0.402519

  @DF-RHF Final Energy:  -439.13487791357761

   => Energetics <=

    Nuclear Repulsion Energy =            485.2513069095970195
    One-Electron Energy =               -1561.0277944420549829
    Two-Electron Energy =                 636.6416096188802385
    Total Energy =                       -439.1348779135776113
  Basis Set: (AUG-CC-PVTZ AUX)
    Blend: AUG-CC-PVTZ-RI
    Molecular point group: c1

    Geometry (in Angstrom), charge = 0, multiplicity = 1:

       Center              X                  Y                   Z               Mass
    ------------   -----------------  -----------------  -----------------  -----------------
         O           -2.875560689861     0.461760366156    -0.306617549175    15.994914619570
         O           -0.521994689861     1.537689366156     0.053364450825    15.994914619570
         N            0.656322310139    -0.374376633844    -0.337540549175    14.003074004430
         C            1.964816310139     0.227144366156    -0.097209549175    12.000000000000
         C           -1.801146689861    -0.450211633844    -0.371385549175    12.000000000000
         C            3.006851310139    -0.506837633844    -0.925665549175    12.000000000000
         C            2.293071310139     0.231328366156     1.391713450825    12.000000000000
         C           -0.493087689861     0.323833366156    -0.196422549175    12.000000000000
         C           -1.972345689861    -1.511897633844     0.708734450825    12.000000000000
         H            1.878890310139     1.261439366156    -0.441709549175     1.007825032230
         H            0.594317710139    -1.415815433844    -0.241193349175     1.007825032230
         H           -1.786820689861    -0.928616633844    -1.363367549175     1.007825032230
         H            3.990521310139    -0.050572633844    -0.789722549175     1.007825032230
         H            3.081336310139    -1.554803633844    -0.613205549175     1.007825032230
         H            2.752981310139    -0.476606633844    -1.987656549175     1.007825032230
         H            1.522583310139     0.776505366156     1.941526450825     1.007825032230
         H            3.257471310139     0.714913366156     1.574699450825     1.007825032230
         H            2.343967310139    -0.792991633844     1.774269450825     1.007825032230
         H           -2.958985689861    -1.967086633844     0.605576450825     1.007825032230
         H           -1.908948689861    -1.043037633844     1.693393450825     1.007825032230
         H           -1.219239689861    -2.303251633844     0.640548450825     1.007825032230
         H           -2.444140689861     1.331469366156    -0.153622549175     1.007825032230

  Basis Set: AUG-CC-PVTZ
    Blend: AUG-CC-PVTZ
  Basis Set: (AUG-CC-PVTZ AUX)
    Blend: AUG-CC-PVTZ-JKFIT
	 Reference Energy          =    -439.1348779135776113 [Eh]
	 Singles Energy            =      -0.0000000000000000 [Eh]
	 Same-Spin Energy          =      -0.4463121844199420 [Eh]
	 Opposite-Spin Energy      =      -1.4643521280741250 [Eh]
	 Correlation Energy        =      -1.9106643124940670 [Eh]
	 Total Energy              =    -441.0455422260716887 [Eh]

	 ================> DF-SCS-MP2 Energies <==================
	-----------------------------------------------------------
	 SCS Same-Spin Scale       =       0.3333333333333333 [-]
	 SCS Opposite-Spin Scale   =       1.2000000000000000 [-]
	 SCS Same-Spin Energy      =      -0.1487707281399807 [Eh]
	 SCS Opposite-Spin Energy  =      -1.7572225536889499 [Eh]
	 SCS Correlation Energy    =      -1.9059932818289305 [Eh]
	 SCS Total Energy          =    -441.0408711954065666 [Eh]
	-----------------------------------------------------------

  Dipole Moment: [D]
     X:     3.3826      Y:    -3.0269      Z:     0.1046     Total:     4.5404

*** Psi4 exiting successfully. Buy a developer a beer!
