                               Psi4 1.4a2.dev612

  ==> Input File <==

--------------------------------------------------------------------------
#psi4
#
memory 32 gb

molecule  {
0 1
  O       -2.8756320     0.4615000    -0.3051040
  O       -0.5220660     1.5374290     0.0548780
  N        0.6562510    -0.3746370    -0.3360270
  C        1.9647450     0.2268840    -0.0956960
  C       -1.8001426    -0.4197922    -0.5166970
  C        3.0067800    -0.5070980    -0.9241520
  C        2.2930000     0.2310680     1.3932270
  C       -0.4931590     0.3235730    -0.1949090
  C       -1.9724170    -1.5121580     0.7102480
  H        1.8788190     1.2611790    -0.4401960
  H        0.6035260    -1.3822150    -0.4365740
  H       -1.7868920    -0.9288770    -1.3618540
  H        3.9904500    -0.0508330    -0.7882090
  H        3.0812650    -1.5550640    -0.6116920
  H        2.7529100    -0.4768670    -1.9861430
  H        1.5225120     0.7762450     1.9430400
  H        3.2574000     0.7146530     1.5762130
  H        2.3438960    -0.7932520     1.7757830
  H       -2.9590570    -1.9673470     0.6070900
  H       -1.9090200    -1.0432980     1.6949070
  H       -1.2193110    -2.3035120     0.6420620
  H       -2.4442120     1.3312090    -0.1521090
units angstrom
no_reorient  #important for SAPT in psi4, default
symmetry c1  #important for SAPT in psi4, default
}

set PROPERTIES_ORIGIN ["COM"]
properties('MP2/aug-cc-pvtz', properties = ['dipole'])
--------------------------------------------------------------------------

    Molecular point group: c1
  Charge       = 0
  Multiplicity = 1
  Basis Set: AUG-CC-PVTZ
    Blend: AUG-CC-PVTZ
  Basis Set: (AUG-CC-PVTZ AUX)
    Blend: AUG-CC-PVTZ-JKFIT

    Orbital Energies [Eh]
    ---------------------

    Doubly Occupied:

       1A    -20.549611     2A    -20.532137     3A    -15.595267
       4A    -11.359539     5A    -11.295447     6A    -11.276890
       7A    -11.233024     8A    -11.232323     9A    -11.221619
      10A     -1.397184    11A     -1.347390    12A     -1.247523
      13A     -1.069533    14A     -1.006989    15A     -0.949516
      16A     -0.896179    17A     -0.829127    18A     -0.798188
      19A     -0.739624    20A     -0.684638    21A     -0.655629
      22A     -0.629696    23A     -0.626413    24A     -0.597141
      25A     -0.574632    26A     -0.561117    27A     -0.555127
      28A     -0.546723    29A     -0.544650    30A     -0.533539
      31A     -0.511683    32A     -0.501999    33A     -0.489848
      34A     -0.442040    35A     -0.425137    36A     -0.400911

  @DF-RHF Final Energy:  -439.11654724799820

   => Energetics <=

    Nuclear Repulsion Energy =            484.3763500336786478
    One-Electron Energy =               -1559.2697379143819489
    Two-Electron Energy =                 635.7768406327052162
    Total Energy =                       -439.1165472479981418
  Basis Set: (AUG-CC-PVTZ AUX)
    Blend: AUG-CC-PVTZ-RI
    Molecular point group: c1

    Geometry (in Angstrom), charge = 0, multiplicity = 1:

       Center              X                  Y                   Z               Mass
    ------------   -----------------  -----------------  -----------------  -----------------
         O           -2.875730468085     0.458691717456    -0.291663962415    15.994914619570
         O           -0.522164468085     1.534620717456     0.068318037585    15.994914619570
         N            0.656152531915    -0.377445282544    -0.322586962415    14.003074004430
         C            1.964646531915     0.224075717456    -0.082255962415    12.000000000000
         C           -1.800241068085    -0.422600482544    -0.503256962415    12.000000000000
         C            3.006681531915    -0.509906282544    -0.910711962415    12.000000000000
         C            2.292901531915     0.228259717456     1.406667037585    12.000000000000
         C           -0.493257468085     0.320764717456    -0.181468962415    12.000000000000
         C           -1.972515468085    -1.514966282544     0.723688037585    12.000000000000
         H            1.878720531915     1.258370717456    -0.426755962415     1.007825032230
         H            0.603427531915    -1.385023282544    -0.423133962415     1.007825032230
         H           -1.786990468085    -0.931685282544    -1.348413962415     1.007825032230
         H            3.990351531915    -0.053641282544    -0.774768962415     1.007825032230
         H            3.081166531915    -1.557872282544    -0.598251962415     1.007825032230
         H            2.752811531915    -0.479675282544    -1.972702962415     1.007825032230
         H            1.522413531915     0.773436717456     1.956480037585     1.007825032230
         H            3.257301531915     0.711844717456     1.589653037585     1.007825032230
         H            2.343797531915    -0.796060282544     1.789223037585     1.007825032230
         H           -2.959155468085    -1.970155282544     0.620530037585     1.007825032230
         H           -1.909118468085    -1.046106282544     1.708347037585     1.007825032230
         H           -1.219409468085    -2.306320282544     0.655502037585     1.007825032230
         H           -2.444310468085     1.328400717456    -0.138668962415     1.007825032230

  Basis Set: AUG-CC-PVTZ
    Blend: AUG-CC-PVTZ
  Basis Set: (AUG-CC-PVTZ AUX)
    Blend: AUG-CC-PVTZ-JKFIT
	 Reference Energy          =    -439.1165472479981986 [Eh]
	 Singles Energy            =      -0.0000000000000000 [Eh]
	 Same-Spin Energy          =      -0.4459140550023776 [Eh]
	 Opposite-Spin Energy      =      -1.4642894733313447 [Eh]
	 Correlation Energy        =      -1.9102035283337224 [Eh]
	 Total Energy              =    -441.0267507763319372 [Eh]

	 ================> DF-SCS-MP2 Energies <==================
	-----------------------------------------------------------
	 SCS Same-Spin Scale       =       0.3333333333333333 [-]
	 SCS Opposite-Spin Scale   =       1.2000000000000000 [-]
	 SCS Same-Spin Energy      =      -0.1486380183341259 [Eh]
	 SCS Opposite-Spin Energy  =      -1.7571473679976137 [Eh]
	 SCS Correlation Energy    =      -1.9057853863317396 [Eh]
	 SCS Total Energy          =    -441.0223326343299277 [Eh]
	-----------------------------------------------------------

  Dipole Moment: [D]
     X:     3.4112      Y:    -2.9672      Z:    -0.3687     Total:     4.5362

*** Psi4 exiting successfully. Buy a developer a beer!
