                               Psi4 1.4a2.dev612

  ==> Input File <==

--------------------------------------------------------------------------
#psi4
#
memory 32 gb

molecule  {
0 1
  O       -2.8756320     0.4615000    -0.3051040
  O       -0.5220660     1.5374290     0.0548780
  N        0.6562510    -0.3746370    -0.3360270
  C        1.9647450     0.2268840    -0.0956960
  C       -1.7990673    -0.3891124    -0.6635221
  C        3.0067800    -0.5070980    -0.9241520
  C        2.2930000     0.2310680     1.3932270
  C       -0.4931590     0.3235730    -0.1949090
  C       -1.9724170    -1.5121580     0.7102480
  H        1.8788190     1.2611790    -0.4401960
  H        0.6035260    -1.3822150    -0.4365740
  H       -1.7868920    -0.9288770    -1.3618540
  H        3.9904500    -0.0508330    -0.7882090
  H        3.0812650    -1.5550640    -0.6116920
  H        2.7529100    -0.4768670    -1.9861430
  H        1.5225120     0.7762450     1.9430400
  H        3.2574000     0.7146530     1.5762130
  H        2.3438960    -0.7932520     1.7757830
  H       -2.9590570    -1.9673470     0.6070900
  H       -1.9090200    -1.0432980     1.6949070
  H       -1.2193110    -2.3035120     0.6420620
  H       -2.4442120     1.3312090    -0.1521090
units angstrom
no_reorient  #important for SAPT in psi4, default
symmetry c1  #important for SAPT in psi4, default
}

set PROPERTIES_ORIGIN ["COM"]
properties('MP2/aug-cc-pvtz', properties = ['dipole'])
--------------------------------------------------------------------------

    Molecular point group: c1
  Charge       = 0
  Multiplicity = 1
  Basis Set: AUG-CC-PVTZ
    Blend: AUG-CC-PVTZ
  Basis Set: (AUG-CC-PVTZ AUX)
    Blend: AUG-CC-PVTZ-JKFIT

    Orbital Energies [Eh]
    ---------------------

    Doubly Occupied:

       1A    -20.553435     2A    -20.532043     3A    -15.594383
       4A    -11.364104     5A    -11.298478     6A    -11.276458
       7A    -11.235449     8A    -11.232193     9A    -11.220896
      10A     -1.396059    11A     -1.345924    12A     -1.246868
      13A     -1.068101    14A     -1.000198    15A     -0.949071
      16A     -0.898578    17A     -0.838525    18A     -0.800675
      19A     -0.742268    20A     -0.690769    21A     -0.659482
      22A     -0.630116    23A     -0.622380    24A     -0.598478
      25A     -0.571923    26A     -0.558875    27A     -0.555206
      28A     -0.550182    29A     -0.543900    30A     -0.532294
      31A     -0.509789    32A     -0.500906    33A     -0.487928
      34A     -0.440775    35A     -0.408525    36A     -0.391149

  @DF-RHF Final Energy:  -439.04813850680534

   => Energetics <=

    Nuclear Repulsion Energy =            483.1742843177751752
    One-Electron Energy =               -1556.7520819839826345
    Two-Electron Energy =                 634.5296591594021720
    Total Energy =                       -439.0481385068053442
  Basis Set: (AUG-CC-PVTZ AUX)
    Blend: AUG-CC-PVTZ-RI
    Molecular point group: c1

    Geometry (in Angstrom), charge = 0, multiplicity = 1:

       Center              X                  Y                   Z               Mass
    ------------   -----------------  -----------------  -----------------  -----------------
         O           -2.875828897747     0.455883382715    -0.278224043343    15.994914619570
         O           -0.522262897747     1.531812382715     0.081757956657    15.994914619570
         N            0.656054102253    -0.380253617285    -0.309147043343    14.003074004430
         C            1.964548102253     0.221267382715    -0.068816043343    12.000000000000
         C           -1.799264197747    -0.394729017285    -0.636642143343    12.000000000000
         C            3.006583102253    -0.512714617285    -0.897272043343    12.000000000000
         C            2.292803102253     0.225451382715     1.420106956657    12.000000000000
         C           -0.493355897747     0.317956382715    -0.168029043343    12.000000000000
         C           -1.972613897747    -1.517774617285     0.737127956657    12.000000000000
         H            1.878622102253     1.255562382715    -0.413316043343     1.007825032230
         H            0.603329102253    -1.387831617285    -0.409694043343     1.007825032230
         H           -1.787088897747    -0.934493617285    -1.334974043343     1.007825032230
         H            3.990253102253    -0.056449617285    -0.761329043343     1.007825032230
         H            3.081068102253    -1.560680617285    -0.584812043343     1.007825032230
         H            2.752713102253    -0.482483617285    -1.959263043343     1.007825032230
         H            1.522315102253     0.770628382715     1.969919956657     1.007825032230
         H            3.257203102253     0.709036382715     1.603092956657     1.007825032230
         H            2.343699102253    -0.798868617285     1.802662956657     1.007825032230
         H           -2.959253897747    -1.972963617285     0.633969956657     1.007825032230
         H           -1.909216897747    -1.048914617285     1.721786956657     1.007825032230
         H           -1.219507897747    -2.309128617285     0.668941956657     1.007825032230
         H           -2.444408897747     1.325592382715    -0.125229043343     1.007825032230

  Basis Set: AUG-CC-PVTZ
    Blend: AUG-CC-PVTZ
  Basis Set: (AUG-CC-PVTZ AUX)
    Blend: AUG-CC-PVTZ-JKFIT
	 Reference Energy          =    -439.0481385068053442 [Eh]
	 Singles Energy            =      -0.0000000000000000 [Eh]
	 Same-Spin Energy          =      -0.4469857010151503 [Eh]
	 Opposite-Spin Energy      =      -1.4681497398604462 [Eh]
	 Correlation Energy        =      -1.9151354408755965 [Eh]
	 Total Energy              =    -440.9632739476809320 [Eh]

	 ================> DF-SCS-MP2 Energies <==================
	-----------------------------------------------------------
	 SCS Same-Spin Scale       =       0.3333333333333333 [-]
	 SCS Opposite-Spin Scale   =       1.2000000000000000 [-]
	 SCS Same-Spin Energy      =      -0.1489952336717167 [Eh]
	 SCS Opposite-Spin Energy  =      -1.7617796878325354 [Eh]
	 SCS Correlation Energy    =      -1.9107749215042520 [Eh]
	 SCS Total Energy          =    -440.9589134283095859 [Eh]
	-----------------------------------------------------------

  Dipole Moment: [D]
     X:     3.3326      Y:    -2.8711      Z:    -0.5340     Total:     4.4311

*** Psi4 exiting successfully. Buy a developer a beer!
