                               Psi4 1.4a2.dev612

  ==> Input File <==

--------------------------------------------------------------------------
#psi4
#
memory 32 gb

molecule  {
0 1
  O       -2.8756320     0.4615000    -0.3051040
  O       -0.5220660     1.5374290     0.0548780
  N        0.6562510    -0.3746370    -0.3360270
  C        1.9647450     0.2268840    -0.0956960
  C       -1.8005011    -0.4300188    -0.4677554
  C        3.0067800    -0.5070980    -0.9241520
  C        2.2930000     0.2310680     1.3932270
  C       -0.4931590     0.3235730    -0.1949090
  C       -1.9724170    -1.5121580     0.7102480
  H        1.8788190     1.2611790    -0.4401960
  H        0.6035260    -1.3822150    -0.4365740
  H       -1.7868920    -0.9288770    -1.3618540
  H        3.9904500    -0.0508330    -0.7882090
  H        3.0812650    -1.5550640    -0.6116920
  H        2.7529100    -0.4768670    -1.9861430
  H        1.5225120     0.7762450     1.9430400
  H        3.2574000     0.7146530     1.5762130
  H        2.3438960    -0.7932520     1.7757830
  H       -2.9590570    -1.9673470     0.6070900
  H       -1.9090200    -1.0432980     1.6949070
  H       -1.2193110    -2.3035120     0.6420620
  H       -2.4442120     1.3312090    -0.1521090
units angstrom
no_reorient  #important for SAPT in psi4, default
symmetry c1  #important for SAPT in psi4, default
}

set PROPERTIES_ORIGIN ["COM"]
properties('MP2/aug-cc-pvtz', properties = ['dipole'])
--------------------------------------------------------------------------

    Molecular point group: c1
  Charge       = 0
  Multiplicity = 1
  Basis Set: AUG-CC-PVTZ
    Blend: AUG-CC-PVTZ
  Basis Set: (AUG-CC-PVTZ AUX)
    Blend: AUG-CC-PVTZ-JKFIT

    Orbital Energies [Eh]
    ---------------------

    Doubly Occupied:

       1A    -20.548767     2A    -20.532218     3A    -15.595463
       4A    -11.358732     5A    -11.295529     6A    -11.277013
       7A    -11.232333     8A    -11.232286     9A    -11.221849
      10A     -1.397327    11A     -1.347219    12A     -1.247698
      13A     -1.070209    14A     -1.011603    15A     -0.949641
      16A     -0.895746    17A     -0.826528    18A     -0.797145
      19A     -0.738598    20A     -0.682392    21A     -0.653688
      22A     -0.629812    23A     -0.627800    24A     -0.596932
      25A     -0.576332    26A     -0.562824    27A     -0.555102
      28A     -0.546190    29A     -0.543361    30A     -0.533336
      31A     -0.512183    32A     -0.502334    33A     -0.490448
      34A     -0.442453    35A     -0.430717    36A     -0.401390

  @DF-RHF Final Energy:  -439.12879013201632

   => Energetics <=

    Nuclear Repulsion Energy =            484.7221370835407015
    One-Electron Energy =               -1559.9754581466374930
    Two-Electron Energy =                 636.1245309310804714
    Total Energy =                       -439.1287901320163201
  Basis Set: (AUG-CC-PVTZ AUX)
    Blend: AUG-CC-PVTZ-RI
    Molecular point group: c1

    Geometry (in Angstrom), charge = 0, multiplicity = 1:

       Center              X                  Y                   Z               Mass
    ------------   -----------------  -----------------  -----------------  -----------------
         O           -2.875697652095     0.459627829036    -0.296143926286    15.994914619570
         O           -0.522131652095     1.535556829036     0.063838073714    15.994914619570
         N            0.656185347905    -0.376509170964    -0.327066926286    14.003074004430
         C            1.964679347905     0.225011829036    -0.086735926286    12.000000000000
         C           -1.800566752095    -0.431890970964    -0.458795326286    12.000000000000
         C            3.006714347905    -0.508970170964    -0.915191926286    12.000000000000
         C            2.292934347905     0.229195829036     1.402187073714    12.000000000000
         C           -0.493224652095     0.321700829036    -0.185948926286    12.000000000000
         C           -1.972482652095    -1.514030170964     0.719208073714    12.000000000000
         H            1.878753347905     1.259306829036    -0.431235926286     1.007825032230
         H            0.603460347905    -1.384087170964    -0.427613926286     1.007825032230
         H           -1.786957652095    -0.930749170964    -1.352893926286     1.007825032230
         H            3.990384347905    -0.052705170964    -0.779248926286     1.007825032230
         H            3.081199347905    -1.556936170964    -0.602731926286     1.007825032230
         H            2.752844347905    -0.478739170964    -1.977182926286     1.007825032230
         H            1.522446347905     0.774372829036     1.952000073714     1.007825032230
         H            3.257334347905     0.712780829036     1.585173073714     1.007825032230
         H            2.343830347905    -0.795124170964     1.784743073714     1.007825032230
         H           -2.959122652095    -1.969219170964     0.616050073714     1.007825032230
         H           -1.909085652095    -1.045170170964     1.703867073714     1.007825032230
         H           -1.219376652095    -2.305384170964     0.651022073714     1.007825032230
         H           -2.444277652095     1.329336829036    -0.143148926286     1.007825032230

  Basis Set: AUG-CC-PVTZ
    Blend: AUG-CC-PVTZ
  Basis Set: (AUG-CC-PVTZ AUX)
    Blend: AUG-CC-PVTZ-JKFIT
	 Reference Energy          =    -439.1287901320163201 [Eh]
	 Singles Energy            =      -0.0000000000000000 [Eh]
	 Same-Spin Energy          =      -0.4458152375585449 [Eh]
	 Opposite-Spin Energy      =      -1.4637219787778530 [Eh]
	 Correlation Energy        =      -1.9095372163363979 [Eh]
	 Total Energy              =    -441.0383273483527091 [Eh]

	 ================> DF-SCS-MP2 Energies <==================
	-----------------------------------------------------------
	 SCS Same-Spin Scale       =       0.3333333333333333 [-]
	 SCS Opposite-Spin Scale   =       1.2000000000000000 [-]
	 SCS Same-Spin Energy      =      -0.1486050791861816 [Eh]
	 SCS Opposite-Spin Energy  =      -1.7564663745334237 [Eh]
	 SCS Correlation Energy    =      -1.9050714537196054 [Eh]
	 SCS Total Energy          =    -441.0338615857359059 [Eh]
	-----------------------------------------------------------

  Dipole Moment: [D]
     X:     3.4304      Y:    -2.9994      Z:    -0.2993     Total:     4.5666

*** Psi4 exiting successfully. Buy a developer a beer!
