                               Psi4 1.4a2.dev612

  ==> Input File <==

--------------------------------------------------------------------------
#psi4
#
memory 32 gb

molecule  {
0 1
  O       -2.8756320     0.4615000    -0.3051040
  O       -0.5220660     1.5374290     0.0548780
  N        0.6562510    -0.3746370    -0.3360270
  C        1.9647450     0.2268840    -0.0956960
  C       -1.8012180    -0.4504720    -0.3698720
  C        3.0067800    -0.5070980    -0.9241520
  C        2.2930000     0.2310680     1.3932270
  C       -0.4931590     0.3235730    -0.1949090
  C       -1.9724170    -1.5121580     0.7102480
  H        1.8788190     1.2611790    -0.4401960
  H        0.5919265    -1.4245409    -0.1904562
  H       -1.7868920    -0.9288770    -1.3618540
  H        3.9904500    -0.0508330    -0.7882090
  H        3.0812650    -1.5550640    -0.6116920
  H        2.7529100    -0.4768670    -1.9861430
  H        1.5225120     0.7762450     1.9430400
  H        3.2574000     0.7146530     1.5762130
  H        2.3438960    -0.7932520     1.7757830
  H       -2.9590570    -1.9673470     0.6070900
  H       -1.9090200    -1.0432980     1.6949070
  H       -1.2193110    -2.3035120     0.6420620
  H       -2.4442120     1.3312090    -0.1521090
units angstrom
no_reorient  #important for SAPT in psi4, default
symmetry c1  #important for SAPT in psi4, default
}

set PROPERTIES_ORIGIN ["COM"]
properties('MP2/aug-cc-pvtz', properties = ['dipole'])
--------------------------------------------------------------------------

    Molecular point group: c1
  Charge       = 0
  Multiplicity = 1
  Basis Set: AUG-CC-PVTZ
    Blend: AUG-CC-PVTZ
  Basis Set: (AUG-CC-PVTZ AUX)
    Blend: AUG-CC-PVTZ-JKFIT

    Orbital Energies [Eh]
    ---------------------

    Doubly Occupied:

       1A    -20.548216     2A    -20.534495     3A    -15.598812
       4A    -11.358719     5A    -11.297572     6A    -11.276483
       7A    -11.232692     8A    -11.230267     9A    -11.223431
      10A     -1.398262    11A     -1.346512    12A     -1.244323
      13A     -1.071786    14A     -1.024032    15A     -0.949144
      16A     -0.895501    17A     -0.821723    18A     -0.784163
      19A     -0.736989    20A     -0.678031    21A     -0.650393
      22A     -0.629949    23A     -0.622968    24A     -0.601555
      25A     -0.582179    26A     -0.568607    27A     -0.554101
      28A     -0.548281    29A     -0.539374    30A     -0.530256
      31A     -0.511857    32A     -0.502884    33A     -0.491525
      34A     -0.445480    35A     -0.435649    36A     -0.402870

  @DF-RHF Final Energy:  -439.13315141991808

   => Energetics <=

    Nuclear Repulsion Energy =            485.2043466101053468
    One-Electron Energy =               -1560.9368368814984933
    Two-Electron Energy =                 636.5993388514749540
    Total Energy =                       -439.1331514199181356
  Basis Set: (AUG-CC-PVTZ AUX)
    Blend: AUG-CC-PVTZ-RI
    Molecular point group: c1

    Geometry (in Angstrom), charge = 0, multiplicity = 1:

       Center              X                  Y                   Z               Mass
    ------------   -----------------  -----------------  -----------------  -----------------
         O           -2.875542855010     0.461825443878    -0.306995968770    15.994914619570
         O           -0.521976855010     1.537754443878     0.052986031230    15.994914619570
         N            0.656340144990    -0.374311556122    -0.337918968770    14.003074004430
         C            1.964834144990     0.227209443878    -0.097587968770    12.000000000000
         C           -1.801128855010    -0.450146556122    -0.371763968770    12.000000000000
         C            3.006869144990    -0.506772556122    -0.926043968770    12.000000000000
         C            2.293089144990     0.231393443878     1.391335031230    12.000000000000
         C           -0.493069855010     0.323898443878    -0.196800968770    12.000000000000
         C           -1.972327855010    -1.511832556122     0.708356031230    12.000000000000
         H            1.878908144990     1.261504443878    -0.442087968770     1.007825032230
         H            0.592015644990    -1.424215456122    -0.192348168770     1.007825032230
         H           -1.786802855010    -0.928551556122    -1.363745968770     1.007825032230
         H            3.990539144990    -0.050507556122    -0.790100968770     1.007825032230
         H            3.081354144990    -1.554738556122    -0.613583968770     1.007825032230
         H            2.752999144990    -0.476541556122    -1.988034968770     1.007825032230
         H            1.522601144990     0.776570443878     1.941148031230     1.007825032230
         H            3.257489144990     0.714978443878     1.574321031230     1.007825032230
         H            2.343985144990    -0.792926556122     1.773891031230     1.007825032230
         H           -2.958967855010    -1.967021556122     0.605198031230     1.007825032230
         H           -1.908930855010    -1.042972556122     1.693015031230     1.007825032230
         H           -1.219221855010    -2.303186556122     0.640170031230     1.007825032230
         H           -2.444122855010     1.331534443878    -0.154000968770     1.007825032230

  Basis Set: AUG-CC-PVTZ
    Blend: AUG-CC-PVTZ
  Basis Set: (AUG-CC-PVTZ AUX)
    Blend: AUG-CC-PVTZ-JKFIT
	 Reference Energy          =    -439.1331514199180788 [Eh]
	 Singles Energy            =      -0.0000000000000000 [Eh]
	 Same-Spin Energy          =      -0.4464352044983114 [Eh]
	 Opposite-Spin Energy      =      -1.4646727535426680 [Eh]
	 Correlation Energy        =      -1.9111079580409793 [Eh]
	 Total Energy              =    -441.0442593779590652 [Eh]

	 ================> DF-SCS-MP2 Energies <==================
	-----------------------------------------------------------
	 SCS Same-Spin Scale       =       0.3333333333333333 [-]
	 SCS Opposite-Spin Scale   =       1.2000000000000000 [-]
	 SCS Same-Spin Energy      =      -0.1488117348327704 [Eh]
	 SCS Opposite-Spin Energy  =      -1.7576073042512015 [Eh]
	 SCS Correlation Energy    =      -1.9064190390839719 [Eh]
	 SCS Total Energy          =    -441.0395704590020500 [Eh]
	-----------------------------------------------------------

  Dipole Moment: [D]
     X:     3.3607      Y:    -3.0114      Z:     0.1649     Total:     4.5155

*** Psi4 exiting successfully. Buy a developer a beer!
