                               Psi4 1.4a2.dev612

  ==> Input File <==

--------------------------------------------------------------------------
#psi4
#
memory 32 gb

molecule  {
0 1
  O       -2.8756320     0.4615000    -0.3051040
  O       -0.5220660     1.5374290     0.0548780
  N        0.6562510    -0.3746370    -0.3360270
  C        1.9647450     0.2268840    -0.0956960
  C       -1.7997842    -0.4095656    -0.5656387
  C        3.0067800    -0.5070980    -0.9241520
  C        2.2930000     0.2310680     1.3932270
  C       -0.4931590     0.3235730    -0.1949090
  C       -1.9724170    -1.5121580     0.7102480
  H        1.8788190     1.2611790    -0.4401960
  H        0.6035260    -1.3822150    -0.4365740
  H       -1.7868920    -0.9288770    -1.3618540
  H        3.9904500    -0.0508330    -0.7882090
  H        3.0812650    -1.5550640    -0.6116920
  H        2.7529100    -0.4768670    -1.9861430
  H        1.5225120     0.7762450     1.9430400
  H        3.2574000     0.7146530     1.5762130
  H        2.3438960    -0.7932520     1.7757830
  H       -2.9590570    -1.9673470     0.6070900
  H       -1.9090200    -1.0432980     1.6949070
  H       -1.2193110    -2.3035120     0.6420620
  H       -2.4442120     1.3312090    -0.1521090
units angstrom
no_reorient  #important for SAPT in psi4, default
symmetry c1  #important for SAPT in psi4, default
}

set PROPERTIES_ORIGIN ["COM"]
properties('MP2/aug-cc-pvtz', properties = ['dipole'])
--------------------------------------------------------------------------

    Molecular point group: c1
  Charge       = 0
  Multiplicity = 1
  Basis Set: AUG-CC-PVTZ
    Blend: AUG-CC-PVTZ
  Basis Set: (AUG-CC-PVTZ AUX)
    Blend: AUG-CC-PVTZ-JKFIT

    Orbital Energies [Eh]
    ---------------------

    Doubly Occupied:

       1A    -20.550682     2A    -20.532083     3A    -15.595021
       4A    -11.360719     5A    -11.295918     6A    -11.276757
       7A    -11.233772     8A    -11.232297     9A    -11.221383
      10A     -1.396923    11A     -1.347236    12A     -1.247327
      13A     -1.068980    14A     -1.003505    15A     -0.949379
      16A     -0.896752    17A     -0.832075    18A     -0.799150
      19A     -0.740607    20A     -0.686988    21A     -0.657273
      22A     -0.629792    23A     -0.624977    24A     -0.597499
      25A     -0.573392    26A     -0.559882    27A     -0.555152
      28A     -0.548483    29A     -0.544405    30A     -0.533335
      31A     -0.511082    32A     -0.501643    33A     -0.489225
      34A     -0.441738    35A     -0.418489    36A     -0.399728

  @DF-RHF Final Energy:  -439.09906771135621

   => Energetics <=

    Nuclear Repulsion Energy =            484.0031854360866532
    One-Electron Energy =               -1558.4972011445252065
    Two-Electron Energy =                 635.3949479970824541
    Total Energy =                       -439.0990677113561560
  Basis Set: (AUG-CC-PVTZ AUX)
    Blend: AUG-CC-PVTZ-RI
    Molecular point group: c1

    Geometry (in Angstrom), charge = 0, multiplicity = 1:

       Center              X                  Y                   Z               Mass
    ------------   -----------------  -----------------  -----------------  -----------------
         O           -2.875763274921     0.457755605876    -0.287183989391    15.994914619570
         O           -0.522197274921     1.533684605876     0.072798010609    15.994914619570
         N            0.656119725079    -0.378381394124    -0.318106989391    14.003074004430
         C            1.964613725079     0.223139605876    -0.077775989391    12.000000000000
         C           -1.799915474921    -0.413309994124    -0.547718689391    12.000000000000
         C            3.006648725079    -0.510842394124    -0.906231989391    12.000000000000
         C            2.292868725079     0.227323605876     1.411147010609    12.000000000000
         C           -0.493290274921     0.319828605876    -0.176988989391    12.000000000000
         C           -1.972548274921    -1.515902394124     0.728168010609    12.000000000000
         H            1.878687725079     1.257434605876    -0.422275989391     1.007825032230
         H            0.603394725079    -1.385959394124    -0.418653989391     1.007825032230
         H           -1.787023274921    -0.932621394124    -1.343933989391     1.007825032230
         H            3.990318725079    -0.054577394124    -0.770288989391     1.007825032230
         H            3.081133725079    -1.558808394124    -0.593771989391     1.007825032230
         H            2.752778725079    -0.480611394124    -1.968222989391     1.007825032230
         H            1.522380725079     0.772500605876     1.960960010609     1.007825032230
         H            3.257268725079     0.710908605876     1.594133010609     1.007825032230
         H            2.343764725079    -0.796996394124     1.793703010609     1.007825032230
         H           -2.959188274921    -1.971091394124     0.625010010609     1.007825032230
         H           -1.909151274921    -1.047042394124     1.712827010609     1.007825032230
         H           -1.219442274921    -2.307256394124     0.659982010609     1.007825032230
         H           -2.444343274921     1.327464605876    -0.134188989391     1.007825032230

  Basis Set: AUG-CC-PVTZ
    Blend: AUG-CC-PVTZ
  Basis Set: (AUG-CC-PVTZ AUX)
    Blend: AUG-CC-PVTZ-JKFIT
	 Reference Energy          =    -439.0990677113562128 [Eh]
	 Singles Energy            =      -0.0000000000000000 [Eh]
	 Same-Spin Energy          =      -0.4461445424153912 [Eh]
	 Opposite-Spin Energy      =      -1.4652145020514000 [Eh]
	 Correlation Energy        =      -1.9113590444667912 [Eh]
	 Total Energy              =    -441.0104267558230049 [Eh]

	 ================> DF-SCS-MP2 Energies <==================
	-----------------------------------------------------------
	 SCS Same-Spin Scale       =       0.3333333333333333 [-]
	 SCS Opposite-Spin Scale   =       1.2000000000000000 [-]
	 SCS Same-Spin Energy      =      -0.1487148474717971 [Eh]
	 SCS Opposite-Spin Energy  =      -1.7582574024616799 [Eh]
	 SCS Correlation Energy    =      -1.9069722499334769 [Eh]
	 SCS Total Energy          =    -441.0060399612896731 [Eh]
	-----------------------------------------------------------

  Dipole Moment: [D]
     X:     3.3886      Y:    -2.9344      Z:    -0.4317     Total:     4.5033

*** Psi4 exiting successfully. Buy a developer a beer!
