                               Psi4 1.4a2.dev612

  ==> Input File <==

--------------------------------------------------------------------------
#psi4
#
memory 32 gb

molecule  {
0 1
  O       -2.8756320     0.4615000    -0.3051040
  O       -0.5220660     1.5374290     0.0548780
  N        0.6562510    -0.3746370    -0.3360270
  C        1.9647450     0.2268840    -0.0956960
  C       -1.8012180    -0.4504720    -0.3698720
  C        3.0067800    -0.5070980    -0.9241520
  C        2.2930000     0.2310680     1.3932270
  C       -0.4931590     0.3235730    -0.1949090
  C       -1.9724170    -1.5121580     0.7102480
  H        1.8788190     1.2611790    -0.4401960
  H        0.5896066    -1.4330061    -0.1412327
  H       -1.7868920    -0.9288770    -1.3618540
  H        3.9904500    -0.0508330    -0.7882090
  H        3.0812650    -1.5550640    -0.6116920
  H        2.7529100    -0.4768670    -1.9861430
  H        1.5225120     0.7762450     1.9430400
  H        3.2574000     0.7146530     1.5762130
  H        2.3438960    -0.7932520     1.7757830
  H       -2.9590570    -1.9673470     0.6070900
  H       -1.9090200    -1.0432980     1.6949070
  H       -1.2193110    -2.3035120     0.6420620
  H       -2.4442120     1.3312090    -0.1521090
units angstrom
no_reorient  #important for SAPT in psi4, default
symmetry c1  #important for SAPT in psi4, default
}

set PROPERTIES_ORIGIN ["COM"]
properties('MP2/aug-cc-pvtz', properties = ['dipole'])
--------------------------------------------------------------------------

    Molecular point group: c1
  Charge       = 0
  Multiplicity = 1
  Basis Set: AUG-CC-PVTZ
    Blend: AUG-CC-PVTZ
  Basis Set: (AUG-CC-PVTZ AUX)
    Blend: AUG-CC-PVTZ-JKFIT

    Orbital Energies [Eh]
    ---------------------

    Doubly Occupied:

       1A    -20.548316     2A    -20.535085     3A    -15.599853
       4A    -11.358847     5A    -11.297621     6A    -11.276289
       7A    -11.233017     8A    -11.229832     9A    -11.223677
      10A     -1.398530    11A     -1.346661    12A     -1.243119
      13A     -1.071622    14A     -1.023985    15A     -0.949013
      16A     -0.895551    17A     -0.821491    18A     -0.780777
      19A     -0.737054    20A     -0.677924    21A     -0.650344
      22A     -0.630024    23A     -0.621001    24A     -0.601982
      25A     -0.582277    26A     -0.568827    27A     -0.553925
      28A     -0.548236    29A     -0.539361    30A     -0.530274
      31A     -0.511485    32A     -0.502893    33A     -0.491448
      34A     -0.445585    35A     -0.435972    36A     -0.403245

  @DF-RHF Final Energy:  -439.13087987700186

   => Energetics <=

    Nuclear Repulsion Energy =            485.1483809721250964
    One-Electron Energy =               -1560.8282324421770682
    Two-Electron Energy =                 636.5489715930500552
    Total Energy =                       -439.1308798770019166
  Basis Set: (AUG-CC-PVTZ AUX)
    Blend: AUG-CC-PVTZ-RI
    Molecular point group: c1

    Geometry (in Angstrom), charge = 0, multiplicity = 1:

       Center              X                  Y                   Z               Mass
    ------------   -----------------  -----------------  -----------------  -----------------
         O           -2.875525020158     0.461890522367    -0.307374387596    15.994914619570
         O           -0.521959020158     1.537819522367     0.052607612404    15.994914619570
         N            0.656357979842    -0.374246477633    -0.338297387596    14.003074004430
         C            1.964851979842     0.227274522367    -0.097966387596    12.000000000000
         C           -1.801111020158    -0.450081477633    -0.372142387596    12.000000000000
         C            3.006886979842    -0.506707477633    -0.926422387596    12.000000000000
         C            2.293106979842     0.231458522367     1.390956612404    12.000000000000
         C           -0.493052020158     0.323963522367    -0.197179387596    12.000000000000
         C           -1.972310020158    -1.511767477633     0.707977612404    12.000000000000
         H            1.878925979842     1.261569522367    -0.442466387596     1.007825032230
         H            0.589713579842    -1.432615577633    -0.143503087596     1.007825032230
         H           -1.786785020158    -0.928486477633    -1.364124387596     1.007825032230
         H            3.990556979842    -0.050442477633    -0.790479387596     1.007825032230
         H            3.081371979842    -1.554673477633    -0.613962387596     1.007825032230
         H            2.753016979842    -0.476476477633    -1.988413387596     1.007825032230
         H            1.522618979842     0.776635522367     1.940769612404     1.007825032230
         H            3.257506979842     0.715043522367     1.573942612404     1.007825032230
         H            2.344002979842    -0.792861477633     1.773512612404     1.007825032230
         H           -2.958950020158    -1.966956477633     0.604819612404     1.007825032230
         H           -1.908913020158    -1.042907477633     1.692636612404     1.007825032230
         H           -1.219204020158    -2.303121477633     0.639791612404     1.007825032230
         H           -2.444105020158     1.331599522367    -0.154379387596     1.007825032230

  Basis Set: AUG-CC-PVTZ
    Blend: AUG-CC-PVTZ
  Basis Set: (AUG-CC-PVTZ AUX)
    Blend: AUG-CC-PVTZ-JKFIT
	 Reference Energy          =    -439.1308798770018598 [Eh]
	 Singles Energy            =      -0.0000000000000000 [Eh]
	 Same-Spin Energy          =      -0.4465783801737327 [Eh]
	 Opposite-Spin Energy      =      -1.4650488863057305 [Eh]
	 Correlation Energy        =      -1.9116272664794631 [Eh]
	 Total Energy              =    -441.0425071434813162 [Eh]

	 ================> DF-SCS-MP2 Energies <==================
	-----------------------------------------------------------
	 SCS Same-Spin Scale       =       0.3333333333333333 [-]
	 SCS Opposite-Spin Scale   =       1.2000000000000000 [-]
	 SCS Same-Spin Energy      =      -0.1488594600579109 [Eh]
	 SCS Opposite-Spin Energy  =      -1.7580586635668765 [Eh]
	 SCS Correlation Energy    =      -1.9069181236247874 [Eh]
	 SCS Total Energy          =    -441.0377980006266512 [Eh]
	-----------------------------------------------------------

  Dipole Moment: [D]
     X:     3.3381      Y:    -2.9935      Z:     0.2241     Total:     4.4893

*** Psi4 exiting successfully. Buy a developer a beer!
