                               Psi4 1.3.2 release

  ==> Input File <==

--------------------------------------------------------------------------
#psi4
#
memory 32 gb

molecule  {
0 1
  N        1.2070330    -0.3594050    -0.0000050
  C       -1.2537895     0.0046431    -0.0000087
  C        0.1842620     0.4168630     0.0000180
  H       -1.1533220    -1.2333450    -0.0000600
  H       -1.7556310     0.1970070    -0.8817940
  H       -1.7556310     0.1969280     0.8818020
  H        0.2601390     1.5130950     0.0000410
  H        2.0665750     0.2014680     0.0000070
units angstrom
no_reorient  #important for SAPT in psi4, default
symmetry c1  #important for SAPT in psi4, default
}

set PROPERTIES_ORIGIN ["COM"]
properties('MP2/aug-cc-pvtz', properties = ['dipole'])
--------------------------------------------------------------------------

    Molecular point group: c1
  Charge       = 0
  Multiplicity = 1
  Basis Set: AUG-CC-PVTZ
    Blend: AUG-CC-PVTZ
  Basis Set: (AUG-CC-PVTZ AUX)
    Blend: AUG-CC-PVTZ-JKFIT

    Orbital Energies [Eh]
    ---------------------

    Doubly Occupied:

       1A    -15.558951     2A    -11.291244     3A    -11.231946
       4A     -1.204258     5A     -0.999372     6A     -0.780701
       7A     -0.688886     8A     -0.620222     9A     -0.576372
      10A     -0.492149    11A     -0.432231    12A     -0.421247

  @DF-RHF Final Energy:  -133.10287139934206

   => Energetics <=

    Nuclear Repulsion Energy =             70.4876213356848353
    One-Electron Energy =                -318.5858278618694612
    Two-Electron Energy =                 114.9953351268425621
    Total Energy =                       -133.1028713993420638
  Basis Set: (AUG-CC-PVTZ AUX)
    Blend: AUG-CC-PVTZ-RI
    Molecular point group: c1

    Geometry (in Angstrom), charge = 0, multiplicity = 1:

       Center              X                  Y                   Z               Mass
    ------------   -----------------  -----------------  -----------------  -----------------
         N            1.167265549687    -0.380484301371    -0.000005872477    14.003074004430
         C           -1.293556950313    -0.016436201371    -0.000009572477    12.000000000000
         C            0.144494549687     0.395783698629     0.000017127523    12.000000000000
         H           -1.193089450313    -1.254424301371    -0.000060872477     1.007825032230
         H           -1.795398450313     0.175927698629    -0.881794872477     1.007825032230
         H           -1.795398450313     0.175848698629     0.881801127523     1.007825032230
         H            0.220371549687     1.492015698629     0.000040127523     1.007825032230
         H            2.026807549687     0.180388698629     0.000006127523     1.007825032230

  Basis Set: AUG-CC-PVTZ
    Blend: AUG-CC-PVTZ
  Basis Set: (AUG-CC-PVTZ AUX)
    Blend: AUG-CC-PVTZ-JKFIT
	 Reference Energy          =    -133.1028713993420638 [Eh]
	 Singles Energy            =      -0.0000000000000000 [Eh]
	 Same-Spin Energy          =      -0.1345544237818640 [Eh]
	 Opposite-Spin Energy      =      -0.4746654976025929 [Eh]
	 Correlation Energy        =      -0.6092199213844569 [Eh]
	 Total Energy              =    -133.7120913207265289 [Eh]

	 ================> DF-SCS-MP2 Energies <==================
	-----------------------------------------------------------
	 SCS Same-Spin Scale       =       0.3333333333333333 [-]
	 SCS Opposite-Spin Scale   =       1.2000000000000000 [-]
	 SCS Same-Spin Energy      =      -0.0448514745939547 [Eh]
	 SCS Opposite-Spin Energy  =      -0.5695985971231114 [Eh]
	 SCS Correlation Energy    =      -0.6144500717170661 [Eh]
	 SCS Total Energy          =    -133.7173214710591367 [Eh]
	-----------------------------------------------------------

  Dipole Moment: [D]
     X:    -0.7681      Y:     1.9471      Z:     0.0000     Total:     2.0931

*** Psi4 exiting successfully. Buy a developer a beer!
