                               Psi4 1.3.2 release

  ==> Input File <==

--------------------------------------------------------------------------
#psi4
#
memory 32 gb

molecule  {
0 1
  N        1.2070330    -0.3594050    -0.0000050
  C       -1.2028230    -0.1434160    -0.0000110
  C        0.0249517     0.5377771     0.0000216
  H       -1.1533220    -1.2333450    -0.0000600
  H       -1.7556310     0.1970070    -0.8817940
  H       -1.7556310     0.1969280     0.8818020
  H        0.2601390     1.5130950     0.0000410
  H        2.0665750     0.2014680     0.0000070
units angstrom
no_reorient  #important for SAPT in psi4, default
symmetry c1  #important for SAPT in psi4, default
}

set PROPERTIES_ORIGIN ["COM"]
properties('MP2/aug-cc-pvtz', properties = ['dipole'])
--------------------------------------------------------------------------

    Molecular point group: c1
  Charge       = 0
  Multiplicity = 1
  Basis Set: AUG-CC-PVTZ
    Blend: AUG-CC-PVTZ
  Basis Set: (AUG-CC-PVTZ AUX)
    Blend: AUG-CC-PVTZ-JKFIT

    Orbital Energies [Eh]
    ---------------------

    Doubly Occupied:

       1A    -15.565707     2A    -11.305882     3A    -11.235009
       4A     -1.144275     5A     -1.011856     6A     -0.814827
       7A     -0.673340     8A     -0.596967     9A     -0.596847
      10A     -0.519022    11A     -0.431525    12A     -0.368087

  @DF-RHF Final Energy:  -133.06115400840608

   => Energetics <=

    Nuclear Repulsion Energy =             69.5229288853154799
    One-Electron Energy =                -316.6414790442889284
    Two-Electron Energy =                 114.0573961505673708
    Total Energy =                       -133.0611540084060778
  Basis Set: (AUG-CC-PVTZ AUX)
    Blend: AUG-CC-PVTZ-RI
    Molecular point group: c1

    Geometry (in Angstrom), charge = 0, multiplicity = 1:

       Center              X                  Y                   Z               Mass
    ------------   -----------------  -----------------  -----------------  -----------------
         N            1.197471385476    -0.372916379510    -0.000006234912    14.003074004430
         C           -1.212384614524    -0.156927379510    -0.000012234912    12.000000000000
         C            0.015390085476     0.524265720490     0.000020365088    12.000000000000
         H           -1.162883614524    -1.246856379510    -0.000061234912     1.007825032230
         H           -1.765192614524     0.183495620490    -0.881795234912     1.007825032230
         H           -1.765192614524     0.183416620490     0.881800765088     1.007825032230
         H            0.250577385476     1.499583620490     0.000039765088     1.007825032230
         H            2.057013385476     0.187956620490     0.000005765088     1.007825032230

  Basis Set: AUG-CC-PVTZ
    Blend: AUG-CC-PVTZ
  Basis Set: (AUG-CC-PVTZ AUX)
    Blend: AUG-CC-PVTZ-JKFIT
	 Reference Energy          =    -133.0611540084060778 [Eh]
	 Singles Energy            =      -0.0000000000000000 [Eh]
	 Same-Spin Energy          =      -0.1398464967519497 [Eh]
	 Opposite-Spin Energy      =      -0.4859727258611617 [Eh]
	 Correlation Energy        =      -0.6258192226131114 [Eh]
	 Total Energy              =    -133.6869732310191807 [Eh]

	 ================> DF-SCS-MP2 Energies <==================
	-----------------------------------------------------------
	 SCS Same-Spin Scale       =       0.3333333333333333 [-]
	 SCS Opposite-Spin Scale   =       1.2000000000000000 [-]
	 SCS Same-Spin Energy      =      -0.0466154989173166 [Eh]
	 SCS Opposite-Spin Energy  =      -0.5831672710333941 [Eh]
	 SCS Correlation Energy    =      -0.6297827699507106 [Eh]
	 SCS Total Energy          =    -133.6909367783567859 [Eh]
	-----------------------------------------------------------

  Dipole Moment: [D]
     X:    -1.2070      Y:     1.9912      Z:     0.0000     Total:     2.3284

*** Psi4 exiting successfully. Buy a developer a beer!
