                               Psi4 1.3.2 release

  ==> Input File <==

--------------------------------------------------------------------------
#psi4
#
memory 32 gb

molecule  {
0 1
  N        1.2070330    -0.3594050    -0.0000050
  C       -1.2028230    -0.1434160    -0.0000110
  C       -0.0011813     0.3419577     0.0000141
  H       -1.1533220    -1.2333450    -0.0000600
  H       -1.7556310     0.1970070    -0.8817940
  H       -1.7556310     0.1969280     0.8818020
  H        0.2601390     1.5130950     0.0000410
  H        2.0665750     0.2014680     0.0000070
units angstrom
no_reorient  #important for SAPT in psi4, default
symmetry c1  #important for SAPT in psi4, default
}

set PROPERTIES_ORIGIN ["COM"]
properties('MP2/aug-cc-pvtz', properties = ['dipole'])
--------------------------------------------------------------------------

    Molecular point group: c1
  Charge       = 0
  Multiplicity = 1
  Basis Set: AUG-CC-PVTZ
    Blend: AUG-CC-PVTZ
  Basis Set: (AUG-CC-PVTZ AUX)
    Blend: AUG-CC-PVTZ-JKFIT

    Orbital Energies [Eh]
    ---------------------

    Doubly Occupied:

       1A    -15.555075     2A    -11.304621     3A    -11.229335
       4A     -1.171969     5A     -1.044067     6A     -0.768766
       7A     -0.679693     8A     -0.615033     9A     -0.609292
      10A     -0.534671    11A     -0.402394    12A     -0.383163

  @DF-RHF Final Energy:  -133.05956946677711

   => Energetics <=

    Nuclear Repulsion Energy =             71.2755624127057246
    One-Electron Energy =                -320.0741061244531807
    Two-Electron Energy =                 115.7389742449703505
    Total Energy =                       -133.0595694667771340
  Basis Set: (AUG-CC-PVTZ AUX)
    Blend: AUG-CC-PVTZ-RI
    Molecular point group: c1

    Geometry (in Angstrom), charge = 0, multiplicity = 1:

       Center              X                  Y                   Z               Mass
    ------------   -----------------  -----------------  -----------------  -----------------
         N            1.204757165619    -0.318322682033    -0.000004143941    14.003074004430
         C           -1.205098834381    -0.102333682033    -0.000010143941    12.000000000000
         C           -0.003457134381     0.383040017967     0.000014956059    12.000000000000
         H           -1.155597834381    -1.192262682033    -0.000059143941     1.007825032230
         H           -1.757906834381     0.238089317967    -0.881793143941     1.007825032230
         H           -1.757906834381     0.238010317967     0.881802856059     1.007825032230
         H            0.257863165619     1.554177317967     0.000041856059     1.007825032230
         H            2.064299165619     0.242550317967     0.000007856059     1.007825032230

  Basis Set: AUG-CC-PVTZ
    Blend: AUG-CC-PVTZ
  Basis Set: (AUG-CC-PVTZ AUX)
    Blend: AUG-CC-PVTZ-JKFIT
	 Reference Energy          =    -133.0595694667771056 [Eh]
	 Singles Energy            =      -0.0000000000000000 [Eh]
	 Same-Spin Energy          =      -0.1392524192623547 [Eh]
	 Opposite-Spin Energy      =      -0.4816026831015128 [Eh]
	 Correlation Energy        =      -0.6208551023638675 [Eh]
	 Total Energy              =    -133.6804245691409676 [Eh]

	 ================> DF-SCS-MP2 Energies <==================
	-----------------------------------------------------------
	 SCS Same-Spin Scale       =       0.3333333333333333 [-]
	 SCS Opposite-Spin Scale   =       1.2000000000000000 [-]
	 SCS Same-Spin Energy      =      -0.0464174730874516 [Eh]
	 SCS Opposite-Spin Energy  =      -0.5779232197218154 [Eh]
	 SCS Correlation Energy    =      -0.6243406928092670 [Eh]
	 SCS Total Energy          =    -133.6839101595863610 [Eh]
	-----------------------------------------------------------

  Dipole Moment: [D]
     X:    -1.5029      Y:     1.7814      Z:     0.0000     Total:     2.3307

*** Psi4 exiting successfully. Buy a developer a beer!
