                               Psi4 1.3.2 release

  ==> Input File <==

--------------------------------------------------------------------------
#psi4
#
memory 32 gb

molecule  {
0 1
  N        1.2070330    -0.3594050    -0.0000050
  C       -1.2028230    -0.1434160    -0.0000110
  C        0.1418000     0.5122563     0.0000222
  H       -1.1533220    -1.2333450    -0.0000600
  H       -1.7556310     0.1970070    -0.8817940
  H       -1.7556310     0.1969280     0.8818020
  H        0.2601390     1.5130950     0.0000410
  H        2.0665750     0.2014680     0.0000070
units angstrom
no_reorient  #important for SAPT in psi4, default
symmetry c1  #important for SAPT in psi4, default
}

set PROPERTIES_ORIGIN ["COM"]
properties('MP2/aug-cc-pvtz', properties = ['dipole'])
--------------------------------------------------------------------------

    Molecular point group: c1
  Charge       = 0
  Multiplicity = 1
  Basis Set: AUG-CC-PVTZ
    Blend: AUG-CC-PVTZ
  Basis Set: (AUG-CC-PVTZ AUX)
    Blend: AUG-CC-PVTZ-JKFIT

    Orbital Energies [Eh]
    ---------------------

    Doubly Occupied:

       1A    -15.563508     2A    -11.295131     3A    -11.231841
       4A     -1.170170     5A     -0.992663     6A     -0.808254
       7A     -0.681504     8A     -0.581985     9A     -0.567356
      10A     -0.531839    11A     -0.439106    12A     -0.398773

  @DF-RHF Final Energy:  -133.10370860703802

   => Energetics <=

    Nuclear Repulsion Energy =             69.7593570698182361
    One-Electron Energy =                -317.2018725131857195
    Two-Electron Energy =                 114.3388068363294678
    Total Energy =                       -133.1037086070380155
  Basis Set: (AUG-CC-PVTZ AUX)
    Blend: AUG-CC-PVTZ-RI
    Molecular point group: c1

    Geometry (in Angstrom), charge = 0, multiplicity = 1:

       Center              X                  Y                   Z               Mass
    ------------   -----------------  -----------------  -----------------  -----------------
         N            1.164894527713    -0.365801278378    -0.000006402190    14.003074004430
         C           -1.244961472287    -0.149812278378    -0.000012402190    12.000000000000
         C            0.099661527713     0.505860021622     0.000020797810    12.000000000000
         H           -1.195460472287    -1.239741278378    -0.000061402190     1.007825032230
         H           -1.797769472287     0.190610721622    -0.881795402190     1.007825032230
         H           -1.797769472287     0.190531721622     0.881800597810     1.007825032230
         H            0.218000527713     1.506698721622     0.000039597810     1.007825032230
         H            2.024436527713     0.195071721622     0.000005597810     1.007825032230

  Basis Set: AUG-CC-PVTZ
    Blend: AUG-CC-PVTZ
  Basis Set: (AUG-CC-PVTZ AUX)
    Blend: AUG-CC-PVTZ-JKFIT
	 Reference Energy          =    -133.1037086070380155 [Eh]
	 Singles Energy            =      -0.0000000000000000 [Eh]
	 Same-Spin Energy          =      -0.1359905010902582 [Eh]
	 Opposite-Spin Energy      =      -0.4786119379411550 [Eh]
	 Correlation Energy        =      -0.6146024390314132 [Eh]
	 Total Energy              =    -133.7183110460694309 [Eh]

	 ================> DF-SCS-MP2 Energies <==================
	-----------------------------------------------------------
	 SCS Same-Spin Scale       =       0.3333333333333333 [-]
	 SCS Opposite-Spin Scale   =       1.2000000000000000 [-]
	 SCS Same-Spin Energy      =      -0.0453301670300861 [Eh]
	 SCS Opposite-Spin Energy  =      -0.5743343255293859 [Eh]
	 SCS Correlation Energy    =      -0.6196644925594720 [Eh]
	 SCS Total Energy          =    -133.7233730995974952 [Eh]
	-----------------------------------------------------------

  Dipole Moment: [D]
     X:    -0.9185      Y:     2.0308      Z:     0.0000     Total:     2.2288

*** Psi4 exiting successfully. Buy a developer a beer!
