                               Psi4 1.3.2 release

  ==> Input File <==

--------------------------------------------------------------------------
#psi4
#
memory 32 gb

molecule  {
0 1
  N        1.2070330    -0.3594050    -0.0000050
  C       -1.2028230    -0.1434160    -0.0000110
  C        0.1638636     0.4649303     0.0000201
  H       -1.1533220    -1.2333450    -0.0000600
  H       -1.7556310     0.1970070    -0.8817940
  H       -1.7556310     0.1969280     0.8818020
  H        0.2601390     1.5130950     0.0000410
  H        2.0665750     0.2014680     0.0000070
units angstrom
no_reorient  #important for SAPT in psi4, default
symmetry c1  #important for SAPT in psi4, default
}

set PROPERTIES_ORIGIN ["COM"]
properties('MP2/aug-cc-pvtz', properties = ['dipole'])
--------------------------------------------------------------------------

    Molecular point group: c1
  Charge       = 0
  Multiplicity = 1
  Basis Set: AUG-CC-PVTZ
    Blend: AUG-CC-PVTZ
  Basis Set: (AUG-CC-PVTZ AUX)
    Blend: AUG-CC-PVTZ-JKFIT

    Orbital Energies [Eh]
    ---------------------

    Doubly Occupied:

       1A    -15.558966     2A    -11.291703     3A    -11.229863
       4A     -1.186080     5A     -0.992611     6A     -0.792265
       7A     -0.686606     8A     -0.581688     9A     -0.562378
      10A     -0.541228    11A     -0.432855    12A     -0.411497

  @DF-RHF Final Energy:  -133.11926463806054

   => Energetics <=

    Nuclear Repulsion Energy =             70.2166117353025925
    One-Electron Energy =                -318.1362709679961540
    Two-Electron Energy =                 114.8003945946330191
    Total Energy =                       -133.1192646380605424
  Basis Set: (AUG-CC-PVTZ AUX)
    Blend: AUG-CC-PVTZ-RI
    Molecular point group: c1

    Geometry (in Angstrom), charge = 0, multiplicity = 1:

       Center              X                  Y                   Z               Mass
    ------------   -----------------  -----------------  -----------------  -----------------
         N            1.158743280678    -0.352606971140    -0.000005816718    14.003074004430
         C           -1.251112719322    -0.136617971140    -0.000011816718    12.000000000000
         C            0.115573880678     0.471728328860     0.000019283282    12.000000000000
         H           -1.201611719322    -1.226546971140    -0.000060816718     1.007825032230
         H           -1.803920719322     0.203805028860    -0.881794816718     1.007825032230
         H           -1.803920719322     0.203726028860     0.881801183282     1.007825032230
         H            0.211849280678     1.519893028860     0.000040183282     1.007825032230
         H            2.018285280678     0.208266028860     0.000006183282     1.007825032230

  Basis Set: AUG-CC-PVTZ
    Blend: AUG-CC-PVTZ
  Basis Set: (AUG-CC-PVTZ AUX)
    Blend: AUG-CC-PVTZ-JKFIT
	 Reference Energy          =    -133.1192646380605424 [Eh]
	 Singles Energy            =      -0.0000000000000000 [Eh]
	 Same-Spin Energy          =      -0.1349501537078204 [Eh]
	 Opposite-Spin Energy      =      -0.4756715374930240 [Eh]
	 Correlation Energy        =      -0.6106216912008444 [Eh]
	 Total Energy              =    -133.7298863292613760 [Eh]

	 ================> DF-SCS-MP2 Energies <==================
	-----------------------------------------------------------
	 SCS Same-Spin Scale       =       0.3333333333333333 [-]
	 SCS Opposite-Spin Scale   =       1.2000000000000000 [-]
	 SCS Same-Spin Energy      =      -0.0449833845692735 [Eh]
	 SCS Opposite-Spin Energy  =      -0.5708058449916288 [Eh]
	 SCS Correlation Energy    =      -0.6157892295609022 [Eh]
	 SCS Total Energy          =    -133.7350538676214455 [Eh]
	-----------------------------------------------------------

  Dipole Moment: [D]
     X:    -0.8749      Y:     1.9948      Z:     0.0000     Total:     2.1782

*** Psi4 exiting successfully. Buy a developer a beer!
