                               Psi4 1.4a3.dev225

  ==> Input File <==

--------------------------------------------------------------------------
#psi4
#
memory 32 gb

molecule  {
0 1
  N       -1.2071110    -0.3593690     0.0000070
  C        1.2028970    -0.1434370     0.0000120
  C       -0.1443329     0.4471263    -0.0000252
  H        1.1529110    -1.2333140     0.0000580
  H        1.7556810     0.1968570     0.8818310
  H        1.7556900     0.1967810    -0.8818300
  H       -0.2601790     1.5130940    -0.0000440
  H       -2.0667260     0.2013840     0.0000030
units angstrom
no_reorient  #important for SAPT in psi4, default
symmetry c1  #important for SAPT in psi4, default
}

set PROPERTIES_ORIGIN ["COM"]
properties('MP2/aug-cc-pvtz', properties = ['dipole'])
--------------------------------------------------------------------------

    Molecular point group: c1
  Charge       = 0
  Multiplicity = 1
  Basis Set: AUG-CC-PVTZ
    Blend: AUG-CC-PVTZ
  Basis Set: (AUG-CC-PVTZ AUX)
    Blend: AUG-CC-PVTZ-JKFIT

    Orbital Energies [Eh]
    ---------------------

    Doubly Occupied:

       1A    -15.558098     2A    -11.292738     3A    -11.229838
       4A     -1.184032     5A     -0.998779     6A     -0.787327
       7A     -0.685502     8A     -0.585117     9A     -0.567556
      10A     -0.542283    11A     -0.430111    12A     -0.408905

  @DF-RHF Final Energy:  -133.11915318239221

   => Energetics <=

    Nuclear Repulsion Energy =             70.3512870885311372
    One-Electron Energy =                -318.4003077301658209
    Two-Electron Energy =                 114.9298674592424732
    Total Energy =                       -133.1191531823922105
  Basis Set: (AUG-CC-PVTZ AUX)
    Blend: AUG-CC-PVTZ-RI
    Molecular point group: c1

    Geometry (in Angstrom), charge = 0, multiplicity = 1:

       Center              X                  Y                   Z               Mass
    ------------   -----------------  -----------------  -----------------  -----------------
         N           -1.164250076303    -0.347604922934     0.000007981307    14.003074004430
         C            1.245757923697    -0.131672922934     0.000012981307    12.000000000000
         C           -0.101471976303     0.458890377066    -0.000024218693    12.000000000000
         H            1.195771923697    -1.221549922934     0.000058981307     1.007825032230
         H            1.798541923697     0.208621077066     0.881831981307     1.007825032230
         H            1.798550923697     0.208545077066    -0.881829018693     1.007825032230
         H           -0.217318076303     1.524858077066    -0.000043018693     1.007825032230
         H           -2.023865076303     0.213148077066     0.000003981307     1.007825032230

  Basis Set: AUG-CC-PVTZ
    Blend: AUG-CC-PVTZ
  Basis Set: (AUG-CC-PVTZ AUX)
    Blend: AUG-CC-PVTZ-JKFIT
	 Reference Energy          =    -133.1191531823922105 [Eh]
	 Singles Energy            =      -0.0000000000000000 [Eh]
	 Same-Spin Energy          =      -0.1352172764609487 [Eh]
	 Opposite-Spin Energy      =      -0.4758417940955028 [Eh]
	 Correlation Energy        =      -0.6110590705564514 [Eh]
	 Total Energy              =    -133.7302122529486610 [Eh]

	 ================> DF-SCS-MP2 Energies <==================
	-----------------------------------------------------------
	 SCS Same-Spin Scale       =       0.3333333333333333 [-]
	 SCS Opposite-Spin Scale   =       1.2000000000000000 [-]
	 SCS Same-Spin Energy      =      -0.0450724254869829 [Eh]
	 SCS Opposite-Spin Energy  =      -0.5710101529146033 [Eh]
	 SCS Correlation Energy    =      -0.6160825784015862 [Eh]
	 SCS Total Energy          =    -133.7352357607937847 [Eh]
	-----------------------------------------------------------

  Dipole Moment: [D]
     X:     0.9467      Y:     1.9701      Z:    -0.0000     Total:     2.1858

*** Psi4 exiting successfully. Buy a developer a beer!
