                               Psi4 1.3.2 release

  ==> Input File <==

--------------------------------------------------------------------------
#psi4
#
memory 32 gb

molecule  {
0 1
  N        1.2070330    -0.3594050    -0.0000050
  C       -1.1928335    -0.1675386    -0.0000114
  C        0.1842620     0.4168630     0.0000180
  H       -1.1533220    -1.2333450    -0.0000600
  H       -1.7556310     0.1970070    -0.8817940
  H       -1.7556310     0.1969280     0.8818020
  H        0.2601390     1.5130950     0.0000410
  H        2.0665750     0.2014680     0.0000070
units angstrom
no_reorient  #important for SAPT in psi4, default
symmetry c1  #important for SAPT in psi4, default
}

set PROPERTIES_ORIGIN ["COM"]
properties('MP2/aug-cc-pvtz', properties = ['dipole'])
--------------------------------------------------------------------------

    Molecular point group: c1
  Charge       = 0
  Multiplicity = 1
  Basis Set: AUG-CC-PVTZ
    Blend: AUG-CC-PVTZ
  Basis Set: (AUG-CC-PVTZ AUX)
    Blend: AUG-CC-PVTZ-JKFIT

    Orbital Energies [Eh]
    ---------------------

    Doubly Occupied:

       1A    -15.553634     2A    -11.288459     3A    -11.228671
       4A     -1.203747     5A     -0.992052     6A     -0.778930
       7A     -0.691344     8A     -0.575488     9A     -0.565343
      10A     -0.550019    11A     -0.424983    12A     -0.423567

  @DF-RHF Final Energy:  -133.12606045248447

   => Energetics <=

    Nuclear Repulsion Energy =             70.7454308778506658
    One-Electron Energy =                -319.1905078613598903
    Two-Electron Energy =                 115.3190165310247721
    Total Energy =                       -133.1260604524844666
  Basis Set: (AUG-CC-PVTZ AUX)
    Blend: AUG-CC-PVTZ-RI
    Molecular point group: c1

    Geometry (in Angstrom), charge = 0, multiplicity = 1:

       Center              X                  Y                   Z               Mass
    ------------   -----------------  -----------------  -----------------  -----------------
         N            1.150271250739    -0.332480703970    -0.000005119727    14.003074004430
         C           -1.249595249261    -0.140614303970    -0.000011519727    12.000000000000
         C            0.127500250739     0.443787296030     0.000017880273    12.000000000000
         H           -1.210083749261    -1.206420703970    -0.000060119727     1.007825032230
         H           -1.812392749261     0.223931296030    -0.881794119727     1.007825032230
         H           -1.812392749261     0.223852296030     0.881801880273     1.007825032230
         H            0.203377250739     1.540019296030     0.000040880273     1.007825032230
         H            2.009813250739     0.228392296030     0.000006880273     1.007825032230

  Basis Set: AUG-CC-PVTZ
    Blend: AUG-CC-PVTZ
  Basis Set: (AUG-CC-PVTZ AUX)
    Blend: AUG-CC-PVTZ-JKFIT
	 Reference Energy          =    -133.1260604524844666 [Eh]
	 Singles Energy            =      -0.0000000000000000 [Eh]
	 Same-Spin Energy          =      -0.1341509625988859 [Eh]
	 Opposite-Spin Energy      =      -0.4732359382294588 [Eh]
	 Correlation Energy        =      -0.6073869008283446 [Eh]
	 Total Energy              =    -133.7334473533128119 [Eh]

	 ================> DF-SCS-MP2 Energies <==================
	-----------------------------------------------------------
	 SCS Same-Spin Scale       =       0.3333333333333333 [-]
	 SCS Opposite-Spin Scale   =       1.2000000000000000 [-]
	 SCS Same-Spin Energy      =      -0.0447169875329620 [Eh]
	 SCS Opposite-Spin Energy  =      -0.5678831258753505 [Eh]
	 SCS Correlation Energy    =      -0.6126001134083124 [Eh]
	 SCS Total Energy          =    -133.7386605658927863 [Eh]
	-----------------------------------------------------------

  Dipole Moment: [D]
     X:    -0.8217      Y:     1.9241      Z:     0.0000     Total:     2.0922

*** Psi4 exiting successfully. Buy a developer a beer!
