                               Psi4 1.3.2 release

  ==> Input File <==

--------------------------------------------------------------------------
#psi4
#
memory 32 gb

molecule  {
0 1
  N        1.2070330    -0.3594050    -0.0000050
  C       -1.2028230    -0.1434160    -0.0000110
  C        0.2769836     0.4543156     0.0000199
  H       -1.1533220    -1.2333450    -0.0000600
  H       -1.7556310     0.1970070    -0.8817940
  H       -1.7556310     0.1969280     0.8818020
  H        0.2601390     1.5130950     0.0000410
  H        2.0665750     0.2014680     0.0000070
units angstrom
no_reorient  #important for SAPT in psi4, default
symmetry c1  #important for SAPT in psi4, default
}

set PROPERTIES_ORIGIN ["COM"]
properties('MP2/aug-cc-pvtz', properties = ['dipole'])
--------------------------------------------------------------------------

    Molecular point group: c1
  Charge       = 0
  Multiplicity = 1
  Basis Set: AUG-CC-PVTZ
    Blend: AUG-CC-PVTZ
  Basis Set: (AUG-CC-PVTZ AUX)
    Blend: AUG-CC-PVTZ-JKFIT

    Orbital Energies [Eh]
    ---------------------

    Doubly Occupied:

       1A    -15.554094     2A    -11.283658     3A    -11.225576
       4A     -1.228654     5A     -0.969338     6A     -0.785472
       7A     -0.701048     8A     -0.569827     9A     -0.550039
      10A     -0.542462    11A     -0.445654    12A     -0.420594

  @DF-RHF Final Energy:  -133.11876000736237

   => Energetics <=

    Nuclear Repulsion Energy =             70.5956527504900038
    One-Electron Energy =                -318.8759895080254410
    Two-Electron Energy =                 115.1615767501730971
    Total Energy =                       -133.1187600073623685
  Basis Set: (AUG-CC-PVTZ AUX)
    Blend: AUG-CC-PVTZ-RI
    Molecular point group: c1

    Geometry (in Angstrom), charge = 0, multiplicity = 1:

       Center              X                  Y                   Z               Mass
    ------------   -----------------  -----------------  -----------------  -----------------
         N            1.127205858653    -0.349647633502    -0.000005760959    14.003074004430
         C           -1.282650141347    -0.133658633502    -0.000011760959    12.000000000000
         C            0.197156458653     0.464072966498     0.000019139041    12.000000000000
         H           -1.233149141347    -1.223587633502    -0.000060760959     1.007825032230
         H           -1.835458141347     0.206764366498    -0.881794760959     1.007825032230
         H           -1.835458141347     0.206685366498     0.881801239041     1.007825032230
         H            0.180311858653     1.522852366498     0.000040239041     1.007825032230
         H            1.986747858653     0.211225366498     0.000006239041     1.007825032230

  Basis Set: AUG-CC-PVTZ
    Blend: AUG-CC-PVTZ
  Basis Set: (AUG-CC-PVTZ AUX)
    Blend: AUG-CC-PVTZ-JKFIT
	 Reference Energy          =    -133.1187600073623685 [Eh]
	 Singles Energy            =      -0.0000000000000000 [Eh]
	 Same-Spin Energy          =      -0.1331304441014709 [Eh]
	 Opposite-Spin Energy      =      -0.4717307332903105 [Eh]
	 Correlation Energy        =      -0.6048611773917814 [Eh]
	 Total Energy              =    -133.7236211847541369 [Eh]

	 ================> DF-SCS-MP2 Energies <==================
	-----------------------------------------------------------
	 SCS Same-Spin Scale       =       0.3333333333333333 [-]
	 SCS Opposite-Spin Scale   =       1.2000000000000000 [-]
	 SCS Same-Spin Energy      =      -0.0443768147004903 [Eh]
	 SCS Opposite-Spin Energy  =      -0.5660768799483725 [Eh]
	 SCS Correlation Energy    =      -0.6104536946488628 [Eh]
	 SCS Total Energy          =    -133.7292137020112364 [Eh]
	-----------------------------------------------------------

  Dipole Moment: [D]
     X:    -0.4627      Y:     1.9927      Z:     0.0000     Total:     2.0457

*** Psi4 exiting successfully. Buy a developer a beer!
