                               Psi4 1.3.2 release

  ==> Input File <==

--------------------------------------------------------------------------
#psi4
#
memory 32 gb

molecule  {
0 1
  N        1.2070330    -0.3594050    -0.0000050
  C       -1.2123900    -0.1191227    -0.0000106
  C        0.1842620     0.4168630     0.0000180
  H       -1.1533220    -1.2333450    -0.0000600
  H       -1.7556310     0.1970070    -0.8817940
  H       -1.7556310     0.1969280     0.8818020
  H        0.2601390     1.5130950     0.0000410
  H        2.0665750     0.2014680     0.0000070
units angstrom
no_reorient  #important for SAPT in psi4, default
symmetry c1  #important for SAPT in psi4, default
}

set PROPERTIES_ORIGIN ["COM"]
properties('MP2/aug-cc-pvtz', properties = ['dipole'])
--------------------------------------------------------------------------

    Molecular point group: c1
  Charge       = 0
  Multiplicity = 1
  Basis Set: AUG-CC-PVTZ
    Blend: AUG-CC-PVTZ
  Basis Set: (AUG-CC-PVTZ AUX)
    Blend: AUG-CC-PVTZ-JKFIT

    Orbital Energies [Eh]
    ---------------------

    Doubly Occupied:

       1A    -15.555019     2A    -11.288759     3A    -11.228429
       4A     -1.203605     5A     -0.993618     6A     -0.778103
       7A     -0.690697     8A     -0.588375     9A     -0.565861
      10A     -0.536200    11A     -0.426371    12A     -0.424331

  @DF-RHF Final Energy:  -133.12589900447148

   => Energetics <=

    Nuclear Repulsion Energy =             70.6665116525094561
    One-Electron Energy =                -319.0260865109947304
    Two-Electron Energy =                 115.2336758540137964
    Total Energy =                       -133.1258990044714778
  Basis Set: (AUG-CC-PVTZ AUX)
    Blend: AUG-CC-PVTZ-RI
    Molecular point group: c1

    Geometry (in Angstrom), charge = 0, multiplicity = 1:

       Center              X                  Y                   Z               Mass
    ------------   -----------------  -----------------  -----------------  -----------------
         N            1.155723527912    -0.345978871147    -0.000005342764    14.003074004430
         C           -1.263699472088    -0.105696571147    -0.000010942764    12.000000000000
         C            0.132952527912     0.430289128853     0.000017657236    12.000000000000
         H           -1.204631472088    -1.219918871147    -0.000060342764     1.007825032230
         H           -1.806940472088     0.210433128853    -0.881794342764     1.007825032230
         H           -1.806940472088     0.210354128853     0.881801657236     1.007825032230
         H            0.208829527912     1.526521128853     0.000040657236     1.007825032230
         H            2.015265527912     0.214894128853     0.000006657236     1.007825032230

  Basis Set: AUG-CC-PVTZ
    Blend: AUG-CC-PVTZ
  Basis Set: (AUG-CC-PVTZ AUX)
    Blend: AUG-CC-PVTZ-JKFIT
	 Reference Energy          =    -133.1258990044714778 [Eh]
	 Singles Energy            =      -0.0000000000000000 [Eh]
	 Same-Spin Energy          =      -0.1341497781882595 [Eh]
	 Opposite-Spin Energy      =      -0.4733130555562158 [Eh]
	 Correlation Energy        =      -0.6074628337444753 [Eh]
	 Total Energy              =    -133.7333618382159557 [Eh]

	 ================> DF-SCS-MP2 Energies <==================
	-----------------------------------------------------------
	 SCS Same-Spin Scale       =       0.3333333333333333 [-]
	 SCS Opposite-Spin Scale   =       1.2000000000000000 [-]
	 SCS Same-Spin Energy      =      -0.0447165927294198 [Eh]
	 SCS Opposite-Spin Energy  =      -0.5679756666674590 [Eh]
	 SCS Correlation Energy    =      -0.6126922593968789 [Eh]
	 SCS Total Energy          =    -133.7385912638683578 [Eh]
	-----------------------------------------------------------

  Dipole Moment: [D]
     X:    -0.8120      Y:     1.9269      Z:     0.0000     Total:     2.0909

*** Psi4 exiting successfully. Buy a developer a beer!
