                               Psi4 1.4a3.dev225

  ==> Input File <==

--------------------------------------------------------------------------
#psi4
#
memory 32 gb

molecule  {
0 1
  N       -1.2071110    -0.3593690     0.0000070
  C        1.2028970    -0.1434370     0.0000120
  C       -0.2000950     0.4048109    -0.0000235
  H        1.1529110    -1.2333140     0.0000580
  H        1.7556810     0.1968570     0.8818310
  H        1.7556900     0.1967810    -0.8818300
  H       -0.2601790     1.5130940    -0.0000440
  H       -2.0667260     0.2013840     0.0000030
units angstrom
no_reorient  #important for SAPT in psi4, default
symmetry c1  #important for SAPT in psi4, default
}

set PROPERTIES_ORIGIN ["COM"]
properties('MP2/aug-cc-pvtz', properties = ['dipole'])
--------------------------------------------------------------------------

    Molecular point group: c1
  Charge       = 0
  Multiplicity = 1
  Basis Set: AUG-CC-PVTZ
    Blend: AUG-CC-PVTZ
  Basis Set: (AUG-CC-PVTZ AUX)
    Blend: AUG-CC-PVTZ-JKFIT

    Orbital Energies [Eh]
    ---------------------

    Doubly Occupied:

       1A    -15.552682     2A    -11.286938     3A    -11.227886
       4A     -1.212226     5A     -0.990246     6A     -0.774907
       7A     -0.693306     8A     -0.580767     9A     -0.564991
      10A     -0.543748    11A     -0.431766    12A     -0.421709

  @DF-RHF Final Energy:  -133.12759591349499

   => Energetics <=

    Nuclear Repulsion Energy =             70.8569507907929363
    One-Electron Energy =                -319.4067465233948724
    Two-Electron Energy =                 115.4221998191069503
    Total Energy =                       -133.1275959134949858
  Basis Set: (AUG-CC-PVTZ AUX)
    Blend: AUG-CC-PVTZ-RI
    Molecular point group: c1

    Geometry (in Angstrom), charge = 0, multiplicity = 1:

       Center              X                  Y                   Z               Mass
    ------------   -----------------  -----------------  -----------------  -----------------
         N           -1.148703816749    -0.335807551754     0.000007507354    14.003074004430
         C            1.261304183251    -0.119875551754     0.000012507354    12.000000000000
         C           -0.141687816749     0.428372348246    -0.000022992646    12.000000000000
         H            1.211318183251    -1.209752551754     0.000058507354     1.007825032230
         H            1.814088183251     0.220418448246     0.881831507354     1.007825032230
         H            1.814097183251     0.220342448246    -0.881829492646     1.007825032230
         H           -0.201771816749     1.536655448246    -0.000043492646     1.007825032230
         H           -2.008318816749     0.224945448246     0.000003507354     1.007825032230

  Basis Set: AUG-CC-PVTZ
    Blend: AUG-CC-PVTZ
  Basis Set: (AUG-CC-PVTZ AUX)
    Blend: AUG-CC-PVTZ-JKFIT
	 Reference Energy          =    -133.1275959134949858 [Eh]
	 Singles Energy            =      -0.0000000000000000 [Eh]
	 Same-Spin Energy          =      -0.1337765578312335 [Eh]
	 Opposite-Spin Energy      =      -0.4723176604730982 [Eh]
	 Correlation Energy        =      -0.6060942183043317 [Eh]
	 Total Energy              =    -133.7336901317993068 [Eh]

	 ================> DF-SCS-MP2 Energies <==================
	-----------------------------------------------------------
	 SCS Same-Spin Scale       =       0.3333333333333333 [-]
	 SCS Opposite-Spin Scale   =       1.2000000000000000 [-]
	 SCS Same-Spin Energy      =      -0.0445921859437445 [Eh]
	 SCS Opposite-Spin Energy  =      -0.5667811925677179 [Eh]
	 SCS Correlation Energy    =      -0.6113733785114623 [Eh]
	 SCS Total Energy          =    -133.7389692920064590 [Eh]
	-----------------------------------------------------------

  Dipole Moment: [D]
     X:     0.7600      Y:     1.9008      Z:    -0.0000     Total:     2.0471

*** Psi4 exiting successfully. Buy a developer a beer!
