                               Psi4 1.3.2 release

  ==> Input File <==

--------------------------------------------------------------------------
#psi4
#
memory 32 gb

molecule  {
0 1
  N        1.2070330    -0.3594050    -0.0000050
  C       -1.2028230    -0.1434160    -0.0000110
  C        0.1180983     0.5587836     0.0000242
  H       -1.1533220    -1.2333450    -0.0000600
  H       -1.7556310     0.1970070    -0.8817940
  H       -1.7556310     0.1969280     0.8818020
  H        0.2601390     1.5130950     0.0000410
  H        2.0665750     0.2014680     0.0000070
units angstrom
no_reorient  #important for SAPT in psi4, default
symmetry c1  #important for SAPT in psi4, default
}

set PROPERTIES_ORIGIN ["COM"]
properties('MP2/aug-cc-pvtz', properties = ['dipole'])
--------------------------------------------------------------------------

    Molecular point group: c1
  Charge       = 0
  Multiplicity = 1
  Basis Set: AUG-CC-PVTZ
    Blend: AUG-CC-PVTZ
  Basis Set: (AUG-CC-PVTZ AUX)
    Blend: AUG-CC-PVTZ-JKFIT

    Orbital Energies [Eh]
    ---------------------

    Doubly Occupied:

       1A    -15.567740     2A    -11.298783     3A    -11.234338
       4A     -1.156080     5A     -0.992851     6A     -0.825462
       7A     -0.676320     8A     -0.582720     9A     -0.574736
      10A     -0.520498    11A     -0.443548    12A     -0.386852

  @DF-RHF Final Energy:  -133.08035404451357

   => Energetics <=

    Nuclear Repulsion Energy =             69.3340959205647209
    One-Electron Energy =                -316.3090414036708466
    Two-Electron Energy =                 113.8945914385925562
    Total Energy =                       -133.0803540445135695
  Basis Set: (AUG-CC-PVTZ AUX)
    Blend: AUG-CC-PVTZ-RI
    Molecular point group: c1

    Geometry (in Angstrom), charge = 0, multiplicity = 1:

       Center              X                  Y                   Z               Mass
    ------------   -----------------  -----------------  -----------------  -----------------
         N            1.171502470744    -0.378772911120    -0.000006959782    14.003074004430
         C           -1.238353529256    -0.162783911120    -0.000012959782    12.000000000000
         C            0.082567770744     0.539415688880     0.000022240218    12.000000000000
         H           -1.188852529256    -1.252712911120    -0.000061959782     1.007825032230
         H           -1.791161529256     0.177639088880    -0.881795959782     1.007825032230
         H           -1.791161529256     0.177560088880     0.881800040218     1.007825032230
         H            0.224608470744     1.493727088880     0.000039040218     1.007825032230
         H            2.031044470744     0.182100088880     0.000005040218     1.007825032230

  Basis Set: AUG-CC-PVTZ
    Blend: AUG-CC-PVTZ
  Basis Set: (AUG-CC-PVTZ AUX)
    Blend: AUG-CC-PVTZ-JKFIT
	 Reference Energy          =    -133.0803540445135695 [Eh]
	 Singles Energy            =      -0.0000000000000000 [Eh]
	 Same-Spin Energy          =      -0.1372624224806635 [Eh]
	 Opposite-Spin Energy      =      -0.4820606588039903 [Eh]
	 Correlation Energy        =      -0.6193230812846539 [Eh]
	 Total Energy              =    -133.6996771257982175 [Eh]

	 ================> DF-SCS-MP2 Energies <==================
	-----------------------------------------------------------
	 SCS Same-Spin Scale       =       0.3333333333333333 [-]
	 SCS Opposite-Spin Scale   =       1.2000000000000000 [-]
	 SCS Same-Spin Energy      =      -0.0457541408268878 [Eh]
	 SCS Opposite-Spin Energy  =      -0.5784727905647883 [Eh]
	 SCS Correlation Energy    =      -0.6242269313916762 [Eh]
	 SCS Total Energy          =    -133.7045809759052588 [Eh]
	-----------------------------------------------------------

  Dipole Moment: [D]
     X:    -0.9475      Y:     2.0370      Z:     0.0000     Total:     2.2466

*** Psi4 exiting successfully. Buy a developer a beer!
