                               Psi4 1.4a3.dev225

  ==> Input File <==

--------------------------------------------------------------------------
#psi4
#
memory 32 gb

molecule  {
0 1
  N       -1.2071110    -0.3593690     0.0000070
  C        1.2028970    -0.1434370     0.0000120
  C       -0.1656190     0.4094097    -0.0000235
  H        1.1529110    -1.2333140     0.0000580
  H        1.7556810     0.1968570     0.8818310
  H        1.7556900     0.1967810    -0.8818300
  H       -0.2601790     1.5130940    -0.0000440
  H       -2.0667260     0.2013840     0.0000030
units angstrom
no_reorient  #important for SAPT in psi4, default
symmetry c1  #important for SAPT in psi4, default
}

set PROPERTIES_ORIGIN ["COM"]
properties('MP2/aug-cc-pvtz', properties = ['dipole'])
--------------------------------------------------------------------------

    Molecular point group: c1
  Charge       = 0
  Multiplicity = 1
  Basis Set: AUG-CC-PVTZ
    Blend: AUG-CC-PVTZ
  Basis Set: (AUG-CC-PVTZ AUX)
    Blend: AUG-CC-PVTZ-JKFIT

    Orbital Energies [Eh]
    ---------------------

    Doubly Occupied:

       1A    -15.554494     2A    -11.289927     3A    -11.228744
       4A     -1.198982     5A     -0.997919     6A     -0.777188
       7A     -0.689089     8A     -0.584601     9A     -0.568634
      10A     -0.544178    11A     -0.423902    12A     -0.420828

  @DF-RHF Final Energy:  -133.12541289111590

   => Energetics <=

    Nuclear Repulsion Energy =             70.7351138725156687
    One-Electron Energy =                -319.1640817147893472
    Two-Electron Energy =                 115.3035549511577642
    Total Energy =                       -133.1254128911159000
  Basis Set: (AUG-CC-PVTZ AUX)
    Blend: AUG-CC-PVTZ-RI
    Molecular point group: c1

    Geometry (in Angstrom), charge = 0, multiplicity = 1:

       Center              X                  Y                   Z               Mass
    ------------   -----------------  -----------------  -----------------  -----------------
         N           -1.158315593285    -0.337089679551     0.000007507354    14.003074004430
         C            1.251692406715    -0.121157679551     0.000012507354    12.000000000000
         C           -0.116823593285     0.431689020449    -0.000022992646    12.000000000000
         H            1.201706406715    -1.211034679551     0.000058507354     1.007825032230
         H            1.804476406715     0.219136320449     0.881831507354     1.007825032230
         H            1.804485406715     0.219060320449    -0.881829492646     1.007825032230
         H           -0.211383593285     1.535373320449    -0.000043492646     1.007825032230
         H           -2.017930593285     0.223663320449     0.000003507354     1.007825032230

  Basis Set: AUG-CC-PVTZ
    Blend: AUG-CC-PVTZ
  Basis Set: (AUG-CC-PVTZ AUX)
    Blend: AUG-CC-PVTZ-JKFIT
	 Reference Energy          =    -133.1254128911159000 [Eh]
	 Singles Energy            =      -0.0000000000000000 [Eh]
	 Same-Spin Energy          =      -0.1344586485926391 [Eh]
	 Opposite-Spin Energy      =      -0.4737503266770222 [Eh]
	 Correlation Energy        =      -0.6082089752696613 [Eh]
	 Total Energy              =    -133.7336218663855618 [Eh]

	 ================> DF-SCS-MP2 Energies <==================
	-----------------------------------------------------------
	 SCS Same-Spin Scale       =       0.3333333333333333 [-]
	 SCS Opposite-Spin Scale   =       1.2000000000000000 [-]
	 SCS Same-Spin Energy      =      -0.0448195495308797 [Eh]
	 SCS Opposite-Spin Energy  =      -0.5685003920124266 [Eh]
	 SCS Correlation Energy    =      -0.6133199415433063 [Eh]
	 SCS Total Energy          =    -133.7387328326591955 [Eh]
	-----------------------------------------------------------

  Dipole Moment: [D]
     X:     0.8855      Y:     1.9116      Z:    -0.0000     Total:     2.1068

*** Psi4 exiting successfully. Buy a developer a beer!
