                               Psi4 1.3.2 release

  ==> Input File <==

--------------------------------------------------------------------------
#psi4
#
memory 32 gb

molecule  {
0 1
  N        1.2070330    -0.3594050    -0.0000050
  C       -1.2215315    -0.0946661    -0.0000103
  C        0.1842620     0.4168630     0.0000180
  H       -1.1533220    -1.2333450    -0.0000600
  H       -1.7556310     0.1970070    -0.8817940
  H       -1.7556310     0.1969280     0.8818020
  H        0.2601390     1.5130950     0.0000410
  H        2.0665750     0.2014680     0.0000070
units angstrom
no_reorient  #important for SAPT in psi4, default
symmetry c1  #important for SAPT in psi4, default
}

set PROPERTIES_ORIGIN ["COM"]
properties('MP2/aug-cc-pvtz', properties = ['dipole'])
--------------------------------------------------------------------------

    Molecular point group: c1
  Charge       = 0
  Multiplicity = 1
  Basis Set: AUG-CC-PVTZ
    Blend: AUG-CC-PVTZ
  Basis Set: (AUG-CC-PVTZ AUX)
    Blend: AUG-CC-PVTZ-JKFIT

    Orbital Energies [Eh]
    ---------------------

    Doubly Occupied:

       1A    -15.555757     2A    -11.289066     3A    -11.228660
       4A     -1.203627     5A     -0.994588     6A     -0.778170
       7A     -0.690316     8A     -0.594888     9A     -0.567905
      10A     -0.527363    11A     -0.427661    12A     -0.423917

  @DF-RHF Final Energy:  -133.12363394542305

   => Energetics <=

    Nuclear Repulsion Energy =             70.6294770830548373
    One-Electron Energy =                -318.9423836593571195
    Two-Electron Energy =                 115.1892726308792305
    Total Energy =                       -133.1236339454230517
  Basis Set: (AUG-CC-PVTZ AUX)
    Blend: AUG-CC-PVTZ-RI
    Molecular point group: c1

    Geometry (in Angstrom), charge = 0, multiplicity = 1:

       Center              X                  Y                   Z               Mass
    ------------   -----------------  -----------------  -----------------  -----------------
         N            1.158272143042    -0.352797277401    -0.000005426403    14.003074004430
         C           -1.270292356958    -0.088058377401    -0.000010726403    12.000000000000
         C            0.135501143042     0.423470722599     0.000017573597    12.000000000000
         H           -1.202082856958    -1.226737277401    -0.000060426403     1.007825032230
         H           -1.804391856958     0.203614722599    -0.881794426403     1.007825032230
         H           -1.804391856958     0.203535722599     0.881801573597     1.007825032230
         H            0.211378143042     1.519702722599     0.000040573597     1.007825032230
         H            2.017814143042     0.208075722599     0.000006573597     1.007825032230

  Basis Set: AUG-CC-PVTZ
    Blend: AUG-CC-PVTZ
  Basis Set: (AUG-CC-PVTZ AUX)
    Blend: AUG-CC-PVTZ-JKFIT
	 Reference Energy          =    -133.1236339454230517 [Eh]
	 Singles Energy            =      -0.0000000000000000 [Eh]
	 Same-Spin Energy          =      -0.1341849340280939 [Eh]
	 Opposite-Spin Energy      =      -0.4734553398047899 [Eh]
	 Correlation Energy        =      -0.6076402738328838 [Eh]
	 Total Energy              =    -133.7312742192559369 [Eh]

	 ================> DF-SCS-MP2 Energies <==================
	-----------------------------------------------------------
	 SCS Same-Spin Scale       =       0.3333333333333333 [-]
	 SCS Opposite-Spin Scale   =       1.2000000000000000 [-]
	 SCS Same-Spin Energy      =      -0.0447283113426980 [Eh]
	 SCS Opposite-Spin Energy  =      -0.5681464077657479 [Eh]
	 SCS Correlation Energy    =      -0.6128747191084458 [Eh]
	 SCS Total Energy          =    -133.7365086645314989 [Eh]
	-----------------------------------------------------------

  Dipole Moment: [D]
     X:    -0.8052      Y:     1.9297      Z:     0.0000     Total:     2.0909

*** Psi4 exiting successfully. Buy a developer a beer!
