                               Psi4 1.3.2 release

  ==> Input File <==

--------------------------------------------------------------------------
#psi4
#
memory 32 gb

molecule  {
0 1
  N        1.2070330    -0.3594050    -0.0000050
  C       -1.2028230    -0.1434160    -0.0000110
  C        0.0915404     0.3794104     0.0000161
  H       -1.1533220    -1.2333450    -0.0000600
  H       -1.7556310     0.1970070    -0.8817940
  H       -1.7556310     0.1969280     0.8818020
  H        0.2601390     1.5130950     0.0000410
  H        2.0665750     0.2014680     0.0000070
units angstrom
no_reorient  #important for SAPT in psi4, default
symmetry c1  #important for SAPT in psi4, default
}

set PROPERTIES_ORIGIN ["COM"]
properties('MP2/aug-cc-pvtz', properties = ['dipole'])
--------------------------------------------------------------------------

    Molecular point group: c1
  Charge       = 0
  Multiplicity = 1
  Basis Set: AUG-CC-PVTZ
    Blend: AUG-CC-PVTZ
  Basis Set: (AUG-CC-PVTZ AUX)
    Blend: AUG-CC-PVTZ-JKFIT

    Orbital Energies [Eh]
    ---------------------

    Doubly Occupied:

       1A    -15.555169     2A    -11.296098     3A    -11.229334
       4A     -1.182880     5A     -1.019382     6A     -0.773060
       7A     -0.682568     8A     -0.596525     9A     -0.586973
      10A     -0.541914    11A     -0.417048    12A     -0.404223

  @DF-RHF Final Energy:  -133.10901438988026

   => Energetics <=

    Nuclear Repulsion Energy =             70.9146288867914336
    One-Electron Energy =                -319.4769361957361866
    Two-Electron Energy =                 115.4532929190644950
    Total Energy =                       -133.1090143898802580
  Basis Set: (AUG-CC-PVTZ AUX)
    Blend: AUG-CC-PVTZ-RI
    Molecular point group: c1

    Geometry (in Angstrom), charge = 0, multiplicity = 1:

       Center              X                  Y                   Z               Mass
    ------------   -----------------  -----------------  -----------------  -----------------
         N            1.178906711377    -0.328764351109    -0.000004701533    14.003074004430
         C           -1.230949288623    -0.112775351109    -0.000010701533    12.000000000000
         C            0.063414111377     0.410051048891     0.000016398467    12.000000000000
         H           -1.181448288623    -1.202704351109    -0.000059701533     1.007825032230
         H           -1.783757288623     0.227647648891    -0.881793701533     1.007825032230
         H           -1.783757288623     0.227568648891     0.881802298467     1.007825032230
         H            0.232012711377     1.543735648891     0.000041298467     1.007825032230
         H            2.038448711377     0.232108648891     0.000007298467     1.007825032230

  Basis Set: AUG-CC-PVTZ
    Blend: AUG-CC-PVTZ
  Basis Set: (AUG-CC-PVTZ AUX)
    Blend: AUG-CC-PVTZ-JKFIT
	 Reference Energy          =    -133.1090143898802580 [Eh]
	 Singles Energy            =      -0.0000000000000000 [Eh]
	 Same-Spin Energy          =      -0.1361459534529071 [Eh]
	 Opposite-Spin Energy      =      -0.4764911470799326 [Eh]
	 Correlation Energy        =      -0.6126371005328397 [Eh]
	 Total Energy              =    -133.7216514904131088 [Eh]

	 ================> DF-SCS-MP2 Energies <==================
	-----------------------------------------------------------
	 SCS Same-Spin Scale       =       0.3333333333333333 [-]
	 SCS Opposite-Spin Scale   =       1.2000000000000000 [-]
	 SCS Same-Spin Energy      =      -0.0453819844843024 [Eh]
	 SCS Opposite-Spin Energy  =      -0.5717893764959191 [Eh]
	 SCS Correlation Energy    =      -0.6171713609802215 [Eh]
	 SCS Total Energy          =    -133.7261857508604805 [Eh]
	-----------------------------------------------------------

  Dipole Moment: [D]
     X:    -1.1548      Y:     1.8576      Z:     0.0000     Total:     2.1873

*** Psi4 exiting successfully. Buy a developer a beer!
