                               Psi4 1.3.2 release

  ==> Input File <==

--------------------------------------------------------------------------
#psi4
#
memory 32 gb

molecule  {
0 1
  N        1.2070330    -0.3594050    -0.0000050
  C       -1.2028230    -0.1434160    -0.0000110
  C        0.3697053     0.4917683     0.0000219
  H       -1.1533220    -1.2333450    -0.0000600
  H       -1.7556310     0.1970070    -0.8817940
  H       -1.7556310     0.1969280     0.8818020
  H        0.2601390     1.5130950     0.0000410
  H        2.0665750     0.2014680     0.0000070
units angstrom
no_reorient  #important for SAPT in psi4, default
symmetry c1  #important for SAPT in psi4, default
}

set PROPERTIES_ORIGIN ["COM"]
properties('MP2/aug-cc-pvtz', properties = ['dipole'])
--------------------------------------------------------------------------

    Molecular point group: c1
  Charge       = 0
  Multiplicity = 1
  Basis Set: AUG-CC-PVTZ
    Blend: AUG-CC-PVTZ
  Basis Set: (AUG-CC-PVTZ AUX)
    Blend: AUG-CC-PVTZ-JKFIT

    Orbital Energies [Eh]
    ---------------------

    Doubly Occupied:

       1A    -15.556073     2A    -11.283003     3A    -11.219900
       4A     -1.256057     5A     -0.949716     6A     -0.795176
       7A     -0.709748     8A     -0.559490     9A     -0.550398
      10A     -0.536497    11A     -0.466086    12A     -0.401628

  @DF-RHF Final Energy:  -133.09027687842953

   => Energetics <=

    Nuclear Repulsion Energy =             70.5363410983285206
    One-Electron Energy =                -318.6856932619801910
    Two-Electron Energy =                 115.0590752852221215
    Total Energy =                       -133.0902768784295347
  Basis Set: (AUG-CC-PVTZ AUX)
    Blend: AUG-CC-PVTZ-RI
    Molecular point group: c1

    Geometry (in Angstrom), charge = 0, multiplicity = 1:

       Center              X                  Y                   Z               Mass
    ------------   -----------------  -----------------  -----------------  -----------------
         N            1.101355404411    -0.360089302578    -0.000006318551    14.003074004430
         C           -1.308500595589    -0.144100302578    -0.000012318551    12.000000000000
         C            0.264027704411     0.491083997422     0.000020581449    12.000000000000
         H           -1.258999595589    -1.234029302578    -0.000061318551     1.007825032230
         H           -1.861308595589     0.196322697422    -0.881795318551     1.007825032230
         H           -1.861308595589     0.196243697422     0.881800681449     1.007825032230
         H            0.154461404411     1.512410697422     0.000039681449     1.007825032230
         H            1.960897404411     0.200783697422     0.000005681449     1.007825032230

  Basis Set: AUG-CC-PVTZ
    Blend: AUG-CC-PVTZ
  Basis Set: (AUG-CC-PVTZ AUX)
    Blend: AUG-CC-PVTZ-JKFIT
	 Reference Energy          =    -133.0902768784295347 [Eh]
	 Singles Energy            =      -0.0000000000000000 [Eh]
	 Same-Spin Energy          =      -0.1330108167633003 [Eh]
	 Opposite-Spin Energy      =      -0.4717461320372107 [Eh]
	 Correlation Energy        =      -0.6047569488005110 [Eh]
	 Total Energy              =    -133.6950338272300485 [Eh]

	 ================> DF-SCS-MP2 Energies <==================
	-----------------------------------------------------------
	 SCS Same-Spin Scale       =       0.3333333333333333 [-]
	 SCS Opposite-Spin Scale   =       1.2000000000000000 [-]
	 SCS Same-Spin Energy      =      -0.0443369389211001 [Eh]
	 SCS Opposite-Spin Energy  =      -0.5660953584446528 [Eh]
	 SCS Correlation Energy    =      -0.6104322973657529 [Eh]
	 SCS Total Energy          =    -133.7007091757952821 [Eh]
	-----------------------------------------------------------

  Dipole Moment: [D]
     X:    -0.0579      Y:     2.0680      Z:     0.0000     Total:     2.0688

*** Psi4 exiting successfully. Buy a developer a beer!
