                               Psi4 1.3.2 release

  ==> Input File <==

--------------------------------------------------------------------------
#psi4
#
memory 32 gb

molecule  {
0 1
  N        1.2070330    -0.3594050    -0.0000050
  C       -1.2028230    -0.1434160    -0.0000110
  C        0.2199662     0.3187400     0.0000137
  H       -1.1533220    -1.2333450    -0.0000600
  H       -1.7556310     0.1970070    -0.8817940
  H       -1.7556310     0.1969280     0.8818020
  H        0.2601390     1.5130950     0.0000410
  H        2.0665750     0.2014680     0.0000070
units angstrom
no_reorient  #important for SAPT in psi4, default
symmetry c1  #important for SAPT in psi4, default
}

set PROPERTIES_ORIGIN ["COM"]
properties('MP2/aug-cc-pvtz', properties = ['dipole'])
--------------------------------------------------------------------------

    Molecular point group: c1
  Charge       = 0
  Multiplicity = 1
  Basis Set: AUG-CC-PVTZ
    Blend: AUG-CC-PVTZ
  Basis Set: (AUG-CC-PVTZ AUX)
    Blend: AUG-CC-PVTZ-JKFIT

    Orbital Energies [Eh]
    ---------------------

    Doubly Occupied:

       1A    -15.545696     2A    -11.283595     3A    -11.227419
       4A     -1.242768     5A     -0.994021     6A     -0.761723
       7A     -0.694016     8A     -0.584231     9A     -0.583882
      10A     -0.538853    11A     -0.454198    12A     -0.402271

  @DF-RHF Final Energy:  -133.11653615571390

   => Energetics <=

    Nuclear Repulsion Energy =             71.7653921244463078
    One-Electron Energy =                -321.1385093815333676
    Two-Electron Energy =                 116.2565811013731718
    Total Energy =                       -133.1165361557139022
  Basis Set: (AUG-CC-PVTZ AUX)
    Blend: AUG-CC-PVTZ-RI
    Molecular point group: c1

    Geometry (in Angstrom), charge = 0, multiplicity = 1:

       Center              X                  Y                   Z               Mass
    ------------   -----------------  -----------------  -----------------  -----------------
         N            1.143102091031    -0.311849676345    -0.000004032422    14.003074004430
         C           -1.266753908969    -0.095860676345    -0.000010032422    12.000000000000
         C            0.156035291031     0.366295323655     0.000014667578    12.000000000000
         H           -1.217252908969    -1.185789676345    -0.000059032422     1.007825032230
         H           -1.819561908969     0.244562323655    -0.881793032422     1.007825032230
         H           -1.819561908969     0.244483323655     0.881802967578     1.007825032230
         H            0.196208091031     1.560650323655     0.000041967578     1.007825032230
         H            2.002644091031     0.249023323655     0.000007967578     1.007825032230

  Basis Set: AUG-CC-PVTZ
    Blend: AUG-CC-PVTZ
  Basis Set: (AUG-CC-PVTZ AUX)
    Blend: AUG-CC-PVTZ-JKFIT
	 Reference Energy          =    -133.1165361557139022 [Eh]
	 Singles Energy            =      -0.0000000000000000 [Eh]
	 Same-Spin Energy          =      -0.1331641742345051 [Eh]
	 Opposite-Spin Energy      =      -0.4698251824568562 [Eh]
	 Correlation Energy        =      -0.6029893566913613 [Eh]
	 Total Energy              =    -133.7195255124052551 [Eh]

	 ================> DF-SCS-MP2 Energies <==================
	-----------------------------------------------------------
	 SCS Same-Spin Scale       =       0.3333333333333333 [-]
	 SCS Opposite-Spin Scale   =       1.2000000000000000 [-]
	 SCS Same-Spin Energy      =      -0.0443880580781683 [Eh]
	 SCS Opposite-Spin Energy  =      -0.5637902189482275 [Eh]
	 SCS Correlation Energy    =      -0.6081782770263958 [Eh]
	 SCS Total Energy          =    -133.7247144327402850 [Eh]
	-----------------------------------------------------------

  Dipole Moment: [D]
     X:    -0.6627      Y:     1.6599      Z:     0.0000     Total:     1.7873

*** Psi4 exiting successfully. Buy a developer a beer!
