                               Psi4 1.3.2 release

  ==> Input File <==

--------------------------------------------------------------------------
#psi4
#
memory 32 gb

molecule  {
0 1
  N        1.2070330    -0.3594050    -0.0000050
  C       -1.1603610    -0.2388093    -0.0000124
  C        0.1842620     0.4168630     0.0000180
  H       -1.1533220    -1.2333450    -0.0000600
  H       -1.7556310     0.1970070    -0.8817940
  H       -1.7556310     0.1969280     0.8818020
  H        0.2601390     1.5130950     0.0000410
  H        2.0665750     0.2014680     0.0000070
units angstrom
no_reorient  #important for SAPT in psi4, default
symmetry c1  #important for SAPT in psi4, default
}

set PROPERTIES_ORIGIN ["COM"]
properties('MP2/aug-cc-pvtz', properties = ['dipole'])
--------------------------------------------------------------------------

    Molecular point group: c1
  Charge       = 0
  Multiplicity = 1
  Basis Set: AUG-CC-PVTZ
    Blend: AUG-CC-PVTZ
  Basis Set: (AUG-CC-PVTZ AUX)
    Blend: AUG-CC-PVTZ-JKFIT

    Orbital Energies [Eh]
    ---------------------

    Doubly Occupied:

       1A    -15.551817     2A    -11.288854     3A    -11.230772
       4A     -1.204467     5A     -0.990876     6A     -0.783158
       7A     -0.691755     8A     -0.586838     9A     -0.557195
      10A     -0.546911    11A     -0.425643    12A     -0.418676

  @DF-RHF Final Energy:  -133.11361203081822

   => Energetics <=

    Nuclear Repulsion Energy =             70.8817176229410535
    One-Electron Energy =                -319.4367345971429586
    Two-Electron Energy =                 115.4414049433837164
    Total Energy =                       -133.1136120308182171
  Basis Set: (AUG-CC-PVTZ AUX)
    Blend: AUG-CC-PVTZ-RI
    Molecular point group: c1

    Geometry (in Angstrom), charge = 0, multiplicity = 1:

       Center              X                  Y                   Z               Mass
    ------------   -----------------  -----------------  -----------------  -----------------
         N            1.141218042316    -0.312610706233    -0.000004840931    14.003074004430
         C           -1.226175957684    -0.192015006233    -0.000012240931    12.000000000000
         C            0.118447042316     0.463657293767     0.000018159069    12.000000000000
         H           -1.219136957684    -1.186550706233    -0.000059840931     1.007825032230
         H           -1.821445957684     0.243801293767    -0.881793840931     1.007825032230
         H           -1.821445957684     0.243722293767     0.881802159069     1.007825032230
         H            0.194324042316     1.559889293767     0.000041159069     1.007825032230
         H            2.000760042316     0.248262293767     0.000007159069     1.007825032230

  Basis Set: AUG-CC-PVTZ
    Blend: AUG-CC-PVTZ
  Basis Set: (AUG-CC-PVTZ AUX)
    Blend: AUG-CC-PVTZ-JKFIT
	 Reference Energy          =    -133.1136120308182171 [Eh]
	 Singles Energy            =      -0.0000000000000000 [Eh]
	 Same-Spin Energy          =      -0.1343397346067321 [Eh]
	 Opposite-Spin Energy      =      -0.4736947238538549 [Eh]
	 Correlation Energy        =      -0.6080344584605870 [Eh]
	 Total Energy              =    -133.7216464892788110 [Eh]

	 ================> DF-SCS-MP2 Energies <==================
	-----------------------------------------------------------
	 SCS Same-Spin Scale       =       0.3333333333333333 [-]
	 SCS Opposite-Spin Scale   =       1.2000000000000000 [-]
	 SCS Same-Spin Energy      =      -0.0447799115355774 [Eh]
	 SCS Opposite-Spin Energy  =      -0.5684336686246259 [Eh]
	 SCS Correlation Energy    =      -0.6132135801602032 [Eh]
	 SCS Total Energy          =    -133.7268256109784090 [Eh]
	-----------------------------------------------------------

  Dipole Moment: [D]
     X:    -0.8247      Y:     1.9282      Z:     0.0000     Total:     2.0972

*** Psi4 exiting successfully. Buy a developer a beer!
