                               Psi4 1.3.2 release

  ==> Input File <==

--------------------------------------------------------------------------
#psi4
#
memory 32 gb

molecule  {
0 1
  N        1.2070330    -0.3594050    -0.0000050
  C       -1.2028230    -0.1434160    -0.0000110
  C        0.1046069     0.4773201     0.0000198
  H       -1.1533220    -1.2333450    -0.0000600
  H       -1.7556310     0.1970070    -0.8817940
  H       -1.7556310     0.1969280     0.8818020
  H        0.2601390     1.5130950     0.0000410
  H        2.0665750     0.2014680     0.0000070
units angstrom
no_reorient  #important for SAPT in psi4, default
symmetry c1  #important for SAPT in psi4, default
}

set PROPERTIES_ORIGIN ["COM"]
properties('MP2/aug-cc-pvtz', properties = ['dipole'])
--------------------------------------------------------------------------

    Molecular point group: c1
  Charge       = 0
  Multiplicity = 1
  Basis Set: AUG-CC-PVTZ
    Blend: AUG-CC-PVTZ
  Basis Set: (AUG-CC-PVTZ AUX)
    Blend: AUG-CC-PVTZ-JKFIT

    Orbital Energies [Eh]
    ---------------------

    Doubly Occupied:

       1A    -15.561301     2A    -11.296981     3A    -11.231338
       4A     -1.167636     5A     -1.004107     6A     -0.796502
       7A     -0.680548     8A     -0.588694     9A     -0.575647
      10A     -0.536100    11A     -0.432911    12A     -0.394152

  @DF-RHF Final Energy:  -133.10495831476169

   => Energetics <=

    Nuclear Repulsion Energy =             70.0439015857802332
    One-Electron Energy =                -317.7658833805303402
    Two-Electron Energy =                 114.6170234799883900
    Total Energy =                       -133.1049583147616886
  Basis Set: (AUG-CC-PVTZ AUX)
    Blend: AUG-CC-PVTZ-RI
    Molecular point group: c1

    Geometry (in Angstrom), charge = 0, multiplicity = 1:

       Center              X                  Y                   Z               Mass
    ------------   -----------------  -----------------  -----------------  -----------------
         N            1.175263821306    -0.356061199848    -0.000005733079    14.003074004430
         C           -1.234592178694    -0.140072199848    -0.000011733079    12.000000000000
         C            0.072837721306     0.480663900152     0.000019066921    12.000000000000
         H           -1.185091178694    -1.230001199848    -0.000060733079     1.007825032230
         H           -1.787400178694     0.200350800152    -0.881794733079     1.007825032230
         H           -1.787400178694     0.200271800152     0.881801266921     1.007825032230
         H            0.228369821306     1.516438800152     0.000040266921     1.007825032230
         H            2.034805821306     0.204811800152     0.000006266921     1.007825032230

  Basis Set: AUG-CC-PVTZ
    Blend: AUG-CC-PVTZ
  Basis Set: (AUG-CC-PVTZ AUX)
    Blend: AUG-CC-PVTZ-JKFIT
	 Reference Energy          =    -133.1049583147616886 [Eh]
	 Singles Energy            =      -0.0000000000000000 [Eh]
	 Same-Spin Energy          =      -0.1365287749035847 [Eh]
	 Opposite-Spin Energy      =      -0.4788302882917415 [Eh]
	 Correlation Energy        =      -0.6153590631953263 [Eh]
	 Total Energy              =    -133.7203173779570022 [Eh]

	 ================> DF-SCS-MP2 Energies <==================
	-----------------------------------------------------------
	 SCS Same-Spin Scale       =       0.3333333333333333 [-]
	 SCS Opposite-Spin Scale   =       1.2000000000000000 [-]
	 SCS Same-Spin Energy      =      -0.0455095916345282 [Eh]
	 SCS Opposite-Spin Energy  =      -0.5745963459500898 [Eh]
	 SCS Correlation Energy    =      -0.6201059375846181 [Eh]
	 SCS Total Energy          =    -133.7250642523463000 [Eh]
	-----------------------------------------------------------

  Dipole Moment: [D]
     X:    -1.0549      Y:     1.9956      Z:     0.0000     Total:     2.2573

*** Psi4 exiting successfully. Buy a developer a beer!
