                               Psi4 1.3.2 release

  ==> Input File <==

--------------------------------------------------------------------------
#psi4
#
memory 32 gb

molecule  {
0 1
  N        1.2070330    -0.3594050    -0.0000050
  C       -1.2028230    -0.1434160    -0.0000110
  C        0.1742725     0.4409856     0.0000191
  H       -1.1533220    -1.2333450    -0.0000600
  H       -1.7556310     0.1970070    -0.8817940
  H       -1.7556310     0.1969280     0.8818020
  H        0.2601390     1.5130950     0.0000410
  H        2.0665750     0.2014680     0.0000070
units angstrom
no_reorient  #important for SAPT in psi4, default
symmetry c1  #important for SAPT in psi4, default
}

set PROPERTIES_ORIGIN ["COM"]
properties('MP2/aug-cc-pvtz', properties = ['dipole'])
--------------------------------------------------------------------------

    Molecular point group: c1
  Charge       = 0
  Multiplicity = 1
  Basis Set: AUG-CC-PVTZ
    Blend: AUG-CC-PVTZ
  Basis Set: (AUG-CC-PVTZ AUX)
    Blend: AUG-CC-PVTZ-JKFIT

    Orbital Energies [Eh]
    ---------------------

    Doubly Occupied:

       1A    -15.556639     2A    -11.290088     3A    -11.229077
       4A     -1.194669     5A     -0.992658     6A     -0.784980
       7A     -0.688957     8A     -0.581722     9A     -0.562233
      10A     -0.543842    11A     -0.429016    12A     -0.418156

  @DF-RHF Final Energy:  -133.12403170924915

   => Energetics <=

    Nuclear Repulsion Energy =             70.4570263031614701
    One-Electron Energy =                -318.6180378663369765
    Two-Electron Energy =                 115.0369798539263684
    Total Energy =                       -133.1240317092491523
  Basis Set: (AUG-CC-PVTZ AUX)
    Blend: AUG-CC-PVTZ-RI
    Molecular point group: c1

    Geometry (in Angstrom), charge = 0, multiplicity = 1:

       Center              X                  Y                   Z               Mass
    ------------   -----------------  -----------------  -----------------  -----------------
         N            1.155841319291    -0.345931280641    -0.000005537922    14.003074004430
         C           -1.254014680709    -0.129942280641    -0.000011537922    12.000000000000
         C            0.123080819291     0.454459319359     0.000018562078    12.000000000000
         H           -1.204513680709    -1.219871280641    -0.000060537922     1.007825032230
         H           -1.806822680709     0.210480719359    -0.881794537922     1.007825032230
         H           -1.806822680709     0.210401719359     0.881801462078     1.007825032230
         H            0.208947319291     1.526568719359     0.000040462078     1.007825032230
         H            2.015383319291     0.214941719359     0.000006462078     1.007825032230

  Basis Set: AUG-CC-PVTZ
    Blend: AUG-CC-PVTZ
  Basis Set: (AUG-CC-PVTZ AUX)
    Blend: AUG-CC-PVTZ-JKFIT
	 Reference Energy          =    -133.1240317092491523 [Eh]
	 Singles Energy            =      -0.0000000000000000 [Eh]
	 Same-Spin Energy          =      -0.1345159947918687 [Eh]
	 Opposite-Spin Energy      =      -0.4743923076379186 [Eh]
	 Correlation Energy        =      -0.6089083024297872 [Eh]
	 Total Energy              =    -133.7329400116789486 [Eh]

	 ================> DF-SCS-MP2 Energies <==================
	-----------------------------------------------------------
	 SCS Same-Spin Scale       =       0.3333333333333333 [-]
	 SCS Opposite-Spin Scale   =       1.2000000000000000 [-]
	 SCS Same-Spin Energy      =      -0.0448386649306229 [Eh]
	 SCS Opposite-Spin Energy  =      -0.5692707691655023 [Eh]
	 SCS Correlation Energy    =      -0.6141094340961253 [Eh]
	 SCS Total Energy          =    -133.7381411433452740 [Eh]
	-----------------------------------------------------------

  Dipole Moment: [D]
     X:    -0.8479      Y:     1.9644      Z:     0.0000     Total:     2.1396

*** Psi4 exiting successfully. Buy a developer a beer!
