                               Psi4 1.4a3.dev225

  ==> Input File <==

--------------------------------------------------------------------------
#psi4
#
memory 32 gb

molecule  {
0 1
  N       -1.2071110    -0.3593690     0.0000070
  C        1.2028970    -0.1434370     0.0000120
  C       -0.2239931     0.3866757    -0.0000228
  H        1.1529110    -1.2333140     0.0000580
  H        1.7556810     0.1968570     0.8818310
  H        1.7556900     0.1967810    -0.8818300
  H       -0.2601790     1.5130940    -0.0000440
  H       -2.0667260     0.2013840     0.0000030
units angstrom
no_reorient  #important for SAPT in psi4, default
symmetry c1  #important for SAPT in psi4, default
}

set PROPERTIES_ORIGIN ["COM"]
properties('MP2/aug-cc-pvtz', properties = ['dipole'])
--------------------------------------------------------------------------

    Molecular point group: c1
  Charge       = 0
  Multiplicity = 1
  Basis Set: AUG-CC-PVTZ
    Blend: AUG-CC-PVTZ
  Basis Set: (AUG-CC-PVTZ AUX)
    Blend: AUG-CC-PVTZ-JKFIT

    Orbital Energies [Eh]
    ---------------------

    Doubly Occupied:

       1A    -15.550118     2A    -11.284515     3A    -11.227045
       4A     -1.226067     5A     -0.986332     6A     -0.769993
       7A     -0.696674     8A     -0.579209     9A     -0.567094
      10A     -0.542077    11A     -0.442363    12A     -0.416407

  @DF-RHF Final Energy:  -133.12622202951613

   => Energetics <=

    Nuclear Repulsion Energy =             71.1043253205160823
    One-Electron Energy =                -319.8853055671867196
    Two-Electron Energy =                 115.6547582171545230
    Total Energy =                       -133.1262220295161285
  Basis Set: (AUG-CC-PVTZ AUX)
    Blend: AUG-CC-PVTZ-RI
    Molecular point group: c1

    Geometry (in Angstrom), charge = 0, multiplicity = 1:

       Center              X                  Y                   Z               Mass
    ------------   -----------------  -----------------  -----------------  -----------------
         N           -1.142041118152    -0.330751527568     0.000007312197    14.003074004430
         C            1.267966881848    -0.114819527568     0.000012312197    12.000000000000
         C           -0.158923218152     0.415293172432    -0.000022487803    12.000000000000
         H            1.217980881848    -1.204696527568     0.000058312197     1.007825032230
         H            1.820750881848     0.225474472432     0.881831312197     1.007825032230
         H            1.820759881848     0.225398472432    -0.881829687803     1.007825032230
         H           -0.195109118152     1.541711472432    -0.000043687803     1.007825032230
         H           -2.001656118152     0.230001472432     0.000003312197     1.007825032230

  Basis Set: AUG-CC-PVTZ
    Blend: AUG-CC-PVTZ
  Basis Set: (AUG-CC-PVTZ AUX)
    Blend: AUG-CC-PVTZ-JKFIT
	 Reference Energy          =    -133.1262220295161285 [Eh]
	 Singles Energy            =      -0.0000000000000000 [Eh]
	 Same-Spin Energy          =      -0.1333028103701748 [Eh]
	 Opposite-Spin Energy      =      -0.4710452745814400 [Eh]
	 Correlation Energy        =      -0.6043480849516147 [Eh]
	 Total Energy              =    -133.7305701144677528 [Eh]

	 ================> DF-SCS-MP2 Energies <==================
	-----------------------------------------------------------
	 SCS Same-Spin Scale       =       0.3333333333333333 [-]
	 SCS Opposite-Spin Scale   =       1.2000000000000000 [-]
	 SCS Same-Spin Energy      =      -0.0444342701233916 [Eh]
	 SCS Opposite-Spin Energy  =      -0.5652543294977279 [Eh]
	 SCS Correlation Energy    =      -0.6096885996211195 [Eh]
	 SCS Total Energy          =    -133.7359106291372370 [Eh]
	-----------------------------------------------------------

  Dipole Moment: [D]
     X:     0.6663      Y:     1.8577      Z:    -0.0000     Total:     1.9736

*** Psi4 exiting successfully. Buy a developer a beer!
