                               Psi4 1.4a3.dev225

  ==> Input File <==

--------------------------------------------------------------------------
#psi4
#
memory 32 gb

molecule  {
0 1
  N       -1.2071110    -0.3593690     0.0000070
  C        1.2028970    -0.1434370     0.0000120
  C       -0.1378030     0.3981727    -0.0000228
  H        1.1529110    -1.2333140     0.0000580
  H        1.7556810     0.1968570     0.8818310
  H        1.7556900     0.1967810    -0.8818300
  H       -0.2601790     1.5130940    -0.0000440
  H       -2.0667260     0.2013840     0.0000030
units angstrom
no_reorient  #important for SAPT in psi4, default
symmetry c1  #important for SAPT in psi4, default
}

set PROPERTIES_ORIGIN ["COM"]
properties('MP2/aug-cc-pvtz', properties = ['dipole'])
--------------------------------------------------------------------------

    Molecular point group: c1
  Charge       = 0
  Multiplicity = 1
  Basis Set: AUG-CC-PVTZ
    Blend: AUG-CC-PVTZ
  Basis Set: (AUG-CC-PVTZ AUX)
    Blend: AUG-CC-PVTZ-JKFIT

    Orbital Energies [Eh]
    ---------------------

    Doubly Occupied:

       1A    -15.554772     2A    -11.292125     3A    -11.229071
       4A     -1.192451     5A     -1.005849     6A     -0.775551
       7A     -0.686356     8A     -0.588839     9A     -0.575317
      10A     -0.543650    11A     -0.421968    12A     -0.414604

  @DF-RHF Final Energy:  -133.12140816583761

   => Energetics <=

    Nuclear Repulsion Energy =             70.7919753238956986
    One-Electron Energy =                -319.2656624228217765
    Two-Electron Energy =                 115.3522789330884706
    Total Energy =                       -133.1214081658375790
  Basis Set: (AUG-CC-PVTZ AUX)
    Blend: AUG-CC-PVTZ-RI
    Molecular point group: c1

    Geometry (in Angstrom), charge = 0, multiplicity = 1:

       Center              X                  Y                   Z               Mass
    ------------   -----------------  -----------------  -----------------  -----------------
         N           -1.166070587371    -0.333956847060     0.000007312197    14.003074004430
         C            1.243937412629    -0.118024847060     0.000012312197    12.000000000000
         C           -0.096762587371     0.423584852940    -0.000022487803    12.000000000000
         H            1.193951412629    -1.207901847060     0.000058312197     1.007825032230
         H            1.796721412629     0.222269152940     0.881831312197     1.007825032230
         H            1.796730412629     0.222193152940    -0.881829687803     1.007825032230
         H           -0.219138587371     1.538506152940    -0.000043687803     1.007825032230
         H           -2.025685587371     0.226796152940     0.000003312197     1.007825032230

  Basis Set: AUG-CC-PVTZ
    Blend: AUG-CC-PVTZ
  Basis Set: (AUG-CC-PVTZ AUX)
    Blend: AUG-CC-PVTZ-JKFIT
	 Reference Energy          =    -133.1214081658376074 [Eh]
	 Singles Energy            =      -0.0000000000000000 [Eh]
	 Same-Spin Energy          =      -0.1350130715413660 [Eh]
	 Opposite-Spin Energy      =      -0.4746431204317650 [Eh]
	 Correlation Energy        =      -0.6096561919731309 [Eh]
	 Total Energy              =    -133.7310643578107374 [Eh]

	 ================> DF-SCS-MP2 Energies <==================
	-----------------------------------------------------------
	 SCS Same-Spin Scale       =       0.3333333333333333 [-]
	 SCS Opposite-Spin Scale   =       1.2000000000000000 [-]
	 SCS Same-Spin Energy      =      -0.0450043571804553 [Eh]
	 SCS Opposite-Spin Energy  =      -0.5695717445181180 [Eh]
	 SCS Correlation Energy    =      -0.6145761016985734 [Eh]
	 SCS Total Energy          =    -133.7359842675361676 [Eh]
	-----------------------------------------------------------

  Dipole Moment: [D]
     X:     0.9865      Y:     1.8917      Z:    -0.0000     Total:     2.1334

*** Psi4 exiting successfully. Buy a developer a beer!
