                               Psi4 1.3.2 release

  ==> Input File <==

--------------------------------------------------------------------------
#psi4
#
memory 32 gb

molecule  {
0 1
  N        1.2070330    -0.3594050    -0.0000050
  C       -1.1366593    -0.2853366    -0.0000130
  C        0.1842620     0.4168630     0.0000180
  H       -1.1533220    -1.2333450    -0.0000600
  H       -1.7556310     0.1970070    -0.8817940
  H       -1.7556310     0.1969280     0.8818020
  H        0.2601390     1.5130950     0.0000410
  H        2.0665750     0.2014680     0.0000070
units angstrom
no_reorient  #important for SAPT in psi4, default
symmetry c1  #important for SAPT in psi4, default
}

set PROPERTIES_ORIGIN ["COM"]
properties('MP2/aug-cc-pvtz', properties = ['dipole'])
--------------------------------------------------------------------------

    Molecular point group: c1
  Charge       = 0
  Multiplicity = 1
  Basis Set: AUG-CC-PVTZ
    Blend: AUG-CC-PVTZ
  Basis Set: (AUG-CC-PVTZ AUX)
    Blend: AUG-CC-PVTZ-JKFIT

    Orbital Energies [Eh]
    ---------------------

    Doubly Occupied:

       1A    -15.550803     2A    -11.289721     3A    -11.233330
       4A     -1.205315     5A     -0.991078     6A     -0.788282
       7A     -0.691586     8A     -0.603733     9A     -0.546159
      10A     -0.540548    11A     -0.425906    12A     -0.414855

  @DF-RHF Final Energy:  -133.09554273948115

   => Energetics <=

    Nuclear Repulsion Energy =             70.9883950719045487
    One-Electron Energy =                -319.6052436540028907
    Two-Electron Energy =                 115.5213058426171671
    Total Energy =                       -133.0955427394811750
  Basis Set: (AUG-CC-PVTZ AUX)
    Blend: AUG-CC-PVTZ-RI
    Molecular point group: c1

    Geometry (in Angstrom), charge = 0, multiplicity = 1:

       Center              X                  Y                   Z               Mass
    ------------   -----------------  -----------------  -----------------  -----------------
         N            1.134610099286    -0.299639073491    -0.000004673654    14.003074004430
         C           -1.209082200714    -0.225570673491    -0.000012673654    12.000000000000
         C            0.111839099286     0.476628926509     0.000018326346    12.000000000000
         H           -1.225744900714    -1.173579073491    -0.000059673654     1.007825032230
         H           -1.828053900714     0.256772926509    -0.881793673654     1.007825032230
         H           -1.828053900714     0.256693926509     0.881802326346     1.007825032230
         H            0.187716099286     1.572860926509     0.000041326346     1.007825032230
         H            1.994152099286     0.261233926509     0.000007326346     1.007825032230

  Basis Set: AUG-CC-PVTZ
    Blend: AUG-CC-PVTZ
  Basis Set: (AUG-CC-PVTZ AUX)
    Blend: AUG-CC-PVTZ-JKFIT
	 Reference Energy          =    -133.0955427394811466 [Eh]
	 Singles Energy            =      -0.0000000000000000 [Eh]
	 Same-Spin Energy          =      -0.1345967181533118 [Eh]
	 Opposite-Spin Energy      =      -0.4744286660901468 [Eh]
	 Correlation Energy        =      -0.6090253842434586 [Eh]
	 Total Energy              =    -133.7045681237246129 [Eh]

	 ================> DF-SCS-MP2 Energies <==================
	-----------------------------------------------------------
	 SCS Same-Spin Scale       =       0.3333333333333333 [-]
	 SCS Opposite-Spin Scale   =       1.2000000000000000 [-]
	 SCS Same-Spin Energy      =      -0.0448655727177706 [Eh]
	 SCS Opposite-Spin Energy  =      -0.5693143993081762 [Eh]
	 SCS Correlation Energy    =      -0.6141799720259468 [Eh]
	 SCS Total Energy          =    -133.7097227115070837 [Eh]
	-----------------------------------------------------------

  Dipole Moment: [D]
     X:    -0.8174      Y:     1.9363      Z:     0.0000     Total:     2.1018

*** Psi4 exiting successfully. Buy a developer a beer!
