                               Psi4 1.3.2 release

  ==> Input File <==

--------------------------------------------------------------------------
#psi4
#
memory 32 gb

molecule  {
0 1
  N        1.2070330    -0.3594050    -0.0000050
  C       -1.2028230    -0.1434160    -0.0000110
  C        0.1938290     0.3925697     0.0000169
  H       -1.1533220    -1.2333450    -0.0000600
  H       -1.7556310     0.1970070    -0.8817940
  H       -1.7556310     0.1969280     0.8818020
  H        0.2601390     1.5130950     0.0000410
  H        2.0665750     0.2014680     0.0000070
units angstrom
no_reorient  #important for SAPT in psi4, default
symmetry c1  #important for SAPT in psi4, default
}

set PROPERTIES_ORIGIN ["COM"]
properties('MP2/aug-cc-pvtz', properties = ['dipole'])
--------------------------------------------------------------------------

    Molecular point group: c1
  Charge       = 0
  Multiplicity = 1
  Basis Set: AUG-CC-PVTZ
    Blend: AUG-CC-PVTZ
  Basis Set: (AUG-CC-PVTZ AUX)
    Blend: AUG-CC-PVTZ-JKFIT

    Orbital Energies [Eh]
    ---------------------

    Doubly Occupied:

       1A    -15.552014     2A    -11.287118     3A    -11.227937
       4A     -1.212978     5A     -0.992948     6A     -0.772513
       7A     -0.692746     8A     -0.582210     9A     -0.568418
      10A     -0.543338    11A     -0.432050    12A     -0.419842

  @DF-RHF Final Energy:  -133.12738224255193

   => Energetics <=

    Nuclear Repulsion Energy =             70.9603100995920215
    One-Electron Energy =                -319.6071581706848406
    Two-Electron Energy =                 115.5194658285408877
    Total Energy =                       -133.1273822425519313
  Basis Set: (AUG-CC-PVTZ AUX)
    Blend: AUG-CC-PVTZ-RI
    Molecular point group: c1

    Geometry (in Angstrom), charge = 0, multiplicity = 1:

       Center              X                  Y                   Z               Mass
    ------------   -----------------  -----------------  -----------------  -----------------
         N            1.150389042118    -0.332433113465    -0.000004924570    14.003074004430
         C           -1.259466957882    -0.116444113465    -0.000010924570    12.000000000000
         C            0.137185042118     0.419541586535     0.000016975430    12.000000000000
         H           -1.209965957882    -1.206373113465    -0.000059924570     1.007825032230
         H           -1.812274957882     0.223978886535    -0.881793924570     1.007825032230
         H           -1.812274957882     0.223899886535     0.881802075430     1.007825032230
         H            0.203495042118     1.540066886535     0.000041075430     1.007825032230
         H            2.009931042118     0.228439886535     0.000007075430     1.007825032230

  Basis Set: AUG-CC-PVTZ
    Blend: AUG-CC-PVTZ
  Basis Set: (AUG-CC-PVTZ AUX)
    Blend: AUG-CC-PVTZ-JKFIT
	 Reference Energy          =    -133.1273822425519313 [Eh]
	 Singles Energy            =      -0.0000000000000000 [Eh]
	 Same-Spin Energy          =      -0.1338159408552868 [Eh]
	 Opposite-Spin Energy      =      -0.4722088228487290 [Eh]
	 Correlation Energy        =      -0.6060247637040157 [Eh]
	 Total Energy              =    -133.7334070062559590 [Eh]

	 ================> DF-SCS-MP2 Energies <==================
	-----------------------------------------------------------
	 SCS Same-Spin Scale       =       0.3333333333333333 [-]
	 SCS Opposite-Spin Scale   =       1.2000000000000000 [-]
	 SCS Same-Spin Energy      =      -0.0446053136184289 [Eh]
	 SCS Opposite-Spin Energy  =      -0.5666505874184747 [Eh]
	 SCS Correlation Energy    =      -0.6112559010369036 [Eh]
	 SCS Total Energy          =    -133.7386381435888438 [Eh]
	-----------------------------------------------------------

  Dipole Moment: [D]
     X:    -0.7838      Y:     1.8757      Z:     0.0000     Total:     2.0329

*** Psi4 exiting successfully. Buy a developer a beer!
