                               Psi4 1.4a3.dev225

  ==> Input File <==

--------------------------------------------------------------------------
#psi4
#
memory 32 gb

molecule  {
0 1
  N       -1.2071110    -0.3593690     0.0000070
  C        1.2028970    -0.1434370     0.0000120
  C       -0.2305230     0.4356293    -0.0000252
  H        1.1529110    -1.2333140     0.0000580
  H        1.7556810     0.1968570     0.8818310
  H        1.7556900     0.1967810    -0.8818300
  H       -0.2601790     1.5130940    -0.0000440
  H       -2.0667260     0.2013840     0.0000030
units angstrom
no_reorient  #important for SAPT in psi4, default
symmetry c1  #important for SAPT in psi4, default
}

set PROPERTIES_ORIGIN ["COM"]
properties('MP2/aug-cc-pvtz', properties = ['dipole'])
--------------------------------------------------------------------------

    Molecular point group: c1
  Charge       = 0
  Multiplicity = 1
  Basis Set: AUG-CC-PVTZ
    Blend: AUG-CC-PVTZ
  Basis Set: (AUG-CC-PVTZ AUX)
    Blend: AUG-CC-PVTZ-JKFIT

    Orbital Energies [Eh]
    ---------------------

    Doubly Occupied:

       1A    -15.554033     2A    -11.285688     3A    -11.227315
       4A     -1.215704     5A     -0.980574     6A     -0.781629
       7A     -0.696062     8A     -0.575630     9A     -0.555514
      10A     -0.544059    11A     -0.435301    12A     -0.424445

  @DF-RHF Final Energy:  -133.12564761853830

   => Energetics <=

    Nuclear Repulsion Energy =             70.6386860894468640
    One-Electron Energy =                -318.9767597077996015
    Two-Electron Energy =                 115.2124259998144282
    Total Energy =                       -133.1256476185382951
  Basis Set: (AUG-CC-PVTZ AUX)
    Blend: AUG-CC-PVTZ-RI
    Molecular point group: c1

    Geometry (in Angstrom), charge = 0, multiplicity = 1:

       Center              X                  Y                   Z               Mass
    ------------   -----------------  -----------------  -----------------  -----------------
         N           -1.140220607083    -0.344399603442     0.000007981307    14.003074004430
         C            1.269787392917    -0.128467603442     0.000012981307    12.000000000000
         C           -0.163632607083     0.450598696558    -0.000024218693    12.000000000000
         H            1.219801392917    -1.218344603442     0.000058981307     1.007825032230
         H            1.822571392917     0.211826396558     0.881831981307     1.007825032230
         H            1.822580392917     0.211750396558    -0.881829018693     1.007825032230
         H           -0.193288607083     1.528063396558    -0.000043018693     1.007825032230
         H           -1.999835607083     0.216353396558     0.000003981307     1.007825032230

  Basis Set: AUG-CC-PVTZ
    Blend: AUG-CC-PVTZ
  Basis Set: (AUG-CC-PVTZ AUX)
    Blend: AUG-CC-PVTZ-JKFIT
	 Reference Energy          =    -133.1256476185382951 [Eh]
	 Singles Energy            =      -0.0000000000000000 [Eh]
	 Same-Spin Energy          =      -0.1335175894150839 [Eh]
	 Opposite-Spin Energy      =      -0.4722840962120871 [Eh]
	 Correlation Energy        =      -0.6058016856271711 [Eh]
	 Total Energy              =    -133.7314493041654657 [Eh]

	 ================> DF-SCS-MP2 Energies <==================
	-----------------------------------------------------------
	 SCS Same-Spin Scale       =       0.3333333333333333 [-]
	 SCS Opposite-Spin Scale   =       1.2000000000000000 [-]
	 SCS Same-Spin Energy      =      -0.0445058631383613 [Eh]
	 SCS Opposite-Spin Energy  =      -0.5667409154545046 [Eh]
	 SCS Correlation Energy    =      -0.6112467785928659 [Eh]
	 SCS Total Energy          =    -133.7368943971311523 [Eh]
	-----------------------------------------------------------

  Dipole Moment: [D]
     X:     0.6446      Y:     1.9582      Z:    -0.0000     Total:     2.0616

*** Psi4 exiting successfully. Buy a developer a beer!
