                               Psi4 1.3.2 release

  ==> Input File <==

--------------------------------------------------------------------------
#psi4
#
memory 32 gb

molecule  {
0 1
  N        1.2070330    -0.3594050    -0.0000050
  C       -1.1824246    -0.1914833    -0.0000117
  C        0.1842620     0.4168630     0.0000180
  H       -1.1533220    -1.2333450    -0.0000600
  H       -1.7556310     0.1970070    -0.8817940
  H       -1.7556310     0.1969280     0.8818020
  H        0.2601390     1.5130950     0.0000410
  H        2.0665750     0.2014680     0.0000070
units angstrom
no_reorient  #important for SAPT in psi4, default
symmetry c1  #important for SAPT in psi4, default
}

set PROPERTIES_ORIGIN ["COM"]
properties('MP2/aug-cc-pvtz', properties = ['dipole'])
--------------------------------------------------------------------------

    Molecular point group: c1
  Charge       = 0
  Multiplicity = 1
  Basis Set: AUG-CC-PVTZ
    Blend: AUG-CC-PVTZ
  Basis Set: (AUG-CC-PVTZ AUX)
    Blend: AUG-CC-PVTZ-JKFIT

    Orbital Energies [Eh]
    ---------------------

    Doubly Occupied:

       1A    -15.552991     2A    -11.288475     3A    -11.229141
       4A     -1.203917     5A     -0.991486     6A     -0.779906
       7A     -0.691569     8A     -0.570576     9A     -0.569209
      10A     -0.551182    11A     -0.425240    12A     -0.422037

  @DF-RHF Final Energy:  -133.12371860790657

   => Energetics <=

    Nuclear Repulsion Energy =             70.7881081439007005
    One-Electron Energy =                -319.2721944365151217
    Two-Electron Energy =                 115.3603676847078674
    Total Energy =                       -133.1237186079065395
  Basis Set: (AUG-CC-PVTZ AUX)
    Blend: AUG-CC-PVTZ-RI
    Molecular point group: c1

    Geometry (in Angstrom), charge = 0, multiplicity = 1:

       Center              X                  Y                   Z               Mass
    ------------   -----------------  -----------------  -----------------  -----------------
         N            1.147369289352    -0.325805013471    -0.000005036089    14.003074004430
         C           -1.242088310648    -0.157883313471    -0.000011736089    12.000000000000
         C            0.124598289352     0.450462986529     0.000017963911    12.000000000000
         H           -1.212985710648    -1.199745013471    -0.000060036089     1.007825032230
         H           -1.815294710648     0.230606986529    -0.881794036089     1.007825032230
         H           -1.815294710648     0.230527986529     0.881801963911     1.007825032230
         H            0.200475289352     1.546694986529     0.000040963911     1.007825032230
         H            2.006911289352     0.235067986529     0.000006963911     1.007825032230

  Basis Set: AUG-CC-PVTZ
    Blend: AUG-CC-PVTZ
  Basis Set: (AUG-CC-PVTZ AUX)
    Blend: AUG-CC-PVTZ-JKFIT
	 Reference Energy          =    -133.1237186079065680 [Eh]
	 Singles Energy            =      -0.0000000000000000 [Eh]
	 Same-Spin Energy          =      -0.1341883878048535 [Eh]
	 Opposite-Spin Energy      =      -0.4733082349985449 [Eh]
	 Correlation Energy        =      -0.6074966228033984 [Eh]
	 Total Energy              =    -133.7312152307099780 [Eh]

	 ================> DF-SCS-MP2 Energies <==================
	-----------------------------------------------------------
	 SCS Same-Spin Scale       =       0.3333333333333333 [-]
	 SCS Opposite-Spin Scale   =       1.2000000000000000 [-]
	 SCS Same-Spin Energy      =      -0.0447294626016178 [Eh]
	 SCS Opposite-Spin Energy  =      -0.5679698819982538 [Eh]
	 SCS Correlation Energy    =      -0.6126993445998716 [Eh]
	 SCS Total Energy          =    -133.7364179525064287 [Eh]
	-----------------------------------------------------------

  Dipole Moment: [D]
     X:    -0.8244      Y:     1.9244      Z:     0.0000     Total:     2.0935

*** Psi4 exiting successfully. Buy a developer a beer!
