                               Psi4 1.4a3.dev225

  ==> Input File <==

--------------------------------------------------------------------------
#psi4
#
memory 32 gb

molecule  {
0 1
  N       -1.2071110    -0.3593690     0.0000070
  C        1.2028970    -0.1434370     0.0000120
  C       -0.2027070     0.4243923    -0.0000245
  H        1.1529110    -1.2333140     0.0000580
  H        1.7556810     0.1968570     0.8818310
  H        1.7556900     0.1967810    -0.8818300
  H       -0.2601790     1.5130940    -0.0000440
  H       -2.0667260     0.2013840     0.0000030
units angstrom
no_reorient  #important for SAPT in psi4, default
symmetry c1  #important for SAPT in psi4, default
}

set PROPERTIES_ORIGIN ["COM"]
properties('MP2/aug-cc-pvtz', properties = ['dipole'])
--------------------------------------------------------------------------

    Molecular point group: c1
  Charge       = 0
  Multiplicity = 1
  Basis Set: AUG-CC-PVTZ
    Blend: AUG-CC-PVTZ
  Basis Set: (AUG-CC-PVTZ AUX)
    Blend: AUG-CC-PVTZ-JKFIT

    Orbital Energies [Eh]
    ---------------------

    Doubly Occupied:

       1A    -15.554176     2A    -11.287329     3A    -11.228055
       4A     -1.208323     5A     -0.987784     6A     -0.779603
       7A     -0.693025     8A     -0.579334     9A     -0.560566
      10A     -0.544346    11A     -0.429105    12A     -0.424977

  @DF-RHF Final Energy:  -133.12703549985289

   => Energetics <=

    Nuclear Repulsion Energy =             70.6745033635507838
    One-Electron Energy =                -319.0498326536559262
    Two-Electron Energy =                 115.2482937902522337
    Total Energy =                       -133.1270354998528944
  Basis Set: (AUG-CC-PVTZ AUX)
    Blend: AUG-CC-PVTZ-RI
    Molecular point group: c1

    Geometry (in Angstrom), charge = 0, multiplicity = 1:

       Center              X                  Y                   Z               Mass
    ------------   -----------------  -----------------  -----------------  -----------------
         N           -1.147975601169    -0.341266770951     0.000007786150    14.003074004430
         C            1.262032398831    -0.125334770951     0.000012786150    12.000000000000
         C           -0.143571601169     0.442494529049    -0.000023713850    12.000000000000
         H            1.212046398831    -1.215211770951     0.000058786150     1.007825032230
         H            1.814816398831     0.214959229049     0.881831786150     1.007825032230
         H            1.814825398831     0.214883229049    -0.881829213850     1.007825032230
         H           -0.201043601169     1.531196229049    -0.000043213850     1.007825032230
         H           -2.007590601169     0.219486229049     0.000003786150     1.007825032230

  Basis Set: AUG-CC-PVTZ
    Blend: AUG-CC-PVTZ
  Basis Set: (AUG-CC-PVTZ AUX)
    Blend: AUG-CC-PVTZ-JKFIT
	 Reference Energy          =    -133.1270354998528944 [Eh]
	 Singles Energy            =      -0.0000000000000000 [Eh]
	 Same-Spin Energy          =      -0.1338619559772465 [Eh]
	 Opposite-Spin Energy      =      -0.4728093382064078 [Eh]
	 Correlation Energy        =      -0.6066712941836543 [Eh]
	 Total Energy              =    -133.7337067940365500 [Eh]

	 ================> DF-SCS-MP2 Energies <==================
	-----------------------------------------------------------
	 SCS Same-Spin Scale       =       0.3333333333333333 [-]
	 SCS Opposite-Spin Scale   =       1.2000000000000000 [-]
	 SCS Same-Spin Energy      =      -0.0446206519924155 [Eh]
	 SCS Opposite-Spin Energy  =      -0.5673712058476893 [Eh]
	 SCS Correlation Energy    =      -0.6119918578401048 [Eh]
	 SCS Total Energy          =    -133.7390273576930042 [Eh]
	-----------------------------------------------------------

  Dipole Moment: [D]
     X:     0.7492      Y:     1.9381      Z:    -0.0000     Total:     2.0779

*** Psi4 exiting successfully. Buy a developer a beer!
