                               Psi4 1.3.2 release

  ==> Input File <==

--------------------------------------------------------------------------
#psi4
#
memory 32 gb

molecule  {
0 1
  N        1.2070330    -0.3594050    -0.0000050
  C       -1.2028230    -0.1434160    -0.0000110
  C        0.3435723     0.2959489     0.0000144
  H       -1.1533220    -1.2333450    -0.0000600
  H       -1.7556310     0.1970070    -0.8817940
  H       -1.7556310     0.1969280     0.8818020
  H        0.2601390     1.5130950     0.0000410
  H        2.0665750     0.2014680     0.0000070
units angstrom
no_reorient  #important for SAPT in psi4, default
symmetry c1  #important for SAPT in psi4, default
}

set PROPERTIES_ORIGIN ["COM"]
properties('MP2/aug-cc-pvtz', properties = ['dipole'])
--------------------------------------------------------------------------

    Molecular point group: c1
  Charge       = 0
  Multiplicity = 1
  Basis Set: AUG-CC-PVTZ
    Blend: AUG-CC-PVTZ
  Basis Set: (AUG-CC-PVTZ AUX)
    Blend: AUG-CC-PVTZ-JKFIT

    Orbital Energies [Eh]
    ---------------------

    Doubly Occupied:

       1A    -15.537144     2A    -11.273456     3A    -11.221842
       4A     -1.308657     5A     -0.965731     6A     -0.759943
       7A     -0.703482     8A     -0.585375     9A     -0.577990
      10A     -0.536149    11A     -0.500405    12A     -0.376647

  @DF-RHF Final Energy:  -133.05476292599639

   => Energetics <=

    Nuclear Repulsion Energy =             72.7026389540490072
    One-Electron Energy =                -322.8211604216125465
    Two-Electron Energy =                 117.0637585415671396
    Total Energy =                       -133.0547629259963855
  Basis Set: (AUG-CC-PVTZ AUX)
    Blend: AUG-CC-PVTZ-RI
    Molecular point group: c1

    Geometry (in Angstrom), charge = 0, multiplicity = 1:

       Center              X                  Y                   Z               Mass
    ------------   -----------------  -----------------  -----------------  -----------------
         N            1.108641184554    -0.305495605101    -0.000004227580    14.003074004430
         C           -1.301214815446    -0.089506605101    -0.000010227580    12.000000000000
         C            0.245180484554     0.349858294899     0.000015172420    12.000000000000
         H           -1.251713815446    -1.179435605101    -0.000059227580     1.007825032230
         H           -1.854022815446     0.250916394899    -0.881793227580     1.007825032230
         H           -1.854022815446     0.250837394899     0.881802772420     1.007825032230
         H            0.161747184554     1.567004394899     0.000041772420     1.007825032230
         H            1.968183184554     0.255377394899     0.000007772420     1.007825032230

  Basis Set: AUG-CC-PVTZ
    Blend: AUG-CC-PVTZ
  Basis Set: (AUG-CC-PVTZ AUX)
    Blend: AUG-CC-PVTZ-JKFIT
	 Reference Energy          =    -133.0547629259963855 [Eh]
	 Singles Energy            =      -0.0000000000000000 [Eh]
	 Same-Spin Energy          =      -0.1321700768262123 [Eh]
	 Opposite-Spin Energy      =      -0.4666773044603667 [Eh]
	 Correlation Energy        =      -0.5988473812865790 [Eh]
	 Total Energy              =    -133.6536103072829746 [Eh]

	 ================> DF-SCS-MP2 Energies <==================
	-----------------------------------------------------------
	 SCS Same-Spin Scale       =       0.3333333333333333 [-]
	 SCS Opposite-Spin Scale   =       1.2000000000000000 [-]
	 SCS Same-Spin Energy      =      -0.0440566922754041 [Eh]
	 SCS Opposite-Spin Energy  =      -0.5600127653524400 [Eh]
	 SCS Correlation Energy    =      -0.6040694576278441 [Eh]
	 SCS Total Energy          =    -133.6588323836242296 [Eh]
	-----------------------------------------------------------

  Dipole Moment: [D]
     X:    -0.0465      Y:     1.4953      Z:     0.0000     Total:     1.4960

*** Psi4 exiting successfully. Buy a developer a beer!
