                               Psi4 1.3.2 release

  ==> Input File <==

--------------------------------------------------------------------------
#psi4
#
memory 32 gb

molecule  {
0 1
  N        1.2070330    -0.3594050    -0.0000050
  C       -1.2385272    -0.0452930    -0.0000095
  C        0.1842620     0.4168630     0.0000180
  H       -1.1533220    -1.2333450    -0.0000600
  H       -1.7556310     0.1970070    -0.8817940
  H       -1.7556310     0.1969280     0.8818020
  H        0.2601390     1.5130950     0.0000410
  H        2.0665750     0.2014680     0.0000070
units angstrom
no_reorient  #important for SAPT in psi4, default
symmetry c1  #important for SAPT in psi4, default
}

set PROPERTIES_ORIGIN ["COM"]
properties('MP2/aug-cc-pvtz', properties = ['dipole'])
--------------------------------------------------------------------------

    Molecular point group: c1
  Charge       = 0
  Multiplicity = 1
  Basis Set: AUG-CC-PVTZ
    Blend: AUG-CC-PVTZ
  Basis Set: (AUG-CC-PVTZ AUX)
    Blend: AUG-CC-PVTZ-JKFIT

    Orbital Energies [Eh]
    ---------------------

    Doubly Occupied:

       1A    -15.557312     2A    -11.289976     3A    -11.229832
       4A     -1.203841     5A     -0.996826     6A     -0.779061
       7A     -0.689544     8A     -0.607805     9A     -0.572277
      10A     -0.509411    11A     -0.430053    12A     -0.422836

  @DF-RHF Final Energy:  -133.11534476353356

   => Energetics <=

    Nuclear Repulsion Energy =             70.5581570970499428
    One-Electron Energy =                -318.7694583195719247
    Two-Electron Energy =                 115.0959564589884110
    Total Energy =                       -133.1153447635335567
  Basis Set: (AUG-CC-PVTZ AUX)
    Blend: AUG-CC-PVTZ-RI
    Molecular point group: c1

    Geometry (in Angstrom), charge = 0, multiplicity = 1:

       Center              X                  Y                   Z               Mass
    ------------   -----------------  -----------------  -----------------  -----------------
         N            1.163010478999    -0.366562308266    -0.000005649440    14.003074004430
         C           -1.282549721001    -0.052450308266    -0.000010149440    12.000000000000
         C            0.140239478999     0.409705691734     0.000017350560    12.000000000000
         H           -1.197344521001    -1.240502308266    -0.000060649440     1.007825032230
         H           -1.799653521001     0.189849691734    -0.881794649440     1.007825032230
         H           -1.799653521001     0.189770691734     0.881801350560     1.007825032230
         H            0.216116478999     1.505937691734     0.000040350560     1.007825032230
         H            2.022552478999     0.194310691734     0.000006350560     1.007825032230

  Basis Set: AUG-CC-PVTZ
    Blend: AUG-CC-PVTZ
  Basis Set: (AUG-CC-PVTZ AUX)
    Blend: AUG-CC-PVTZ-JKFIT
	 Reference Energy          =    -133.1153447635335567 [Eh]
	 Singles Energy            =      -0.0000000000000000 [Eh]
	 Same-Spin Energy          =      -0.1343244657650409 [Eh]
	 Opposite-Spin Energy      =      -0.4739344777001896 [Eh]
	 Correlation Energy        =      -0.6082589434652305 [Eh]
	 Total Energy              =    -133.7236037069987731 [Eh]

	 ================> DF-SCS-MP2 Energies <==================
	-----------------------------------------------------------
	 SCS Same-Spin Scale       =       0.3333333333333333 [-]
	 SCS Opposite-Spin Scale   =       1.2000000000000000 [-]
	 SCS Same-Spin Energy      =      -0.0447748219216803 [Eh]
	 SCS Opposite-Spin Energy  =      -0.5687213732402275 [Eh]
	 SCS Correlation Energy    =      -0.6134961951619078 [Eh]
	 SCS Total Energy          =    -133.7288409586954572 [Eh]
	-----------------------------------------------------------

  Dipole Moment: [D]
     X:    -0.7884      Y:     1.9376      Z:     0.0000     Total:     2.0919

*** Psi4 exiting successfully. Buy a developer a beer!
