                               Psi4 1.3.2 release

  ==> Input File <==

--------------------------------------------------------------------------
#psi4
#
memory 32 gb

molecule  {
0 1
  N        1.2070330    -0.3594050    -0.0000050
  C       -1.2028230    -0.1434160    -0.0000110
  C        0.2639171     0.3564059     0.0000162
  H       -1.1533220    -1.2333450    -0.0000600
  H       -1.7556310     0.1970070    -0.8817940
  H       -1.7556310     0.1969280     0.8818020
  H        0.2601390     1.5130950     0.0000410
  H        2.0665750     0.2014680     0.0000070
units angstrom
no_reorient  #important for SAPT in psi4, default
symmetry c1  #important for SAPT in psi4, default
}

set PROPERTIES_ORIGIN ["COM"]
properties('MP2/aug-cc-pvtz', properties = ['dipole'])
--------------------------------------------------------------------------

    Molecular point group: c1
  Charge       = 0
  Multiplicity = 1
  Basis Set: AUG-CC-PVTZ
    Blend: AUG-CC-PVTZ
  Basis Set: (AUG-CC-PVTZ AUX)
    Blend: AUG-CC-PVTZ-JKFIT

    Orbital Energies [Eh]
    ---------------------

    Doubly Occupied:

       1A    -15.545664     2A    -11.280569     3A    -11.225544
       4A     -1.251391     5A     -0.979581     6A     -0.763019
       7A     -0.701657     8A     -0.577180     9A     -0.572252
      10A     -0.539126    11A     -0.461092    12A     -0.405382

  @DF-RHF Final Energy:  -133.11573759031592

   => Energetics <=

    Nuclear Repulsion Energy =             71.5669817577122842
    One-Electron Energy =                -320.7605249973415198
    Two-Electron Energy =                 116.0778056493133192
    Total Energy =                       -133.1157375903159163
  Basis Set: (AUG-CC-PVTZ AUX)
    Blend: AUG-CC-PVTZ-RI
    Molecular point group: c1

    Geometry (in Angstrom), charge = 0, multiplicity = 1:

       Center              X                  Y                   Z               Mass
    ------------   -----------------  -----------------  -----------------  -----------------
         N            1.130848748724    -0.322350784764    -0.000004729413    14.003074004430
         C           -1.279007251276    -0.106361784764    -0.000010729413    12.000000000000
         C            0.187732848724     0.393460115236     0.000016470587    12.000000000000
         H           -1.229506251276    -1.196290784764    -0.000059729413     1.007825032230
         H           -1.831815251276     0.234061215236    -0.881793729413     1.007825032230
         H           -1.831815251276     0.233982215236     0.881802270587     1.007825032230
         H            0.183954748724     1.550149215236     0.000041270587     1.007825032230
         H            1.990390748724     0.238522215236     0.000007270587     1.007825032230

  Basis Set: AUG-CC-PVTZ
    Blend: AUG-CC-PVTZ
  Basis Set: (AUG-CC-PVTZ AUX)
    Blend: AUG-CC-PVTZ-JKFIT
	 Reference Energy          =    -133.1157375903159163 [Eh]
	 Singles Energy            =      -0.0000000000000000 [Eh]
	 Same-Spin Energy          =      -0.1327016058530308 [Eh]
	 Opposite-Spin Energy      =      -0.4692282877106418 [Eh]
	 Correlation Energy        =      -0.6019298935636727 [Eh]
	 Total Energy              =    -133.7176674838795805 [Eh]

	 ================> DF-SCS-MP2 Energies <==================
	-----------------------------------------------------------
	 SCS Same-Spin Scale       =       0.3333333333333333 [-]
	 SCS Opposite-Spin Scale   =       1.2000000000000000 [-]
	 SCS Same-Spin Energy      =      -0.0442338686176769 [Eh]
	 SCS Opposite-Spin Energy  =      -0.5630739452527702 [Eh]
	 SCS Correlation Energy    =      -0.6073078138704472 [Eh]
	 SCS Total Energy          =    -133.7230454041863652 [Eh]
	-----------------------------------------------------------

  Dipole Moment: [D]
     X:    -0.4894      Y:     1.7658      Z:     0.0000     Total:     1.8324

*** Psi4 exiting successfully. Buy a developer a beer!
