                               Psi4 1.4a3.dev225

  ==> Input File <==

--------------------------------------------------------------------------
#psi4
#
memory 32 gb

molecule  {
0 1
  N       -1.2071110    -0.3593690     0.0000070
  C        1.2028970    -0.1434370     0.0000120
  C       -0.1682310     0.4289911    -0.0000245
  H        1.1529110    -1.2333140     0.0000580
  H        1.7556810     0.1968570     0.8818310
  H        1.7556900     0.1967810    -0.8818300
  H       -0.2601790     1.5130940    -0.0000440
  H       -2.0667260     0.2013840     0.0000030
units angstrom
no_reorient  #important for SAPT in psi4, default
symmetry c1  #important for SAPT in psi4, default
}

set PROPERTIES_ORIGIN ["COM"]
properties('MP2/aug-cc-pvtz', properties = ['dipole'])
--------------------------------------------------------------------------

    Molecular point group: c1
  Charge       = 0
  Multiplicity = 1
  Basis Set: AUG-CC-PVTZ
    Blend: AUG-CC-PVTZ
  Basis Set: (AUG-CC-PVTZ AUX)
    Blend: AUG-CC-PVTZ-JKFIT

    Orbital Energies [Eh]
    ---------------------

    Doubly Occupied:

       1A    -15.555893     2A    -11.290228     3A    -11.228992
       4A     -1.195393     5A     -0.995246     6A     -0.781901
       7A     -0.688774     8A     -0.583144     9A     -0.564902
      10A     -0.544161    11A     -0.427183    12A     -0.418385

  @DF-RHF Final Energy:  -133.12458733016945

   => Energetics <=

    Nuclear Repulsion Energy =             70.5566508378285988
    One-Electron Energy =                -318.8140720576490139
    Two-Electron Energy =                 115.1328338896509536
    Total Energy =                       -133.1245873301694473
  Basis Set: (AUG-CC-PVTZ AUX)
    Blend: AUG-CC-PVTZ-RI
    Molecular point group: c1

    Geometry (in Angstrom), charge = 0, multiplicity = 1:

       Center              X                  Y                   Z               Mass
    ------------   -----------------  -----------------  -----------------  -----------------
         N           -1.157587377705    -0.342548898748     0.000007786150    14.003074004430
         C            1.252420622295    -0.126616898748     0.000012786150    12.000000000000
         C           -0.118707377705     0.445811201252    -0.000023713850    12.000000000000
         H            1.202434622295    -1.216493898748     0.000058786150     1.007825032230
         H            1.805204622295     0.213677101252     0.881831786150     1.007825032230
         H            1.805213622295     0.213601101252    -0.881829213850     1.007825032230
         H           -0.210655377705     1.529914101252    -0.000043213850     1.007825032230
         H           -2.017202377705     0.218204101252     0.000003786150     1.007825032230

  Basis Set: AUG-CC-PVTZ
    Blend: AUG-CC-PVTZ
  Basis Set: (AUG-CC-PVTZ AUX)
    Blend: AUG-CC-PVTZ-JKFIT
	 Reference Energy          =    -133.1245873301694473 [Eh]
	 Singles Energy            =      -0.0000000000000000 [Eh]
	 Same-Spin Energy          =      -0.1345423954679821 [Eh]
	 Opposite-Spin Energy      =      -0.4742356099870505 [Eh]
	 Correlation Energy        =      -0.6087780054550326 [Eh]
	 Total Energy              =    -133.7333653356244838 [Eh]

	 ================> DF-SCS-MP2 Energies <==================
	-----------------------------------------------------------
	 SCS Same-Spin Scale       =       0.3333333333333333 [-]
	 SCS Opposite-Spin Scale   =       1.2000000000000000 [-]
	 SCS Same-Spin Energy      =      -0.0448474651559940 [Eh]
	 SCS Opposite-Spin Energy  =      -0.5690827319844606 [Eh]
	 SCS Correlation Energy    =      -0.6139301971404546 [Eh]
	 SCS Total Energy          =    -133.7385175273099094 [Eh]
	-----------------------------------------------------------

  Dipole Moment: [D]
     X:     0.8719      Y:     1.9455      Z:    -0.0000     Total:     2.1319

*** Psi4 exiting successfully. Buy a developer a beer!
