                               Psi4 1.3.2 release

  ==> Input File <==

--------------------------------------------------------------------------
#psi4
#
memory 32 gb

molecule  {
0 1
  N        1.2070330    -0.3594050    -0.0000050
  C       -1.2028230    -0.1434160    -0.0000110
  C        0.1842620     0.4168630     0.0000180
  H       -1.1533220    -1.2333450    -0.0000600
  H       -1.7556310     0.1970070    -0.8817940
  H       -1.7556310     0.1969280     0.8818020
  H        0.2601390     1.5130950     0.0000410
  H        2.0665750     0.2014680     0.0000070
units angstrom
no_reorient  #important for SAPT in psi4, default
symmetry c1  #important for SAPT in psi4, default
}

set PROPERTIES_ORIGIN ["COM"]
properties('MP2/aug-cc-pvtz', properties = ['dipole'])
--------------------------------------------------------------------------

    Molecular point group: c1
  Charge       = 0
  Multiplicity = 1
  Basis Set: AUG-CC-PVTZ
    Blend: AUG-CC-PVTZ
  Basis Set: (AUG-CC-PVTZ AUX)
    Blend: AUG-CC-PVTZ-JKFIT

    Orbital Energies [Eh]
    ---------------------

    Doubly Occupied:

       1A    -15.554311     2A    -11.288555     3A    -11.228433
       4A     -1.203644     5A     -0.992768     6A     -0.778342
       7A     -0.691047     8A     -0.581892     9A     -0.564456
      10A     -0.544321    11A     -0.425009    12A     -0.424683

  @DF-RHF Final Energy:  -133.12674789276008

   => Energetics <=

    Nuclear Repulsion Energy =             70.7050276301869616
    One-Electron Energy =                -319.1086295451851811
    Two-Electron Energy =                 115.2768540222381262
    Total Energy =                       -133.1267478927600791
  Basis Set: (AUG-CC-PVTZ AUX)
    Blend: AUG-CC-PVTZ-RI
    Molecular point group: c1

    Geometry (in Angstrom), charge = 0, multiplicity = 1:

       Center              X                  Y                   Z               Mass
    ------------   -----------------  -----------------  -----------------  -----------------
         N            1.153056285015    -0.339205992306    -0.000005231246    14.003074004430
         C           -1.256799714985    -0.123216992306    -0.000011231246    12.000000000000
         C            0.130285285015     0.437062007694     0.000017768754    12.000000000000
         H           -1.207298714985    -1.213145992306    -0.000060231246     1.007825032230
         H           -1.809607714985     0.217206007694    -0.881794231246     1.007825032230
         H           -1.809607714985     0.217127007694     0.881801768754     1.007825032230
         H            0.206162285015     1.533294007694     0.000040768754     1.007825032230
         H            2.012598285015     0.221667007694     0.000006768754     1.007825032230

  Basis Set: AUG-CC-PVTZ
    Blend: AUG-CC-PVTZ
  Basis Set: (AUG-CC-PVTZ AUX)
    Blend: AUG-CC-PVTZ-JKFIT
	 Reference Energy          =    -133.1267478927600791 [Eh]
	 Singles Energy            =      -0.0000000000000000 [Eh]
	 Same-Spin Energy          =      -0.1341382794179780 [Eh]
	 Opposite-Spin Energy      =      -0.4732388204582464 [Eh]
	 Correlation Energy        =      -0.6073770998762245 [Eh]
	 Total Energy              =    -133.7341249926363105 [Eh]

	 ================> DF-SCS-MP2 Energies <==================
	-----------------------------------------------------------
	 SCS Same-Spin Scale       =       0.3333333333333333 [-]
	 SCS Opposite-Spin Scale   =       1.2000000000000000 [-]
	 SCS Same-Spin Energy      =      -0.0447127598059927 [Eh]
	 SCS Opposite-Spin Energy  =      -0.5678865845498956 [Eh]
	 SCS Correlation Energy    =      -0.6125993443558883 [Eh]
	 SCS Total Energy          =    -133.7393472371159646 [Eh]
	-----------------------------------------------------------

  Dipole Moment: [D]
     X:    -0.8175      Y:     1.9250      Z:     0.0000     Total:     2.0914

*** Psi4 exiting successfully. Buy a developer a beer!
