                               Psi4 1.3.2 release

  ==> Input File <==

--------------------------------------------------------------------------
#psi4
#
memory 32 gb

molecule  {
0 1
  N        1.2070330    -0.3594050    -0.0000050
  C       -1.2028230    -0.1434160    -0.0000110
  C        0.2352285     0.2688039     0.0000115
  H       -1.1533220    -1.2333450    -0.0000600
  H       -1.7556310     0.1970070    -0.8817940
  H       -1.7556310     0.1969280     0.8818020
  H        0.2601390     1.5130950     0.0000410
  H        2.0665750     0.2014680     0.0000070
units angstrom
no_reorient  #important for SAPT in psi4, default
symmetry c1  #important for SAPT in psi4, default
}

set PROPERTIES_ORIGIN ["COM"]
properties('MP2/aug-cc-pvtz', properties = ['dipole'])
--------------------------------------------------------------------------

    Molecular point group: c1
  Charge       = 0
  Multiplicity = 1
  Basis Set: AUG-CC-PVTZ
    Blend: AUG-CC-PVTZ
  Basis Set: (AUG-CC-PVTZ AUX)
    Blend: AUG-CC-PVTZ-JKFIT

    Orbital Energies [Eh]
    ---------------------

    Doubly Occupied:

       1A    -15.542396     2A    -11.282153     3A    -11.227993
       4A     -1.263721     5A     -0.995292     6A     -0.761291
       7A     -0.690865     8A     -0.595044     9A     -0.586721
      10A     -0.537014    11A     -0.469643    12A     -0.388141

  @DF-RHF Final Energy:  -133.09855058730619

   => Energetics <=

    Nuclear Repulsion Energy =             72.3285672828750563
    One-Electron Energy =                -322.1736873616529806
    Two-Electron Energy =                 116.7465694914717460
    Total Energy =                       -133.0985505873061925
  Basis Set: (AUG-CC-PVTZ AUX)
    Blend: AUG-CC-PVTZ-RI
    Molecular point group: c1

    Geometry (in Angstrom), charge = 0, multiplicity = 1:

       Center              X                  Y                   Z               Mass
    ------------   -----------------  -----------------  -----------------  -----------------
         N            1.138847020343    -0.297927683240    -0.000003419071    14.003074004430
         C           -1.271008979657    -0.081938683240    -0.000009419071    12.000000000000
         C            0.167042520343     0.330281216760     0.000013080929    12.000000000000
         H           -1.221507979657    -1.171867683240    -0.000058419071     1.007825032230
         H           -1.823816979657     0.258484316760    -0.881792419071     1.007825032230
         H           -1.823816979657     0.258405316760     0.881803580929     1.007825032230
         H            0.191953020343     1.574572316760     0.000042580929     1.007825032230
         H            1.998389020343     0.262945316760     0.000008580929     1.007825032230

  Basis Set: AUG-CC-PVTZ
    Blend: AUG-CC-PVTZ
  Basis Set: (AUG-CC-PVTZ AUX)
    Blend: AUG-CC-PVTZ-JKFIT
	 Reference Energy          =    -133.0985505873061925 [Eh]
	 Singles Energy            =      -0.0000000000000000 [Eh]
	 Same-Spin Energy          =      -0.1329655979735282 [Eh]
	 Opposite-Spin Energy      =      -0.4687755128459524 [Eh]
	 Correlation Energy        =      -0.6017411108194806 [Eh]
	 Total Energy              =    -133.7002916981256817 [Eh]

	 ================> DF-SCS-MP2 Energies <==================
	-----------------------------------------------------------
	 SCS Same-Spin Scale       =       0.3333333333333333 [-]
	 SCS Opposite-Spin Scale   =       1.2000000000000000 [-]
	 SCS Same-Spin Energy      =      -0.0443218659911761 [Eh]
	 SCS Opposite-Spin Energy  =      -0.5625306154151428 [Eh]
	 SCS Correlation Energy    =      -0.6068524814063189 [Eh]
	 SCS Total Energy          =    -133.7054030687125135 [Eh]
	-----------------------------------------------------------

  Dipole Moment: [D]
     X:    -0.5656      Y:     1.4491      Z:     0.0000     Total:     1.5556

*** Psi4 exiting successfully. Buy a developer a beer!
