                               Psi4 1.3.2 release

  ==> Input File <==

--------------------------------------------------------------------------
#psi4
#
memory 32 gb

molecule  {
0 1
  N        1.2070330    -0.3594050    -0.0000050
  C       -1.2028230    -0.1434160    -0.0000110
  C        0.2029705     0.3681131     0.0000159
  H       -1.1533220    -1.2333450    -0.0000600
  H       -1.7556310     0.1970070    -0.8817940
  H       -1.7556310     0.1969280     0.8818020
  H        0.2601390     1.5130950     0.0000410
  H        2.0665750     0.2014680     0.0000070
units angstrom
no_reorient  #important for SAPT in psi4, default
symmetry c1  #important for SAPT in psi4, default
}

set PROPERTIES_ORIGIN ["COM"]
properties('MP2/aug-cc-pvtz', properties = ['dipole'])
--------------------------------------------------------------------------

    Molecular point group: c1
  Charge       = 0
  Multiplicity = 1
  Basis Set: AUG-CC-PVTZ
    Blend: AUG-CC-PVTZ
  Basis Set: (AUG-CC-PVTZ AUX)
    Blend: AUG-CC-PVTZ-JKFIT

    Orbital Energies [Eh]
    ---------------------

    Doubly Occupied:

       1A    -15.549786     2A    -11.285798     3A    -11.227596
       4A     -1.222634     5A     -0.993210     6A     -0.767680
       7A     -0.693904     8A     -0.582691     9A     -0.573242
      10A     -0.541810    11A     -0.439270    12A     -0.414491

  @DF-RHF Final Energy:  -133.12590643204575

   => Energetics <=

    Nuclear Repulsion Energy =             71.2224769407405063
    One-Electron Energy =                -320.1125399316554194
    Two-Electron Energy =                 115.7641565588691606
    Total Energy =                       -133.1259064320457526
  Basis Set: (AUG-CC-PVTZ AUX)
    Blend: AUG-CC-PVTZ-RI
    Molecular point group: c1

    Geometry (in Angstrom), charge = 0, multiplicity = 1:

       Center              X                  Y                   Z               Mass
    ------------   -----------------  -----------------  -----------------  -----------------
         N            1.147840426988    -0.325614707210    -0.000004645774    14.003074004430
         C           -1.262015573012    -0.109625707210    -0.000010645774    12.000000000000
         C            0.143777926988     0.401903392790     0.000016254226    12.000000000000
         H           -1.212514573012    -1.199554707210    -0.000059645774     1.007825032230
         H           -1.814823573012     0.230797292790    -0.881793645774     1.007825032230
         H           -1.814823573012     0.230718292790     0.881802354226     1.007825032230
         H            0.200946426988     1.546885292790     0.000041354226     1.007825032230
         H            2.007382426988     0.235258292790     0.000007354226     1.007825032230

  Basis Set: AUG-CC-PVTZ
    Blend: AUG-CC-PVTZ
  Basis Set: (AUG-CC-PVTZ AUX)
    Blend: AUG-CC-PVTZ-JKFIT
	 Reference Energy          =    -133.1259064320457526 [Eh]
	 Singles Energy            =      -0.0000000000000000 [Eh]
	 Same-Spin Energy          =      -0.1335475208355291 [Eh]
	 Opposite-Spin Energy      =      -0.4712992538290676 [Eh]
	 Correlation Energy        =      -0.6048467746645967 [Eh]
	 Total Energy              =    -133.7307532067103466 [Eh]

	 ================> DF-SCS-MP2 Energies <==================
	-----------------------------------------------------------
	 SCS Same-Spin Scale       =       0.3333333333333333 [-]
	 SCS Opposite-Spin Scale   =       1.2000000000000000 [-]
	 SCS Same-Spin Energy      =      -0.0445158402785097 [Eh]
	 SCS Opposite-Spin Energy  =      -0.5655591045948810 [Eh]
	 SCS Correlation Energy    =      -0.6100749448733908 [Eh]
	 SCS Total Energy          =    -133.7359813769191419 [Eh]
	-----------------------------------------------------------

  Dipole Moment: [D]
     X:    -0.7468      Y:     1.8157      Z:     0.0000     Total:     1.9633

*** Psi4 exiting successfully. Buy a developer a beer!
