                               Psi4 1.3.2 release

  ==> Input File <==

--------------------------------------------------------------------------
#psi4
#
memory 32 gb

molecule  {
0 1
  N        0.9996340     1.7721850     0.3204360
  N       -1.4856460     0.8456190    -0.6184330
  C        0.4210120    -0.5622280    -0.0768460
  C        1.3959190     0.4607190     0.0923330
  C       -1.1213589    -0.3094133    -0.0112677
  C        0.8423560    -1.8835050    -0.2823050
  C        2.7530010     0.0889630     0.1086070
  C        2.1912380    -2.2332610    -0.2798300
  C        3.1442100    -1.2359490    -0.0781950
  C       -1.9074690    -1.1902190     0.5957330
  C       -3.2772020    -0.9437210     0.5761060
  C        1.9752090     2.8430570     0.2492220
  C       -2.8095250     1.0776250    -0.6159580
  C       -3.7438200     0.2120800    -0.0497060
  H        0.0898220    -2.6479260    -0.4670950
  H        3.5165330     0.8472870     0.2502520
  H        0.1131400     1.9772450    -0.1334260
  H        2.4918570    -3.2637390    -0.4496120
  H        4.2036760    -1.4834020    -0.0698800
  H       -1.5082140    -2.0621420     1.1053590
  H       -3.9675240    -1.6332930     1.0562410
  H        2.5505250     2.8512150    -0.6889090
  H        2.6804910     2.7762290     1.0829750
  H        1.4421210     3.7916170     0.3400310
  H       -3.1269050     2.0013970    -1.0972120
  H       -4.8034740     0.4484120    -0.0854480
units angstrom
no_reorient  #important for SAPT in psi4, default
symmetry c1  #important for SAPT in psi4, default
}

set PROPERTIES_ORIGIN ["COM"]
properties('MP2/aug-cc-pvtz', properties = ['dipole'])
--------------------------------------------------------------------------

    Molecular point group: c1
  Charge       = 0
  Multiplicity = 1
  Basis Set: AUG-CC-PVTZ
    Blend: AUG-CC-PVTZ
  Basis Set: (AUG-CC-PVTZ AUX)
    Blend: AUG-CC-PVTZ-JKFIT

    Orbital Energies [Eh]
    ---------------------

    Doubly Occupied:

       1A    -15.572403     2A    -15.547481     3A    -11.285062
       4A    -11.284844     5A    -11.275047     6A    -11.267975
       7A    -11.246732     8A    -11.245053     9A    -11.235417
      10A    -11.234625    11A    -11.232117    12A    -11.231463
      13A    -11.217150    14A    -11.215146    15A     -1.269329
      16A     -1.226816    17A     -1.127241    18A     -1.097957
      19A     -1.059440    20A     -0.996332    21A     -0.992317
      22A     -0.912300    23A     -0.870444    24A     -0.863363
      25A     -0.803990    26A     -0.793246    27A     -0.720492
      28A     -0.695289    29A     -0.673545    30A     -0.655661
      31A     -0.649566    32A     -0.623584    33A     -0.605953
      34A     -0.599459    35A     -0.590366    36A     -0.576224
      37A     -0.564125    38A     -0.554361    39A     -0.532760
      40A     -0.524280    41A     -0.499355    42A     -0.492242
      43A     -0.482138    44A     -0.429318    45A     -0.416231
      46A     -0.388719    47A     -0.371592    48A     -0.319814
      49A     -0.278153

  @DF-RHF Final Energy:  -570.48061062043087

   => Energetics <=

    Nuclear Repulsion Energy =            818.3876546602768940
    One-Electron Energy =               -2397.0434976227384141
    Two-Electron Energy =                1008.1752323420306539
    Total Energy =                       -570.4806106204308662
  Basis Set: (AUG-CC-PVTZ AUX)
    Blend: AUG-CC-PVTZ-RI
    Molecular point group: c1

    Geometry (in Angstrom), charge = 0, multiplicity = 1:

       Center              X                  Y                   Z               Mass
    ------------   -----------------  -----------------  -----------------  -----------------
         N            1.025337201602     1.792944536369     0.323631435239    14.003074004430
         N           -1.459942798398     0.866378536369    -0.615237564761    14.003074004430
         C            0.446715201602    -0.541468463631    -0.073650564761    12.000000000000
         C            1.421622201602     0.481478536369     0.095528435239    12.000000000000
         C           -1.095655698398    -0.288653763631    -0.008072264761    12.000000000000
         C            0.868059201602    -1.862745463631    -0.279109564761    12.000000000000
         C            2.778704201602     0.109722536369     0.111802435239    12.000000000000
         C            2.216941201602    -2.212501463631    -0.276634564761    12.000000000000
         C            3.169913201602    -1.215189463631    -0.074999564761    12.000000000000
         C           -1.881765798398    -1.169459463631     0.598928435239    12.000000000000
         C           -3.251498798398    -0.922961463631     0.579301435239    12.000000000000
         C            2.000912201602     2.863816536369     0.252417435239    12.000000000000
         C           -2.783821798398     1.098384536369    -0.612762564761    12.000000000000
         C           -3.718116798398     0.232839536369    -0.046510564761    12.000000000000
         H            0.115525201602    -2.627166463631    -0.463899564761     1.007825032230
         H            3.542236201602     0.868046536369     0.253447435239     1.007825032230
         H            0.138843201602     1.998004536369    -0.130230564761     1.007825032230
         H            2.517560201602    -3.242979463631    -0.446416564761     1.007825032230
         H            4.229379201602    -1.462642463631    -0.066684564761     1.007825032230
         H           -1.482510798398    -2.041382463631     1.108554435239     1.007825032230
         H           -3.941820798398    -1.612533463631     1.059436435239     1.007825032230
         H            2.576228201602     2.871974536369    -0.685713564761     1.007825032230
         H            2.706194201602     2.796988536369     1.086170435239     1.007825032230
         H            1.467824201602     3.812376536369     0.343226435239     1.007825032230
         H           -3.101201798398     2.022156536369    -1.094016564761     1.007825032230
         H           -4.777770798398     0.469171536369    -0.082252564761     1.007825032230

  Basis Set: AUG-CC-PVTZ
    Blend: AUG-CC-PVTZ
  Basis Set: (AUG-CC-PVTZ AUX)
    Blend: AUG-CC-PVTZ-JKFIT
	 Reference Energy          =    -570.4806106204308662 [Eh]
	 Singles Energy            =      -0.0000000000000000 [Eh]
	 Same-Spin Energy          =      -0.6386953762090594 [Eh]
	 Opposite-Spin Energy      =      -1.9757408041323039 [Eh]
	 Correlation Energy        =      -2.6144361803413632 [Eh]
	 Total Energy              =    -573.0950468007722520 [Eh]

	 ================> DF-SCS-MP2 Energies <==================
	-----------------------------------------------------------
	 SCS Same-Spin Scale       =       0.3333333333333333 [-]
	 SCS Opposite-Spin Scale   =       1.2000000000000000 [-]
	 SCS Same-Spin Energy      =      -0.2128984587363531 [Eh]
	 SCS Opposite-Spin Energy  =      -2.3708889649587648 [Eh]
	 SCS Correlation Energy    =      -2.5837874236951177 [Eh]
	 SCS Total Energy          =    -573.0643980441259373 [Eh]
	-----------------------------------------------------------

  Dipole Moment: [D]
     X:    -2.2036      Y:     0.1983      Z:     0.3760     Total:     2.2442

*** Psi4 exiting successfully. Buy a developer a beer!
