                               Psi4 1.3.2 release

  ==> Input File <==

--------------------------------------------------------------------------
#psi4
#
memory 32 gb

molecule  {
0 1
  N        0.9996340     1.7721850     0.3204360
  N       -1.4411833     0.8561303    -0.6306314
  C        0.4210120    -0.5622280    -0.0768460
  C        1.3959190     0.4607190     0.0923330
  C       -1.0315900    -0.2881510    -0.0320430
  C        0.8423560    -1.8835050    -0.2823050
  C        2.7530010     0.0889630     0.1086070
  C        2.1912380    -2.2332610    -0.2798300
  C        3.1442100    -1.2359490    -0.0781950
  C       -1.9074690    -1.1902190     0.5957330
  C       -3.2772020    -0.9437210     0.5761060
  C        1.9752090     2.8430570     0.2492220
  C       -2.8095250     1.0776250    -0.6159580
  C       -3.7438200     0.2120800    -0.0497060
  H        0.0898220    -2.6479260    -0.4670950
  H        3.5165330     0.8472870     0.2502520
  H        0.1131400     1.9772450    -0.1334260
  H        2.4918570    -3.2637390    -0.4496120
  H        4.2036760    -1.4834020    -0.0698800
  H       -1.5082140    -2.0621420     1.1053590
  H       -3.9675240    -1.6332930     1.0562410
  H        2.5505250     2.8512150    -0.6889090
  H        2.6804910     2.7762290     1.0829750
  H        1.4421210     3.7916170     0.3400310
  H       -3.1269050     2.0013970    -1.0972120
  H       -4.8034740     0.4484120    -0.0854480
units angstrom
no_reorient  #important for SAPT in psi4, default
symmetry c1  #important for SAPT in psi4, default
}

set PROPERTIES_ORIGIN ["COM"]
properties('MP2/aug-cc-pvtz', properties = ['dipole'])
--------------------------------------------------------------------------

    Molecular point group: c1
  Charge       = 0
  Multiplicity = 1
  Basis Set: AUG-CC-PVTZ
    Blend: AUG-CC-PVTZ
  Basis Set: (AUG-CC-PVTZ AUX)
    Blend: AUG-CC-PVTZ-JKFIT

    Orbital Energies [Eh]
    ---------------------

    Doubly Occupied:

       1A    -15.574299     2A    -15.549029     3A    -11.290533
       4A    -11.286443     5A    -11.278272     6A    -11.265503
       7A    -11.247927     8A    -11.244414     9A    -11.242566
      10A    -11.236716    11A    -11.235333    12A    -11.231906
      13A    -11.219402    14A    -11.217782    15A     -1.257113
      16A     -1.226098    17A     -1.131314    18A     -1.090851
      19A     -1.057909    20A     -0.998148    21A     -0.992486
      22A     -0.915181    23A     -0.868109    24A     -0.863014
      25A     -0.802638    26A     -0.795597    27A     -0.719843
      28A     -0.696503    29A     -0.670319    30A     -0.658332
      31A     -0.648235    32A     -0.621763    33A     -0.607555
      34A     -0.601736    35A     -0.589348    36A     -0.576252
      37A     -0.566988    38A     -0.545326    39A     -0.533166
      40A     -0.527566    41A     -0.501718    42A     -0.496125
      43A     -0.489441    44A     -0.427873    45A     -0.417434
      46A     -0.388907    47A     -0.364857    48A     -0.317998
      49A     -0.279135

  @DF-RHF Final Energy:  -570.48501055399834

   => Energetics <=

    Nuclear Repulsion Energy =            818.2318173185561818
    One-Electron Energy =               -2396.7036576645523382
    Two-Electron Energy =                1007.9868297919977067
    Total Energy =                       -570.4850105539983360
  Basis Set: (AUG-CC-PVTZ AUX)
    Blend: AUG-CC-PVTZ-RI
    Molecular point group: c1

    Geometry (in Angstrom), charge = 0, multiplicity = 1:

       Center              X                  Y                   Z               Mass
    ------------   -----------------  -----------------  -----------------  -----------------
         N            1.016103954281     1.790759104506     0.325913448208    14.003074004430
         N           -1.424713345719     0.874704404506    -0.625153951792    14.003074004430
         C            0.437481954281    -0.543653895494    -0.071368551792    12.000000000000
         C            1.412388954281     0.479293104506     0.097810448208    12.000000000000
         C           -1.015120045719    -0.269576895494    -0.026565551792    12.000000000000
         C            0.858825954281    -1.864930895494    -0.276827551792    12.000000000000
         C            2.769470954281     0.107537104506     0.114084448208    12.000000000000
         C            2.207707954281    -2.214686895494    -0.274352551792    12.000000000000
         C            3.160679954281    -1.217374895494    -0.072717551792    12.000000000000
         C           -1.890999045719    -1.171644895494     0.601210448208    12.000000000000
         C           -3.260732045719    -0.925146895494     0.581583448208    12.000000000000
         C            1.991678954281     2.861631104506     0.254699448208    12.000000000000
         C           -2.793055045719     1.096199104506    -0.610480551792    12.000000000000
         C           -3.727350045719     0.230654104506    -0.044228551792    12.000000000000
         H            0.106291954281    -2.629351895494    -0.461617551792     1.007825032230
         H            3.533002954281     0.865861104506     0.255729448208     1.007825032230
         H            0.129609954281     1.995819104506    -0.127948551792     1.007825032230
         H            2.508326954281    -3.245164895494    -0.444134551792     1.007825032230
         H            4.220145954281    -1.464827895494    -0.064402551792     1.007825032230
         H           -1.491744045719    -2.043567895494     1.110836448208     1.007825032230
         H           -3.951054045719    -1.614718895494     1.061718448208     1.007825032230
         H            2.566994954281     2.869789104506    -0.683431551792     1.007825032230
         H            2.696960954281     2.794803104506     1.088452448208     1.007825032230
         H            1.458590954281     3.810191104506     0.345508448208     1.007825032230
         H           -3.110435045719     2.019971104506    -1.091734551792     1.007825032230
         H           -4.787004045719     0.466986104506    -0.079970551792     1.007825032230

  Basis Set: AUG-CC-PVTZ
    Blend: AUG-CC-PVTZ
  Basis Set: (AUG-CC-PVTZ AUX)
    Blend: AUG-CC-PVTZ-JKFIT
	 Reference Energy          =    -570.4850105539983360 [Eh]
	 Singles Energy            =      -0.0000000000000000 [Eh]
	 Same-Spin Energy          =      -0.6399999688082396 [Eh]
	 Opposite-Spin Energy      =      -1.9781405729341630 [Eh]
	 Correlation Energy        =      -2.6181405417424024 [Eh]
	 Total Energy              =    -573.1031510957407136 [Eh]

	 ================> DF-SCS-MP2 Energies <==================
	-----------------------------------------------------------
	 SCS Same-Spin Scale       =       0.3333333333333333 [-]
	 SCS Opposite-Spin Scale   =       1.2000000000000000 [-]
	 SCS Same-Spin Energy      =      -0.2133333229360799 [Eh]
	 SCS Opposite-Spin Energy  =      -2.3737686875209953 [Eh]
	 SCS Correlation Energy    =      -2.5871020104570750 [Eh]
	 SCS Total Energy          =    -573.0721125644554377 [Eh]
	-----------------------------------------------------------

  Dipole Moment: [D]
     X:    -1.8837      Y:     0.1326      Z:     0.3855     Total:     1.9273

*** Psi4 exiting successfully. Buy a developer a beer!
