                               Psi4 1.3.2 release

  ==> Input File <==

--------------------------------------------------------------------------
#psi4
#
memory 32 gb

molecule  {
0 1
  N        0.9996340     1.7721850     0.3204360
  N       -1.4856460     0.8456190    -0.6184330
  C        0.4210120    -0.5622280    -0.0768460
  C        1.4748459     0.4788847     0.1456108
  C       -1.0315900    -0.2881510    -0.0320430
  C        0.8423560    -1.8835050    -0.2823050
  C        2.7530010     0.0889630     0.1086070
  C        2.1912380    -2.2332610    -0.2798300
  C        3.1442100    -1.2359490    -0.0781950
  C       -1.9074690    -1.1902190     0.5957330
  C       -3.2772020    -0.9437210     0.5761060
  C        1.9752090     2.8430570     0.2492220
  C       -2.8095250     1.0776250    -0.6159580
  C       -3.7438200     0.2120800    -0.0497060
  H        0.0898220    -2.6479260    -0.4670950
  H        3.5165330     0.8472870     0.2502520
  H        0.1131400     1.9772450    -0.1334260
  H        2.4918570    -3.2637390    -0.4496120
  H        4.2036760    -1.4834020    -0.0698800
  H       -1.5082140    -2.0621420     1.1053590
  H       -3.9675240    -1.6332930     1.0562410
  H        2.5505250     2.8512150    -0.6889090
  H        2.6804910     2.7762290     1.0829750
  H        1.4421210     3.7916170     0.3400310
  H       -3.1269050     2.0013970    -1.0972120
  H       -4.8034740     0.4484120    -0.0854480
units angstrom
no_reorient  #important for SAPT in psi4, default
symmetry c1  #important for SAPT in psi4, default
}

set PROPERTIES_ORIGIN ["COM"]
properties('MP2/aug-cc-pvtz', properties = ['dipole'])
--------------------------------------------------------------------------

    Molecular point group: c1
  Charge       = 0
  Multiplicity = 1
  Basis Set: AUG-CC-PVTZ
    Blend: AUG-CC-PVTZ
  Basis Set: (AUG-CC-PVTZ AUX)
    Blend: AUG-CC-PVTZ-JKFIT

    Orbital Energies [Eh]
    ---------------------

    Doubly Occupied:

       1A    -15.569089     2A    -15.549850     3A    -11.290950
       4A    -11.281570     5A    -11.277571     6A    -11.263483
       7A    -11.246149     8A    -11.242971     9A    -11.242207
      10A    -11.240285    11A    -11.237217    12A    -11.236576
      13A    -11.218911    14A    -11.211289    15A     -1.262784
      16A     -1.228908    17A     -1.131896    18A     -1.089215
      19A     -1.061279    20A     -1.007430    21A     -0.986492
      22A     -0.914388    23A     -0.874161    24A     -0.859947
      25A     -0.807372    26A     -0.789019    27A     -0.721101
      28A     -0.702448    29A     -0.669647    30A     -0.660297
      31A     -0.646964    32A     -0.626105    33A     -0.608343
      34A     -0.603947    35A     -0.588658    36A     -0.575373
      37A     -0.565387    38A     -0.548788    39A     -0.534683
      40A     -0.527528    41A     -0.504246    42A     -0.501097
      43A     -0.479459    44A     -0.423741    45A     -0.415535
      46A     -0.388690    47A     -0.367519    48A     -0.320706
      49A     -0.278242

  @DF-RHF Final Energy:  -570.48031222219856

   => Energetics <=

    Nuclear Repulsion Energy =            818.0163099115567320
    One-Electron Energy =               -2396.2342149008482011
    Two-Electron Energy =                1007.7375927670930196
    Total Energy =                       -570.4803122221985632
  Basis Set: (AUG-CC-PVTZ AUX)
    Blend: AUG-CC-PVTZ-RI
    Molecular point group: c1

    Geometry (in Angstrom), charge = 0, multiplicity = 1:

       Center              X                  Y                   Z               Mass
    ------------   -----------------  -----------------  -----------------  -----------------
         N            1.014341280538     1.790374542477     0.321512858936    14.003074004430
         N           -1.470938719462     0.863808542477    -0.617356141064    14.003074004430
         C            0.435719280538    -0.544038457523    -0.075769141064    12.000000000000
         C            1.489553180538     0.497074242477     0.146687658936    12.000000000000
         C           -1.016882719462    -0.269961457523    -0.030966141064    12.000000000000
         C            0.857063280538    -1.865315457523    -0.281228141064    12.000000000000
         C            2.767708280538     0.107152542477     0.109683858936    12.000000000000
         C            2.205945280538    -2.215071457523    -0.278753141064    12.000000000000
         C            3.158917280538    -1.217759457523    -0.077118141064    12.000000000000
         C           -1.892761719462    -1.172029457523     0.596809858936    12.000000000000
         C           -3.262494719462    -0.925531457523     0.577182858936    12.000000000000
         C            1.989916280538     2.861246542477     0.250298858936    12.000000000000
         C           -2.794817719462     1.095814542477    -0.614881141064    12.000000000000
         C           -3.729112719462     0.230269542477    -0.048629141064    12.000000000000
         H            0.104529280538    -2.629736457523    -0.466018141064     1.007825032230
         H            3.531240280538     0.865476542477     0.251328858936     1.007825032230
         H            0.127847280538     1.995434542477    -0.132349141064     1.007825032230
         H            2.506564280538    -3.245549457523    -0.448535141064     1.007825032230
         H            4.218383280538    -1.465212457523    -0.068803141064     1.007825032230
         H           -1.493506719462    -2.043952457523     1.106435858936     1.007825032230
         H           -3.952816719462    -1.615103457523     1.057317858936     1.007825032230
         H            2.565232280538     2.869404542477    -0.687832141064     1.007825032230
         H            2.695198280538     2.794418542477     1.084051858936     1.007825032230
         H            1.456828280538     3.809806542477     0.341107858936     1.007825032230
         H           -3.112197719462     2.019586542477    -1.096135141064     1.007825032230
         H           -4.788766719462     0.466601542477    -0.084371141064     1.007825032230

  Basis Set: AUG-CC-PVTZ
    Blend: AUG-CC-PVTZ
  Basis Set: (AUG-CC-PVTZ AUX)
    Blend: AUG-CC-PVTZ-JKFIT
	 Reference Energy          =    -570.4803122221985632 [Eh]
	 Singles Energy            =      -0.0000000000000000 [Eh]
	 Same-Spin Energy          =      -0.6393593955879012 [Eh]
	 Opposite-Spin Energy      =      -1.9768334640325493 [Eh]
	 Correlation Energy        =      -2.6161928596204507 [Eh]
	 Total Energy              =    -573.0965050818190321 [Eh]

	 ================> DF-SCS-MP2 Energies <==================
	-----------------------------------------------------------
	 SCS Same-Spin Scale       =       0.3333333333333333 [-]
	 SCS Opposite-Spin Scale   =       1.2000000000000000 [-]
	 SCS Same-Spin Energy      =      -0.2131197985293004 [Eh]
	 SCS Opposite-Spin Energy  =      -2.3722001568390589 [Eh]
	 SCS Correlation Energy    =      -2.5853199553683592 [Eh]
	 SCS Total Energy          =    -573.0656321775669539 [Eh]
	-----------------------------------------------------------

  Dipole Moment: [D]
     X:    -1.8160      Y:     0.0953      Z:     0.3659     Total:     1.8550

*** Psi4 exiting successfully. Buy a developer a beer!
