                               Psi4 1.3.2 release

  ==> Input File <==

--------------------------------------------------------------------------
#psi4
#
memory 32 gb

molecule  {
0 1
  N        0.9861846     1.7886886     0.3663668
  N       -1.4856460     0.8456190    -0.6184330
  C        0.4210120    -0.5622280    -0.0768460
  C        1.3959190     0.4607190     0.0923330
  C       -1.0315900    -0.2881510    -0.0320430
  C        0.8423560    -1.8835050    -0.2823050
  C        2.7530010     0.0889630     0.1086070
  C        2.1912380    -2.2332610    -0.2798300
  C        3.1442100    -1.2359490    -0.0781950
  C       -1.9074690    -1.1902190     0.5957330
  C       -3.2772020    -0.9437210     0.5761060
  C        1.9752090     2.8430570     0.2492220
  C       -2.8095250     1.0776250    -0.6159580
  C       -3.7438200     0.2120800    -0.0497060
  H        0.0898220    -2.6479260    -0.4670950
  H        3.5165330     0.8472870     0.2502520
  H        0.1131400     1.9772450    -0.1334260
  H        2.4918570    -3.2637390    -0.4496120
  H        4.2036760    -1.4834020    -0.0698800
  H       -1.5082140    -2.0621420     1.1053590
  H       -3.9675240    -1.6332930     1.0562410
  H        2.5505250     2.8512150    -0.6889090
  H        2.6804910     2.7762290     1.0829750
  H        1.4421210     3.7916170     0.3400310
  H       -3.1269050     2.0013970    -1.0972120
  H       -4.8034740     0.4484120    -0.0854480
units angstrom
no_reorient  #important for SAPT in psi4, default
symmetry c1  #important for SAPT in psi4, default
}

set PROPERTIES_ORIGIN ["COM"]
properties('MP2/aug-cc-pvtz', properties = ['dipole'])
--------------------------------------------------------------------------

    Molecular point group: c1
  Charge       = 0
  Multiplicity = 1
  Basis Set: AUG-CC-PVTZ
    Blend: AUG-CC-PVTZ
  Basis Set: (AUG-CC-PVTZ AUX)
    Blend: AUG-CC-PVTZ-JKFIT

    Orbital Energies [Eh]
    ---------------------

    Doubly Occupied:

       1A    -15.569145     2A    -15.551039     3A    -11.290369
       4A    -11.281627     5A    -11.279324     6A    -11.263540
       7A    -11.246236     8A    -11.242857     9A    -11.242048
      10A    -11.238256    11A    -11.236756    12A    -11.235382
      13A    -11.222379    14A    -11.221074    15A     -1.262884
      16A     -1.221978    17A     -1.133378    18A     -1.089231
      19A     -1.061413    20A     -0.999578    21A     -0.992844
      22A     -0.912267    23A     -0.871364    24A     -0.860484
      25A     -0.805258    26A     -0.796273    27A     -0.720277
      28A     -0.694763    29A     -0.670911    30A     -0.657564
      31A     -0.649199    32A     -0.620821    33A     -0.608526
      34A     -0.602612    35A     -0.590355    36A     -0.576438
      37A     -0.565223    38A     -0.547614    39A     -0.534231
      40A     -0.526187    41A     -0.504640    42A     -0.494836
      43A     -0.490148    44A     -0.423467    45A     -0.415448
      46A     -0.388261    47A     -0.367625    48A     -0.318681
      49A     -0.284116

  @DF-RHF Final Energy:  -570.48778000685070

   => Energetics <=

    Nuclear Repulsion Energy =            817.9039457676547045
    One-Electron Energy =               -2396.0255942104954556
    Two-Electron Energy =                1007.6338684359900526
    Total Energy =                       -570.4877800068506986
  Basis Set: (AUG-CC-PVTZ AUX)
    Blend: AUG-CC-PVTZ-RI
    Molecular point group: c1

    Geometry (in Angstrom), charge = 0, multiplicity = 1:

       Center              X                  Y                   Z               Mass
    ------------   -----------------  -----------------  -----------------  -----------------
         N            1.007059482086     1.806806916357     0.367422807277    14.003074004430
         N           -1.464771117914     0.863737316357    -0.617376992723    14.003074004430
         C            0.441886882086    -0.544109683643    -0.075789992723    12.000000000000
         C            1.416793882086     0.478837316357     0.093389007277    12.000000000000
         C           -1.010715117914    -0.270032683643    -0.030986992723    12.000000000000
         C            0.863230882086    -1.865386683643    -0.281248992723    12.000000000000
         C            2.773875882086     0.107081316357     0.109663007277    12.000000000000
         C            2.212112882086    -2.215142683643    -0.278773992723    12.000000000000
         C            3.165084882086    -1.217830683643    -0.077138992723    12.000000000000
         C           -1.886594117914    -1.172100683643     0.596789007277    12.000000000000
         C           -3.256327117914    -0.925602683643     0.577162007277    12.000000000000
         C            1.996083882086     2.861175316357     0.250278007277    12.000000000000
         C           -2.788650117914     1.095743316357    -0.614901992723    12.000000000000
         C           -3.722945117914     0.230198316357    -0.048649992723    12.000000000000
         H            0.110696882086    -2.629807683643    -0.466038992723     1.007825032230
         H            3.537407882086     0.865405316357     0.251308007277     1.007825032230
         H            0.134014882086     1.995363316357    -0.132369992723     1.007825032230
         H            2.512731882086    -3.245620683643    -0.448555992723     1.007825032230
         H            4.224550882086    -1.465283683643    -0.068823992723     1.007825032230
         H           -1.487339117914    -2.044023683643     1.106415007277     1.007825032230
         H           -3.946649117914    -1.615174683643     1.057297007277     1.007825032230
         H            2.571399882086     2.869333316357    -0.687852992723     1.007825032230
         H            2.701365882086     2.794347316357     1.084031007277     1.007825032230
         H            1.462995882086     3.809735316357     0.341087007277     1.007825032230
         H           -3.106030117914     2.019515316357    -1.096155992723     1.007825032230
         H           -4.782599117914     0.466530316357    -0.084391992723     1.007825032230

  Basis Set: AUG-CC-PVTZ
    Blend: AUG-CC-PVTZ
  Basis Set: (AUG-CC-PVTZ AUX)
    Blend: AUG-CC-PVTZ-JKFIT
	 Reference Energy          =    -570.4877800068506986 [Eh]
	 Singles Energy            =      -0.0000000000000000 [Eh]
	 Same-Spin Energy          =      -0.6394740038270070 [Eh]
	 Opposite-Spin Energy      =      -1.9769354980007721 [Eh]
	 Correlation Energy        =      -2.6164095018277793 [Eh]
	 Total Energy              =    -573.1041895086784734 [Eh]

	 ================> DF-SCS-MP2 Energies <==================
	-----------------------------------------------------------
	 SCS Same-Spin Scale       =       0.3333333333333333 [-]
	 SCS Opposite-Spin Scale   =       1.2000000000000000 [-]
	 SCS Same-Spin Energy      =      -0.2131580012756690 [Eh]
	 SCS Opposite-Spin Energy  =      -2.3723225976009266 [Eh]
	 SCS Correlation Energy    =      -2.5854805988765954 [Eh]
	 SCS Total Energy          =    -573.0732606057273415 [Eh]
	-----------------------------------------------------------

  Dipole Moment: [D]
     X:    -1.7215      Y:    -0.0724      Z:     0.2528     Total:     1.7415

*** Psi4 exiting successfully. Buy a developer a beer!
