                               Psi4 1.3.2 release

  ==> Input File <==

--------------------------------------------------------------------------
#psi4
#
memory 32 gb

molecule  {
0 1
  N        0.9927597     1.7802749     0.3434157
  N       -1.4856460     0.8456190    -0.6184330
  C        0.4210120    -0.5622280    -0.0768460
  C        1.3959190     0.4607190     0.0923330
  C       -1.0315900    -0.2881510    -0.0320430
  C        0.8423560    -1.8835050    -0.2823050
  C        2.7530010     0.0889630     0.1086070
  C        2.1912380    -2.2332610    -0.2798300
  C        3.1442100    -1.2359490    -0.0781950
  C       -1.9074690    -1.1902190     0.5957330
  C       -3.2772020    -0.9437210     0.5761060
  C        1.9752090     2.8430570     0.2492220
  C       -2.8095250     1.0776250    -0.6159580
  C       -3.7438200     0.2120800    -0.0497060
  H        0.0898220    -2.6479260    -0.4670950
  H        3.5165330     0.8472870     0.2502520
  H        0.1131400     1.9772450    -0.1334260
  H        2.4918570    -3.2637390    -0.4496120
  H        4.2036760    -1.4834020    -0.0698800
  H       -1.5082140    -2.0621420     1.1053590
  H       -3.9675240    -1.6332930     1.0562410
  H        2.5505250     2.8512150    -0.6889090
  H        2.6804910     2.7762290     1.0829750
  H        1.4421210     3.7916170     0.3400310
  H       -3.1269050     2.0013970    -1.0972120
  H       -4.8034740     0.4484120    -0.0854480
units angstrom
no_reorient  #important for SAPT in psi4, default
symmetry c1  #important for SAPT in psi4, default
}

set PROPERTIES_ORIGIN ["COM"]
properties('MP2/aug-cc-pvtz', properties = ['dipole'])
--------------------------------------------------------------------------

    Molecular point group: c1
  Charge       = 0
  Multiplicity = 1
  Basis Set: AUG-CC-PVTZ
    Blend: AUG-CC-PVTZ
  Basis Set: (AUG-CC-PVTZ AUX)
    Blend: AUG-CC-PVTZ-JKFIT

    Orbital Energies [Eh]
    ---------------------

    Doubly Occupied:

       1A    -15.568893     2A    -15.550654     3A    -11.290146
       4A    -11.281505     5A    -11.279145     6A    -11.263392
       7A    -11.247463     8A    -11.242656     9A    -11.241796
      10A    -11.237840    11A    -11.236344    12A    -11.234258
      13A    -11.221184    14A    -11.219733    15A     -1.263028
      16A     -1.225428    17A     -1.132897    18A     -1.089068
      19A     -1.061031    20A     -0.999179    21A     -0.992834
      22A     -0.913976    23A     -0.871195    24A     -0.860357
      25A     -0.805297    26A     -0.796215    27A     -0.720444
      28A     -0.696317    29A     -0.670829    30A     -0.657956
      31A     -0.649548    32A     -0.621400    33A     -0.608524
      34A     -0.602493    35A     -0.590076    36A     -0.576427
      37A     -0.566623    38A     -0.548071    39A     -0.534045
      40A     -0.527592    41A     -0.504144    42A     -0.496218
      43A     -0.489752    44A     -0.423296    45A     -0.415924
      46A     -0.388178    47A     -0.367459    48A     -0.318095
      49A     -0.281796

  @DF-RHF Final Energy:  -570.48898172539725

   => Energetics <=

    Nuclear Repulsion Energy =            818.2515868570518478
    One-Electron Energy =               -2396.7196979600339546
    Two-Electron Energy =                1007.9791293775849681
    Total Energy =                       -570.4889817253972524
  Basis Set: (AUG-CC-PVTZ AUX)
    Blend: AUG-CC-PVTZ-RI
    Molecular point group: c1

    Geometry (in Angstrom), charge = 0, multiplicity = 1:

       Center              X                  Y                   Z               Mass
    ------------   -----------------  -----------------  -----------------  -----------------
         N            1.013134464825     1.799033181771     0.346217420842    14.003074004430
         N           -1.465271235175     0.864377281771    -0.615631279158    14.003074004430
         C            0.441386764825    -0.543469718229    -0.074044279158    12.000000000000
         C            1.416293764825     0.479477281771     0.095134720842    12.000000000000
         C           -1.011215235175    -0.269392718229    -0.029241279158    12.000000000000
         C            0.862730764825    -1.864746718229    -0.279503279158    12.000000000000
         C            2.773375764825     0.107721281771     0.111408720842    12.000000000000
         C            2.211612764825    -2.214502718229    -0.277028279158    12.000000000000
         C            3.164584764825    -1.217190718229    -0.075393279158    12.000000000000
         C           -1.887094235175    -1.171460718229     0.598534720842    12.000000000000
         C           -3.256827235175    -0.924962718229     0.578907720842    12.000000000000
         C            1.995583764825     2.861815281771     0.252023720842    12.000000000000
         C           -2.789150235175     1.096383281771    -0.613156279158    12.000000000000
         C           -3.723445235175     0.230838281771    -0.046904279158    12.000000000000
         H            0.110196764825    -2.629167718229    -0.464293279158     1.007825032230
         H            3.536907764825     0.866045281771     0.253053720842     1.007825032230
         H            0.133514764825     1.996003281771    -0.130624279158     1.007825032230
         H            2.512231764825    -3.244980718229    -0.446810279158     1.007825032230
         H            4.224050764825    -1.464643718229    -0.067078279158     1.007825032230
         H           -1.487839235175    -2.043383718229     1.108160720842     1.007825032230
         H           -3.947149235175    -1.614534718229     1.059042720842     1.007825032230
         H            2.570899764825     2.869973281771    -0.686107279158     1.007825032230
         H            2.700865764825     2.794987281771     1.085776720842     1.007825032230
         H            1.462495764825     3.810375281771     0.342832720842     1.007825032230
         H           -3.106530235175     2.020155281771    -1.094410279158     1.007825032230
         H           -4.783099235175     0.467170281771    -0.082646279158     1.007825032230

  Basis Set: AUG-CC-PVTZ
    Blend: AUG-CC-PVTZ
  Basis Set: (AUG-CC-PVTZ AUX)
    Blend: AUG-CC-PVTZ-JKFIT
	 Reference Energy          =    -570.4889817253972524 [Eh]
	 Singles Energy            =      -0.0000000000000000 [Eh]
	 Same-Spin Energy          =      -0.6394690006723427 [Eh]
	 Opposite-Spin Energy      =      -1.9766626598762003 [Eh]
	 Correlation Energy        =      -2.6161316605485432 [Eh]
	 Total Energy              =    -573.1051133859457423 [Eh]

	 ================> DF-SCS-MP2 Energies <==================
	-----------------------------------------------------------
	 SCS Same-Spin Scale       =       0.3333333333333333 [-]
	 SCS Opposite-Spin Scale   =       1.2000000000000000 [-]
	 SCS Same-Spin Energy      =      -0.2131563335574476 [Eh]
	 SCS Opposite-Spin Energy  =      -2.3719951918514401 [Eh]
	 SCS Correlation Energy    =      -2.5851515254088877 [Eh]
	 SCS Total Energy          =    -573.0741332508060850 [Eh]
	-----------------------------------------------------------

  Dipole Moment: [D]
     X:    -1.7419      Y:     0.0445      Z:     0.3074     Total:     1.7694

*** Psi4 exiting successfully. Buy a developer a beer!
