                               Psi4 1.3.2 release

  ==> Input File <==

--------------------------------------------------------------------------
#psi4
#
memory 32 gb

molecule  {
0 1
  N        0.9996340     1.7721850     0.3204360
  N       -1.4856460     0.8456190    -0.6184330
  C        0.4210120    -0.5622280    -0.0768460
  C        1.5300355     0.5128907     0.0717034
  C       -1.0315900    -0.2881510    -0.0320430
  C        0.8423560    -1.8835050    -0.2823050
  C        2.7530010     0.0889630     0.1086070
  C        2.1912380    -2.2332610    -0.2798300
  C        3.1442100    -1.2359490    -0.0781950
  C       -1.9074690    -1.1902190     0.5957330
  C       -3.2772020    -0.9437210     0.5761060
  C        1.9752090     2.8430570     0.2492220
  C       -2.8095250     1.0776250    -0.6159580
  C       -3.7438200     0.2120800    -0.0497060
  H        0.0898220    -2.6479260    -0.4670950
  H        3.5165330     0.8472870     0.2502520
  H        0.1131400     1.9772450    -0.1334260
  H        2.4918570    -3.2637390    -0.4496120
  H        4.2036760    -1.4834020    -0.0698800
  H       -1.5082140    -2.0621420     1.1053590
  H       -3.9675240    -1.6332930     1.0562410
  H        2.5505250     2.8512150    -0.6889090
  H        2.6804910     2.7762290     1.0829750
  H        1.4421210     3.7916170     0.3400310
  H       -3.1269050     2.0013970    -1.0972120
  H       -4.8034740     0.4484120    -0.0854480
units angstrom
no_reorient  #important for SAPT in psi4, default
symmetry c1  #important for SAPT in psi4, default
}

set PROPERTIES_ORIGIN ["COM"]
properties('MP2/aug-cc-pvtz', properties = ['dipole'])
--------------------------------------------------------------------------

    Molecular point group: c1
  Charge       = 0
  Multiplicity = 1
  Basis Set: AUG-CC-PVTZ
    Blend: AUG-CC-PVTZ
  Basis Set: (AUG-CC-PVTZ AUX)
    Blend: AUG-CC-PVTZ-JKFIT

    Orbital Energies [Eh]
    ---------------------

    Doubly Occupied:

       1A    -15.568965     2A    -15.550511     3A    -11.291354
       4A    -11.281533     5A    -11.275324     6A    -11.263420
       7A    -11.244592     8A    -11.244179     9A    -11.242805
      10A    -11.242199    11A    -11.238017    12A    -11.236043
      13A    -11.220238    14A    -11.206174    15A     -1.262476
      16A     -1.230577    17A     -1.132350    18A     -1.089105
      19A     -1.061975    20A     -1.013390    21A     -0.982481
      22A     -0.914166    23A     -0.875956    24A     -0.859737
      25A     -0.809328    26A     -0.782726    27A     -0.720779
      28A     -0.704764    29A     -0.669124    30A     -0.661424
      31A     -0.644601    32A     -0.628718    33A     -0.609350
      34A     -0.604409    35A     -0.588334    36A     -0.574154
      37A     -0.564140    38A     -0.548445    39A     -0.535068
      40A     -0.526532    41A     -0.506524    42A     -0.501365
      43A     -0.468096    44A     -0.425247    45A     -0.415554
      46A     -0.389211    47A     -0.368733    48A     -0.323359
      49A     -0.277662

  @DF-RHF Final Energy:  -570.46456413810074

   => Energetics <=

    Nuclear Repulsion Energy =            817.7037289254636789
    One-Electron Energy =               -2395.5861587908352703
    Two-Electron Energy =                1007.4178657272709643
    Total Energy =                       -570.4645641381007408
  Basis Set: (AUG-CC-PVTZ AUX)
    Blend: AUG-CC-PVTZ-RI
    Molecular point group: c1

    Geometry (in Angstrom), charge = 0, multiplicity = 1:

       Center              X                  Y                   Z               Mass
    ------------   -----------------  -----------------  -----------------  -----------------
         N            1.010743914835     1.788157965113     0.326330287327    14.003074004430
         N           -1.474536085165     0.861591965113    -0.612538712673    14.003074004430
         C            0.432121914835    -0.546255034887    -0.070951712673    12.000000000000
         C            1.541145414835     0.528863665113     0.077597687327    12.000000000000
         C           -1.020480085165    -0.272178034887    -0.026148712673    12.000000000000
         C            0.853465914835    -1.867532034887    -0.276410712673    12.000000000000
         C            2.764110914835     0.104935965113     0.114501287327    12.000000000000
         C            2.202347914835    -2.217288034887    -0.273935712673    12.000000000000
         C            3.155319914835    -1.219976034887    -0.072300712673    12.000000000000
         C           -1.896359085165    -1.174246034887     0.601627287327    12.000000000000
         C           -3.266092085165    -0.927748034887     0.582000287327    12.000000000000
         C            1.986318914835     2.859029965113     0.255116287327    12.000000000000
         C           -2.798415085165     1.093597965113    -0.610063712673    12.000000000000
         C           -3.732710085165     0.228052965113    -0.043811712673    12.000000000000
         H            0.100931914835    -2.631953034887    -0.461200712673     1.007825032230
         H            3.527642914835     0.863259965113     0.256146287327     1.007825032230
         H            0.124249914835     1.993217965113    -0.127531712673     1.007825032230
         H            2.502966914835    -3.247766034887    -0.443717712673     1.007825032230
         H            4.214785914835    -1.467429034887    -0.063985712673     1.007825032230
         H           -1.497104085165    -2.046169034887     1.111253287327     1.007825032230
         H           -3.956414085165    -1.617320034887     1.062135287327     1.007825032230
         H            2.561634914835     2.867187965113    -0.683014712673     1.007825032230
         H            2.691600914835     2.792201965113     1.088869287327     1.007825032230
         H            1.453230914835     3.807589965113     0.345925287327     1.007825032230
         H           -3.115795085165     2.017369965113    -1.091317712673     1.007825032230
         H           -4.792364085165     0.464384965113    -0.079553712673     1.007825032230

  Basis Set: AUG-CC-PVTZ
    Blend: AUG-CC-PVTZ
  Basis Set: (AUG-CC-PVTZ AUX)
    Blend: AUG-CC-PVTZ-JKFIT
	 Reference Energy          =    -570.4645641381007408 [Eh]
	 Singles Energy            =      -0.0000000000000000 [Eh]
	 Same-Spin Energy          =      -0.6392530763921929 [Eh]
	 Opposite-Spin Energy      =      -1.9776531480432944 [Eh]
	 Correlation Energy        =      -2.6169062244354873 [Eh]
	 Total Energy              =    -573.0814703625362654 [Eh]

	 ================> DF-SCS-MP2 Energies <==================
	-----------------------------------------------------------
	 SCS Same-Spin Scale       =       0.3333333333333333 [-]
	 SCS Opposite-Spin Scale   =       1.2000000000000000 [-]
	 SCS Same-Spin Energy      =      -0.2130843587973976 [Eh]
	 SCS Opposite-Spin Energy  =      -2.3731837776519531 [Eh]
	 SCS Correlation Energy    =      -2.5862681364493509 [Eh]
	 SCS Total Energy          =    -573.0508322745500891 [Eh]
	-----------------------------------------------------------

  Dipole Moment: [D]
     X:    -1.7942      Y:     0.0491      Z:     0.3412     Total:     1.8270

*** Psi4 exiting successfully. Buy a developer a beer!
