                               Psi4 1.3.2 release

  ==> Input File <==

--------------------------------------------------------------------------
#psi4
#
memory 32 gb

molecule  {
0 1
  N        0.9996340     1.7721850     0.3204360
  N       -1.4856460     0.8456190    -0.6184330
  C        0.4210120    -0.5622280    -0.0768460
  C        1.3959190     0.4607190     0.0923330
  C       -0.9980751    -0.3718371     0.0112397
  C        0.8423560    -1.8835050    -0.2823050
  C        2.7530010     0.0889630     0.1086070
  C        2.1912380    -2.2332610    -0.2798300
  C        3.1442100    -1.2359490    -0.0781950
  C       -1.9074690    -1.1902190     0.5957330
  C       -3.2772020    -0.9437210     0.5761060
  C        1.9752090     2.8430570     0.2492220
  C       -2.8095250     1.0776250    -0.6159580
  C       -3.7438200     0.2120800    -0.0497060
  H        0.0898220    -2.6479260    -0.4670950
  H        3.5165330     0.8472870     0.2502520
  H        0.1131400     1.9772450    -0.1334260
  H        2.4918570    -3.2637390    -0.4496120
  H        4.2036760    -1.4834020    -0.0698800
  H       -1.5082140    -2.0621420     1.1053590
  H       -3.9675240    -1.6332930     1.0562410
  H        2.5505250     2.8512150    -0.6889090
  H        2.6804910     2.7762290     1.0829750
  H        1.4421210     3.7916170     0.3400310
  H       -3.1269050     2.0013970    -1.0972120
  H       -4.8034740     0.4484120    -0.0854480
units angstrom
no_reorient  #important for SAPT in psi4, default
symmetry c1  #important for SAPT in psi4, default
}

set PROPERTIES_ORIGIN ["COM"]
properties('MP2/aug-cc-pvtz', properties = ['dipole'])
--------------------------------------------------------------------------

    Molecular point group: c1
  Charge       = 0
  Multiplicity = 1
  Basis Set: AUG-CC-PVTZ
    Blend: AUG-CC-PVTZ
  Basis Set: (AUG-CC-PVTZ AUX)
    Blend: AUG-CC-PVTZ-JKFIT

    Orbital Energies [Eh]
    ---------------------

    Doubly Occupied:

       1A    -15.571178     2A    -15.550793     3A    -11.287781
       4A    -11.281872     5A    -11.280745     6A    -11.264720
       7A    -11.248883     8A    -11.242031     9A    -11.237863
      10A    -11.237555    11A    -11.236354    12A    -11.232004
      13A    -11.221225    14A    -11.218727    15A     -1.246697
      16A     -1.224308    17A     -1.135473    18A     -1.084698
      19A     -1.067636    20A     -0.999769    21A     -0.994499
      22A     -0.917079    23A     -0.873339    24A     -0.858085
      25A     -0.801646    26A     -0.798086    27A     -0.722972
      28A     -0.695307    29A     -0.673889    30A     -0.657294
      31A     -0.643998    32A     -0.624223    33A     -0.609810
      34A     -0.603493    35A     -0.593016    36A     -0.575756
      37A     -0.567845    38A     -0.541698    39A     -0.532754
      40A     -0.530201    41A     -0.501349    42A     -0.496191
      43A     -0.489046    44A     -0.423476    45A     -0.415096
      46A     -0.379573    47A     -0.376083    48A     -0.316945
      49A     -0.279020

  @DF-RHF Final Energy:  -570.47466310829759

   => Energetics <=

    Nuclear Repulsion Energy =            818.2917820068186074
    One-Electron Energy =               -2396.8087288387273475
    Two-Electron Energy =                1008.0422837236110354
    Total Energy =                       -570.4746631082975910
  Basis Set: (AUG-CC-PVTZ AUX)
    Blend: AUG-CC-PVTZ-RI
    Molecular point group: c1

    Geometry (in Angstrom), charge = 0, multiplicity = 1:

       Center              X                  Y                   Z               Mass
    ------------   -----------------  -----------------  -----------------  -----------------
         N            1.017301323214     1.797013441329     0.322164359036    14.003074004430
         N           -1.467978676786     0.870447441329    -0.616704640964    14.003074004430
         C            0.438679323214    -0.537399558671    -0.075117640964    12.000000000000
         C            1.413586323214     0.485547441329     0.094061359036    12.000000000000
         C           -0.980407776786    -0.347008658671     0.012968059036    12.000000000000
         C            0.860023323214    -1.858676558671    -0.280576640964    12.000000000000
         C            2.770668323214     0.113791441329     0.110335359036    12.000000000000
         C            2.208905323214    -2.208432558671    -0.278101640964    12.000000000000
         C            3.161877323214    -1.211120558671    -0.076466640964    12.000000000000
         C           -1.889801676786    -1.165390558671     0.597461359036    12.000000000000
         C           -3.259534676786    -0.918892558671     0.577834359036    12.000000000000
         C            1.992876323214     2.867885441329     0.250950359036    12.000000000000
         C           -2.791857676786     1.102453441329    -0.614229640964    12.000000000000
         C           -3.726152676786     0.236908441329    -0.047977640964    12.000000000000
         H            0.107489323214    -2.623097558671    -0.465366640964     1.007825032230
         H            3.534200323214     0.872115441329     0.251980359036     1.007825032230
         H            0.130807323214     2.002073441329    -0.131697640964     1.007825032230
         H            2.509524323214    -3.238910558671    -0.447883640964     1.007825032230
         H            4.221343323214    -1.458573558671    -0.068151640964     1.007825032230
         H           -1.490546676786    -2.037313558671     1.107087359036     1.007825032230
         H           -3.949856676786    -1.608464558671     1.057969359036     1.007825032230
         H            2.568192323214     2.876043441329    -0.687180640964     1.007825032230
         H            2.698158323214     2.801057441329     1.084703359036     1.007825032230
         H            1.459788323214     3.816445441329     0.341759359036     1.007825032230
         H           -3.109237676786     2.026225441329    -1.095483640964     1.007825032230
         H           -4.785806676786     0.473240441329    -0.083719640964     1.007825032230

  Basis Set: AUG-CC-PVTZ
    Blend: AUG-CC-PVTZ
  Basis Set: (AUG-CC-PVTZ AUX)
    Blend: AUG-CC-PVTZ-JKFIT
	 Reference Energy          =    -570.4746631082975910 [Eh]
	 Singles Energy            =      -0.0000000000000000 [Eh]
	 Same-Spin Energy          =      -0.6408168946194213 [Eh]
	 Opposite-Spin Energy      =      -1.9797508327259463 [Eh]
	 Correlation Energy        =      -2.6205677273453674 [Eh]
	 Total Energy              =    -573.0952308356429512 [Eh]

	 ================> DF-SCS-MP2 Energies <==================
	-----------------------------------------------------------
	 SCS Same-Spin Scale       =       0.3333333333333333 [-]
	 SCS Opposite-Spin Scale   =       1.2000000000000000 [-]
	 SCS Same-Spin Energy      =      -0.2136056315398071 [Eh]
	 SCS Opposite-Spin Energy  =      -2.3757009992711353 [Eh]
	 SCS Correlation Energy    =      -2.5893066308109423 [Eh]
	 SCS Total Energy          =    -573.0639697391085292 [Eh]
	-----------------------------------------------------------

  Dipole Moment: [D]
     X:    -1.6096      Y:     0.1471      Z:     0.3752     Total:     1.6593

*** Psi4 exiting successfully. Buy a developer a beer!
