                               Psi4 1.3.2 release

  ==> Input File <==

--------------------------------------------------------------------------
#psi4
#
memory 32 gb

molecule  {
0 1
  N        0.9996340     1.7721850     0.3204360
  N       -1.4856460     0.8456190    -0.6184330
  C        0.4210120    -0.5622280    -0.0768460
  C        1.3959190     0.4607190     0.0923330
  C       -0.9440332    -0.2613651    -0.0556751
  C        0.8423560    -1.8835050    -0.2823050
  C        2.7530010     0.0889630     0.1086070
  C        2.1912380    -2.2332610    -0.2798300
  C        3.1442100    -1.2359490    -0.0781950
  C       -1.9074690    -1.1902190     0.5957330
  C       -3.2772020    -0.9437210     0.5761060
  C        1.9752090     2.8430570     0.2492220
  C       -2.8095250     1.0776250    -0.6159580
  C       -3.7438200     0.2120800    -0.0497060
  H        0.0898220    -2.6479260    -0.4670950
  H        3.5165330     0.8472870     0.2502520
  H        0.1131400     1.9772450    -0.1334260
  H        2.4918570    -3.2637390    -0.4496120
  H        4.2036760    -1.4834020    -0.0698800
  H       -1.5082140    -2.0621420     1.1053590
  H       -3.9675240    -1.6332930     1.0562410
  H        2.5505250     2.8512150    -0.6889090
  H        2.6804910     2.7762290     1.0829750
  H        1.4421210     3.7916170     0.3400310
  H       -3.1269050     2.0013970    -1.0972120
  H       -4.8034740     0.4484120    -0.0854480
units angstrom
no_reorient  #important for SAPT in psi4, default
symmetry c1  #important for SAPT in psi4, default
}

set PROPERTIES_ORIGIN ["COM"]
properties('MP2/aug-cc-pvtz', properties = ['dipole'])
--------------------------------------------------------------------------

    Molecular point group: c1
  Charge       = 0
  Multiplicity = 1
  Basis Set: AUG-CC-PVTZ
    Blend: AUG-CC-PVTZ
  Basis Set: (AUG-CC-PVTZ AUX)
    Blend: AUG-CC-PVTZ-JKFIT

    Orbital Energies [Eh]
    ---------------------

    Doubly Occupied:

       1A    -15.564795     2A    -15.553968     3A    -11.294596
       4A    -11.283251     5A    -11.277744     6A    -11.258143
       7A    -11.250939     8A    -11.246257     9A    -11.242995
      10A    -11.240899    11A    -11.239280    12A    -11.230588
      13A    -11.223026    14A    -11.221935    15A     -1.259328
      16A     -1.229903    17A     -1.138589    18A     -1.083450
      19A     -1.064347    20A     -1.002465    21A     -0.990028
      22A     -0.919428    23A     -0.879473    24A     -0.851005
      25A     -0.806342    26A     -0.797930    27A     -0.723783
      28A     -0.699404    29A     -0.670419    30A     -0.664683
      31A     -0.647812    32A     -0.620302    33A     -0.610414
      34A     -0.603944    35A     -0.589086    36A     -0.575650
      37A     -0.571761    38A     -0.544517    39A     -0.534628
      40A     -0.532207    41A     -0.509109    42A     -0.500212
      43A     -0.493915    44A     -0.423747    45A     -0.406464
      46A     -0.388785    47A     -0.364464    48A     -0.314419
      49A     -0.279210

  @DF-RHF Final Energy:  -570.47611485125810

   => Energetics <=

    Nuclear Repulsion Energy =            818.9361384966086916
    One-Electron Energy =               -2397.9852290134494979
    Two-Electron Energy =                1008.5729756655827032
    Total Energy =                       -570.4761148512581030
  Basis Set: (AUG-CC-PVTZ AUX)
    Blend: AUG-CC-PVTZ-RI
    Molecular point group: c1

    Geometry (in Angstrom), charge = 0, multiplicity = 1:

       Center              X                  Y                   Z               Mass
    ------------   -----------------  -----------------  -----------------  -----------------
         N            1.013778766834     1.789812661038     0.326525996130    14.003074004430
         N           -1.471501233166     0.863246661038    -0.612343003870    14.003074004430
         C            0.435156766834    -0.544600338962    -0.070756003870    12.000000000000
         C            1.410063766834     0.478346661038     0.098422996130    12.000000000000
         C           -0.929888433166    -0.243737438962    -0.049585103870    12.000000000000
         C            0.856500766834    -1.865877338962    -0.276215003870    12.000000000000
         C            2.767145766834     0.106590661038     0.114696996130    12.000000000000
         C            2.205382766834    -2.215633338962    -0.273740003870    12.000000000000
         C            3.158354766834    -1.218321338962    -0.072105003870    12.000000000000
         C           -1.893324233166    -1.172591338962     0.601822996130    12.000000000000
         C           -3.263057233166    -0.926093338962     0.582195996130    12.000000000000
         C            1.989353766834     2.860684661038     0.255311996130    12.000000000000
         C           -2.795380233166     1.095252661038    -0.609868003870    12.000000000000
         C           -3.729675233166     0.229707661038    -0.043616003870    12.000000000000
         H            0.103966766834    -2.630298338962    -0.461005003870     1.007825032230
         H            3.530677766834     0.864914661038     0.256341996130     1.007825032230
         H            0.127284766834     1.994872661038    -0.127336003870     1.007825032230
         H            2.506001766834    -3.246111338962    -0.443522003870     1.007825032230
         H            4.217820766834    -1.465774338962    -0.063790003870     1.007825032230
         H           -1.494069233166    -2.044514338962     1.111448996130     1.007825032230
         H           -3.953379233166    -1.615665338962     1.062330996130     1.007825032230
         H            2.564669766834     2.868842661038    -0.682819003870     1.007825032230
         H            2.694635766834     2.793856661038     1.089064996130     1.007825032230
         H            1.456265766834     3.809244661038     0.346120996130     1.007825032230
         H           -3.112760233166     2.019024661038    -1.091122003870     1.007825032230
         H           -4.789329233166     0.466039661038    -0.079358003870     1.007825032230

  Basis Set: AUG-CC-PVTZ
    Blend: AUG-CC-PVTZ
  Basis Set: (AUG-CC-PVTZ AUX)
    Blend: AUG-CC-PVTZ-JKFIT
	 Reference Energy          =    -570.4761148512581030 [Eh]
	 Singles Energy            =      -0.0000000000000000 [Eh]
	 Same-Spin Energy          =      -0.6408827812386807 [Eh]
	 Opposite-Spin Energy      =      -1.9786504495931032 [Eh]
	 Correlation Energy        =      -2.6195332308317840 [Eh]
	 Total Energy              =    -573.0956480820898378 [Eh]

	 ================> DF-SCS-MP2 Energies <==================
	-----------------------------------------------------------
	 SCS Same-Spin Scale       =       0.3333333333333333 [-]
	 SCS Opposite-Spin Scale   =       1.2000000000000000 [-]
	 SCS Same-Spin Energy      =      -0.2136275937462269 [Eh]
	 SCS Opposite-Spin Energy  =      -2.3743805395117237 [Eh]
	 SCS Correlation Energy    =      -2.5880081332579508 [Eh]
	 SCS Total Energy          =    -573.0641229845160751 [Eh]
	-----------------------------------------------------------

  Dipole Moment: [D]
     X:    -1.2936      Y:     0.1425      Z:     0.3424     Total:     1.3457

*** Psi4 exiting successfully. Buy a developer a beer!
