                               Psi4 1.4a3.dev225

  ==> Input File <==

--------------------------------------------------------------------------
#psi4
#
memory 32 gb

molecule  {
0 1
  N        0.9996340     1.7721850     0.3204360
  N       -1.4856460     0.8456190    -0.6184330
  C        0.4210120    -0.5622280    -0.0768460
  C        1.3959190     0.4607190     0.0923330
  C       -1.0315900    -0.2881510    -0.0320430
  C        0.8423560    -1.8835050    -0.2823050
  C        2.7530010     0.0889630     0.1086070
  C        2.1912380    -2.2332610    -0.2798300
  C        3.1442100    -1.2359490    -0.0781950
  C       -1.9074690    -1.1902190     0.5957330
  C       -3.2772020    -0.9437210     0.5761060
  C        1.9752090     2.8430570     0.2492220
  C       -2.7898253     1.0741727    -0.6159948
  C       -3.7438200     0.2120800    -0.0497060
  H        0.0898220    -2.6479260    -0.4670950
  H        3.5165330     0.8472870     0.2502520
  H        0.1131400     1.9772450    -0.1334260
  H        2.4918570    -3.2637390    -0.4496120
  H        4.2036760    -1.4834020    -0.0698800
  H       -1.5082140    -2.0621420     1.1053590
  H       -3.9675240    -1.6332930     1.0562410
  H        2.5505250     2.8512150    -0.6889090
  H        2.6804910     2.7762290     1.0829750
  H        1.4421210     3.7916170     0.3400310
  H       -3.1269050     2.0013970    -1.0972120
  H       -4.8034740     0.4484120    -0.0854480
units angstrom
no_reorient  #important for SAPT in psi4, default
symmetry c1  #important for SAPT in psi4, default
}

set PROPERTIES_ORIGIN ["COM"]
properties('MP2/aug-cc-pvtz', properties = ['dipole'])
--------------------------------------------------------------------------

    Molecular point group: c1
  Charge       = 0
  Multiplicity = 1
  Basis Set: AUG-CC-PVTZ
    Blend: AUG-CC-PVTZ
  Basis Set: (AUG-CC-PVTZ AUX)
    Blend: AUG-CC-PVTZ-JKFIT

    Orbital Energies [Eh]
    ---------------------

    Doubly Occupied:

       1A    -15.567824     2A    -15.550724     3A    -11.289917
       4A    -11.281836     5A    -11.278974     6A    -11.262804
       7A    -11.248848     8A    -11.243106     9A    -11.241174
      10A    -11.237353    11A    -11.235910    12A    -11.233133
      13A    -11.220013    14A    -11.218373    15A     -1.267926
      16A     -1.229655    17A     -1.132581    18A     -1.089594
      19A     -1.060596    20A     -0.998779    21A     -0.991850
      22A     -0.915574    23A     -0.872526    24A     -0.858541
      25A     -0.805979    26A     -0.796192    27A     -0.720490
      28A     -0.698188    29A     -0.671621    30A     -0.657879
      31A     -0.650568    32A     -0.620982    33A     -0.608654
      34A     -0.602144    35A     -0.588912    36A     -0.576924
      37A     -0.567981    38A     -0.550303    39A     -0.534420
      40A     -0.529393    41A     -0.503892    42A     -0.497493
      43A     -0.488843    44A     -0.422958    45A     -0.416117
      46A     -0.389488    47A     -0.367510    48A     -0.316806
      49A     -0.279243

  @DF-RHF Final Energy:  -570.48992061156923

   => Energetics <=

    Nuclear Repulsion Energy =            818.9205653497739377
    One-Electron Energy =               -2398.0397936375475183
    Two-Electron Energy =                1008.6293076762044620
    Total Energy =                       -570.4899206115692323
  Basis Set: (AUG-CC-PVTZ AUX)
    Blend: AUG-CC-PVTZ-RI
    Molecular point group: c1

    Geometry (in Angstrom), charge = 0, multiplicity = 1:

       Center              X                  Y                   Z               Mass
    ------------   -----------------  -----------------  -----------------  -----------------
         N            1.018201824879     1.791783645854     0.324988008484    14.003074004430
         N           -1.467078175121     0.865217645854    -0.613880991516    14.003074004430
         C            0.439579824879    -0.542629354146    -0.072293991516    12.000000000000
         C            1.414486824879     0.480317645854     0.096885008484    12.000000000000
         C           -1.013022175121    -0.268552354146    -0.027490991516    12.000000000000
         C            0.860923824879    -1.863906354146    -0.277752991516    12.000000000000
         C            2.771568824879     0.108561645854     0.113159008484    12.000000000000
         C            2.209805824879    -2.213662354146    -0.275277991516    12.000000000000
         C            3.162777824879    -1.216350354146    -0.073642991516    12.000000000000
         C           -1.888901175121    -1.170620354146     0.600285008484    12.000000000000
         C           -3.258634175121    -0.924122354146     0.580658008484    12.000000000000
         C            1.993776824879     2.862655645854     0.253774008484    12.000000000000
         C           -2.771257475121     1.093771345854    -0.611442791516    12.000000000000
         C           -3.725252175121     0.231678645854    -0.045153991516    12.000000000000
         H            0.108389824879    -2.628327354146    -0.462542991516     1.007825032230
         H            3.535100824879     0.866885645854     0.254804008484     1.007825032230
         H            0.131707824879     1.996843645854    -0.128873991516     1.007825032230
         H            2.510424824879    -3.244140354146    -0.445059991516     1.007825032230
         H            4.222243824879    -1.463803354146    -0.065327991516     1.007825032230
         H           -1.489646175121    -2.042543354146     1.109911008484     1.007825032230
         H           -3.948956175121    -1.613694354146     1.060793008484     1.007825032230
         H            2.569092824879     2.870813645854    -0.684356991516     1.007825032230
         H            2.699058824879     2.795827645854     1.087527008484     1.007825032230
         H            1.460688824879     3.811215645854     0.344583008484     1.007825032230
         H           -3.108337175121     2.020995645854    -1.092659991516     1.007825032230
         H           -4.784906175121     0.468010645854    -0.080895991516     1.007825032230

  Basis Set: AUG-CC-PVTZ
    Blend: AUG-CC-PVTZ
  Basis Set: (AUG-CC-PVTZ AUX)
    Blend: AUG-CC-PVTZ-JKFIT
	 Reference Energy          =    -570.4899206115692323 [Eh]
	 Singles Energy            =      -0.0000000000000000 [Eh]
	 Same-Spin Energy          =      -0.6393457696044128 [Eh]
	 Opposite-Spin Energy      =      -1.9760622556670657 [Eh]
	 Correlation Energy        =      -2.6154080252714786 [Eh]
	 Total Energy              =    -573.1053286368406816 [Eh]

	 ================> DF-SCS-MP2 Energies <==================
	-----------------------------------------------------------
	 SCS Same-Spin Scale       =       0.3333333333333333 [-]
	 SCS Opposite-Spin Scale   =       1.2000000000000000 [-]
	 SCS Same-Spin Energy      =      -0.2131152565348043 [Eh]
	 SCS Opposite-Spin Energy  =      -2.3712747068004787 [Eh]
	 SCS Correlation Energy    =      -2.5843899633352829 [Eh]
	 SCS Total Energy          =    -573.0743105749045299 [Eh]
	-----------------------------------------------------------

  Dipole Moment: [D]
     X:    -1.7528      Y:     0.1621      Z:     0.3604     Total:     1.7968

*** Psi4 exiting successfully. Buy a developer a beer!
