                               Psi4 1.3.2 release

  ==> Input File <==

--------------------------------------------------------------------------
#psi4
#
memory 32 gb

molecule  {
0 1
  N        0.9996340     1.7721850     0.3204360
  N       -1.4856460     0.8456190    -0.6184330
  C        0.4210120    -0.5622280    -0.0768460
  C        1.3959190     0.4607190     0.0923330
  C       -1.0315900    -0.2881510    -0.0320430
  C        0.8423560    -1.8835050    -0.2823050
  C        2.7530010     0.0889630     0.1086070
  C        2.1912380    -2.2332610    -0.2798300
  C        3.1442100    -1.2359490    -0.0781950
  C       -1.9074690    -1.1902190     0.5957330
  C       -3.2772020    -0.9437210     0.5761060
  C        1.9752090     2.8430570     0.2492220
  C       -3.0065225     1.1121482    -0.6155897
  C       -3.7438200     0.2120800    -0.0497060
  H        0.0898220    -2.6479260    -0.4670950
  H        3.5165330     0.8472870     0.2502520
  H        0.1131400     1.9772450    -0.1334260
  H        2.4918570    -3.2637390    -0.4496120
  H        4.2036760    -1.4834020    -0.0698800
  H       -1.5082140    -2.0621420     1.1053590
  H       -3.9675240    -1.6332930     1.0562410
  H        2.5505250     2.8512150    -0.6889090
  H        2.6804910     2.7762290     1.0829750
  H        1.4421210     3.7916170     0.3400310
  H       -3.1269050     2.0013970    -1.0972120
  H       -4.8034740     0.4484120    -0.0854480
units angstrom
no_reorient  #important for SAPT in psi4, default
symmetry c1  #important for SAPT in psi4, default
}

set PROPERTIES_ORIGIN ["COM"]
properties('MP2/aug-cc-pvtz', properties = ['dipole'])
--------------------------------------------------------------------------

    Molecular point group: c1
  Charge       = 0
  Multiplicity = 1
  Basis Set: AUG-CC-PVTZ
    Blend: AUG-CC-PVTZ
  Basis Set: (AUG-CC-PVTZ AUX)
    Blend: AUG-CC-PVTZ-JKFIT

    Orbital Energies [Eh]
    ---------------------

    Doubly Occupied:

       1A    -15.571759     2A    -15.548712     3A    -11.289120
       4A    -11.278635     5A    -11.275822     6A    -11.266192
       7A    -11.247593     8A    -11.246609     9A    -11.237946
      10A    -11.236942    11A    -11.235924    12A    -11.232930
      13A    -11.219611    14A    -11.218332    15A     -1.240151
      16A     -1.214911    17A     -1.131422    18A     -1.090252
      19A     -1.055967    20A     -1.003746    21A     -0.996975
      22A     -0.916218    23A     -0.874284    24A     -0.858546
      25A     -0.802314    26A     -0.795194    27A     -0.724684
      28A     -0.694467    29A     -0.674183    30A     -0.662367
      31A     -0.640410    32A     -0.630025    33A     -0.607624
      34A     -0.603259    35A     -0.593854    36A     -0.574286
      37A     -0.567425    38A     -0.536024    39A     -0.531789
      40A     -0.521086    41A     -0.500101    42A     -0.497154
      43A     -0.490659    44A     -0.420027    45A     -0.407698
      46A     -0.392569    47A     -0.356389    48A     -0.323904
      49A     -0.280958

  @DF-RHF Final Energy:  -570.44520422600795

   => Energetics <=

    Nuclear Repulsion Energy =            815.5846007541672407
    One-Electron Energy =               -2391.4255104701924211
    Two-Electron Energy =                1005.3957054900172352
    Total Energy =                       -570.4452042260079452
  Basis Set: (AUG-CC-PVTZ AUX)
    Blend: AUG-CC-PVTZ-RI
    Molecular point group: c1

    Geometry (in Angstrom), charge = 0, multiplicity = 1:

       Center              X                  Y                   Z               Mass
    ------------   -----------------  -----------------  -----------------  -----------------
         N            1.032326570758     1.789308328743     0.324961603276    14.003074004430
         N           -1.452953429242     0.862742328743    -0.613907396724    14.003074004430
         C            0.453704570758    -0.545104671257    -0.072320396724    12.000000000000
         C            1.428611570758     0.477842328743     0.096858603276    12.000000000000
         C           -0.998897429242    -0.271027671257    -0.027517396724    12.000000000000
         C            0.875048570758    -1.866381671257    -0.277779396724    12.000000000000
         C            2.785693570758     0.106086328743     0.113132603276    12.000000000000
         C            2.223930570758    -2.216137671257    -0.275304396724    12.000000000000
         C            3.176902570758    -1.218825671257    -0.073669396724    12.000000000000
         C           -1.874776429242    -1.173095671257     0.600258603276    12.000000000000
         C           -3.244509429242    -0.926597671257     0.580631603276    12.000000000000
         C            2.007901570758     2.860180328743     0.253747603276    12.000000000000
         C           -2.973829929242     1.129271528743    -0.611064096724    12.000000000000
         C           -3.711127429242     0.229203328743    -0.045180396724    12.000000000000
         H            0.122514570758    -2.630802671257    -0.462569396724     1.007825032230
         H            3.549225570758     0.864410328743     0.254777603276     1.007825032230
         H            0.145832570758     1.994368328743    -0.128900396724     1.007825032230
         H            2.524549570758    -3.246615671257    -0.445086396724     1.007825032230
         H            4.236368570758    -1.466278671257    -0.065354396724     1.007825032230
         H           -1.475521429242    -2.045018671257     1.109884603276     1.007825032230
         H           -3.934831429242    -1.616169671257     1.060766603276     1.007825032230
         H            2.583217570758     2.868338328743    -0.684383396724     1.007825032230
         H            2.713183570758     2.793352328743     1.087500603276     1.007825032230
         H            1.474813570758     3.808740328743     0.344556603276     1.007825032230
         H           -3.094212429242     2.018520328743    -1.092686396724     1.007825032230
         H           -4.770781429242     0.465535328743    -0.080922396724     1.007825032230

  Basis Set: AUG-CC-PVTZ
    Blend: AUG-CC-PVTZ
  Basis Set: (AUG-CC-PVTZ AUX)
    Blend: AUG-CC-PVTZ-JKFIT
	 Reference Energy          =    -570.4452042260079452 [Eh]
	 Singles Energy            =      -0.0000000000000000 [Eh]
	 Same-Spin Energy          =      -0.6402013058950200 [Eh]
	 Opposite-Spin Energy      =      -1.9822185136298245 [Eh]
	 Correlation Energy        =      -2.6224198195248443 [Eh]
	 Total Energy              =    -573.0676240455327388 [Eh]

	 ================> DF-SCS-MP2 Energies <==================
	-----------------------------------------------------------
	 SCS Same-Spin Scale       =       0.3333333333333333 [-]
	 SCS Opposite-Spin Scale   =       1.2000000000000000 [-]
	 SCS Same-Spin Energy      =      -0.2134004352983400 [Eh]
	 SCS Opposite-Spin Energy  =      -2.3786622163557891 [Eh]
	 SCS Correlation Energy    =      -2.5920626516541292 [Eh]
	 SCS Total Energy          =    -573.0372668776620912 [Eh]
	-----------------------------------------------------------

  Dipole Moment: [D]
     X:    -1.7856      Y:     0.1697      Z:     0.3671     Total:     1.8308

*** Psi4 exiting successfully. Buy a developer a beer!
