                               Psi4 1.3.2 release

  ==> Input File <==

--------------------------------------------------------------------------
#psi4
#
memory 32 gb

molecule  {
0 1
  N        0.9996340     1.7721850     0.3204360
  N       -1.4856460     0.8456190    -0.6184330
  C        0.4210120    -0.5622280    -0.0768460
  C        1.3959190     0.4607190     0.0923330
  C       -1.0094766    -0.2819677    -0.0376875
  C        0.8423560    -1.8835050    -0.2823050
  C        2.7530010     0.0889630     0.1086070
  C        2.1912380    -2.2332610    -0.2798300
  C        3.1442100    -1.2359490    -0.0781950
  C       -1.9074690    -1.1902190     0.5957330
  C       -3.2772020    -0.9437210     0.5761060
  C        1.9752090     2.8430570     0.2492220
  C       -2.8095250     1.0776250    -0.6159580
  C       -3.7438200     0.2120800    -0.0497060
  H        0.0898220    -2.6479260    -0.4670950
  H        3.5165330     0.8472870     0.2502520
  H        0.1131400     1.9772450    -0.1334260
  H        2.4918570    -3.2637390    -0.4496120
  H        4.2036760    -1.4834020    -0.0698800
  H       -1.5082140    -2.0621420     1.1053590
  H       -3.9675240    -1.6332930     1.0562410
  H        2.5505250     2.8512150    -0.6889090
  H        2.6804910     2.7762290     1.0829750
  H        1.4421210     3.7916170     0.3400310
  H       -3.1269050     2.0013970    -1.0972120
  H       -4.8034740     0.4484120    -0.0854480
units angstrom
no_reorient  #important for SAPT in psi4, default
symmetry c1  #important for SAPT in psi4, default
}

set PROPERTIES_ORIGIN ["COM"]
properties('MP2/aug-cc-pvtz', properties = ['dipole'])
--------------------------------------------------------------------------

    Molecular point group: c1
  Charge       = 0
  Multiplicity = 1
  Basis Set: AUG-CC-PVTZ
    Blend: AUG-CC-PVTZ
  Basis Set: (AUG-CC-PVTZ AUX)
    Blend: AUG-CC-PVTZ-JKFIT

    Orbital Energies [Eh]
    ---------------------

    Doubly Occupied:

       1A    -15.567700     2A    -15.551315     3A    -11.291159
       4A    -11.280474     5A    -11.279978     6A    -11.262013
       7A    -11.249239     8A    -11.242896     9A    -11.241719
      10A    -11.238755    11A    -11.237114    12A    -11.232586
      13A    -11.220705    14A    -11.219222    15A     -1.262018
      16A     -1.229224    17A     -1.133840    18A     -1.087210
      19A     -1.061356    20A     -0.999640    21A     -0.992403
      22A     -0.916512    23A     -0.873078    24A     -0.857753
      25A     -0.805630    26A     -0.796754    27A     -0.721216
      28A     -0.698281    29A     -0.670472    30A     -0.659649
      31A     -0.649524    32A     -0.621256    33A     -0.609189
      34A     -0.602958    35A     -0.589737    36A     -0.576372
      37A     -0.568872    38A     -0.547292    39A     -0.534144
      40A     -0.529902    41A     -0.504992    42A     -0.498365
      43A     -0.490615    44A     -0.422617    45A     -0.414729
      46A     -0.388244    47A     -0.366468    48A     -0.316758
      49A     -0.279602

  @DF-RHF Final Energy:  -570.48842599347597

   => Energetics <=

    Nuclear Repulsion Energy =            818.6581265289955809
    One-Electron Energy =               -2397.5100145641144991
    Two-Electron Energy =                1008.3634620416429470
    Total Energy =                       -570.4884259934759712
  Basis Set: (AUG-CC-PVTZ AUX)
    Blend: AUG-CC-PVTZ-RI
    Molecular point group: c1

    Geometry (in Angstrom), charge = 0, multiplicity = 1:

       Center              X                  Y                   Z               Mass
    ------------   -----------------  -----------------  -----------------  -----------------
         N            1.018044495208     1.791155578665     0.325353529301    14.003074004430
         N           -1.467235504792     0.864589578665    -0.613515470699    14.003074004430
         C            0.439422495208    -0.543257421335    -0.071928470699    12.000000000000
         C            1.414329495208     0.479689578665     0.097250529301    12.000000000000
         C           -0.991066104792    -0.262997121335    -0.032769970699    12.000000000000
         C            0.860766495208    -1.864534421335    -0.277387470699    12.000000000000
         C            2.771411495208     0.107933578665     0.113524529301    12.000000000000
         C            2.209648495208    -2.214290421335    -0.274912470699    12.000000000000
         C            3.162620495208    -1.216978421335    -0.073277470699    12.000000000000
         C           -1.889058504792    -1.171248421335     0.600650529301    12.000000000000
         C           -3.258791504792    -0.924750421335     0.581023529301    12.000000000000
         C            1.993619495208     2.862027578665     0.254139529301    12.000000000000
         C           -2.791114504792     1.096595578665    -0.611040470699    12.000000000000
         C           -3.725409504792     0.231050578665    -0.044788470699    12.000000000000
         H            0.108232495208    -2.628955421335    -0.462177470699     1.007825032230
         H            3.534943495208     0.866257578665     0.255169529301     1.007825032230
         H            0.131550495208     1.996215578665    -0.128508470699     1.007825032230
         H            2.510267495208    -3.244768421335    -0.444694470699     1.007825032230
         H            4.222086495208    -1.464431421335    -0.064962470699     1.007825032230
         H           -1.489803504792    -2.043171421335     1.110276529301     1.007825032230
         H           -3.949113504792    -1.614322421335     1.061158529301     1.007825032230
         H            2.568935495208     2.870185578665    -0.683991470699     1.007825032230
         H            2.698901495208     2.795199578665     1.087892529301     1.007825032230
         H            1.460531495208     3.810587578665     0.344948529301     1.007825032230
         H           -3.108494504792     2.020367578665    -1.092294470699     1.007825032230
         H           -4.785063504792     0.467382578665    -0.080530470699     1.007825032230

  Basis Set: AUG-CC-PVTZ
    Blend: AUG-CC-PVTZ
  Basis Set: (AUG-CC-PVTZ AUX)
    Blend: AUG-CC-PVTZ-JKFIT
	 Reference Energy          =    -570.4884259934759712 [Eh]
	 Singles Energy            =      -0.0000000000000000 [Eh]
	 Same-Spin Energy          =      -0.6397767052939168 [Eh]
	 Opposite-Spin Energy      =      -1.9768585963525351 [Eh]
	 Correlation Energy        =      -2.6166353016464519 [Eh]
	 Total Energy              =    -573.1050612951223684 [Eh]

	 ================> DF-SCS-MP2 Energies <==================
	-----------------------------------------------------------
	 SCS Same-Spin Scale       =       0.3333333333333333 [-]
	 SCS Opposite-Spin Scale   =       1.2000000000000000 [-]
	 SCS Same-Spin Energy      =      -0.2132589017646389 [Eh]
	 SCS Opposite-Spin Energy  =      -2.3722303156230420 [Eh]
	 SCS Correlation Energy    =      -2.5854892173876811 [Eh]
	 SCS Total Energy          =    -573.0739152108636745 [Eh]
	-----------------------------------------------------------

  Dipole Moment: [D]
     X:    -1.6478      Y:     0.1556      Z:     0.3576     Total:     1.6933

*** Psi4 exiting successfully. Buy a developer a beer!
