                               Psi4 1.3.2 release

  ==> Input File <==

--------------------------------------------------------------------------
#psi4
#
memory 32 gb

molecule  {
0 1
  N        0.9996340     1.7721850     0.3204360
  N       -1.4856460     0.8456190    -0.6184330
  C        0.4210120    -0.5622280    -0.0768460
  C        1.3959190     0.4607190     0.0923330
  C       -1.0315900    -0.2881510    -0.0320430
  C        0.8423560    -1.8835050    -0.2823050
  C        2.7530010     0.0889630     0.1086070
  C        2.1912380    -2.2332610    -0.2798300
  C        3.1442100    -1.2359490    -0.0781950
  C       -1.8451441    -1.1260306     0.5510624
  C       -3.2772020    -0.9437210     0.5761060
  C        1.9752090     2.8430570     0.2492220
  C       -2.8095250     1.0776250    -0.6159580
  C       -3.7438200     0.2120800    -0.0497060
  H        0.0898220    -2.6479260    -0.4670950
  H        3.5165330     0.8472870     0.2502520
  H        0.1131400     1.9772450    -0.1334260
  H        2.4918570    -3.2637390    -0.4496120
  H        4.2036760    -1.4834020    -0.0698800
  H       -1.5082140    -2.0621420     1.1053590
  H       -3.9675240    -1.6332930     1.0562410
  H        2.5505250     2.8512150    -0.6889090
  H        2.6804910     2.7762290     1.0829750
  H        1.4421210     3.7916170     0.3400310
  H       -3.1269050     2.0013970    -1.0972120
  H       -4.8034740     0.4484120    -0.0854480
units angstrom
no_reorient  #important for SAPT in psi4, default
symmetry c1  #important for SAPT in psi4, default
}

set PROPERTIES_ORIGIN ["COM"]
properties('MP2/aug-cc-pvtz', properties = ['dipole'])
--------------------------------------------------------------------------

    Molecular point group: c1
  Charge       = 0
  Multiplicity = 1
  Basis Set: AUG-CC-PVTZ
    Blend: AUG-CC-PVTZ
  Basis Set: (AUG-CC-PVTZ AUX)
    Blend: AUG-CC-PVTZ-JKFIT

    Orbital Energies [Eh]
    ---------------------

    Doubly Occupied:

       1A    -15.568658     2A    -15.548939     3A    -11.284254
       4A    -11.276225     5A    -11.273872     6A    -11.271471
       7A    -11.247618     8A    -11.245345     9A    -11.239297
      10A    -11.234542    11A    -11.233394    12A    -11.230362
      13A    -11.217959    14A    -11.216307    15A     -1.267637
      16A     -1.227813    17A     -1.130965    18A     -1.084360
      19A     -1.068451    20A     -0.997155    21A     -0.993904
      22A     -0.914236    23A     -0.871013    24A     -0.864118
      25A     -0.804729    26A     -0.794792    27A     -0.721760
      28A     -0.695102    29A     -0.674461    30A     -0.654166
      31A     -0.646449    32A     -0.624637    33A     -0.607487
      34A     -0.601632    35A     -0.587966    36A     -0.580926
      37A     -0.566991    38A     -0.552977    39A     -0.531093
      40A     -0.519133    41A     -0.501218    42A     -0.493008
      43A     -0.484009    44A     -0.424838    45A     -0.416463
      46A     -0.383154    47A     -0.373484    48A     -0.319374
      49A     -0.278707

  @DF-RHF Final Energy:  -570.47619281372863

   => Energetics <=

    Nuclear Repulsion Energy =            820.3651400486104421
    One-Electron Energy =               -2400.9897667612763144
    Two-Electron Energy =                1010.1484338989371281
    Total Energy =                       -570.4761928137286304
  Basis Set: (AUG-CC-PVTZ AUX)
    Blend: AUG-CC-PVTZ-RI
    Molecular point group: c1

    Geometry (in Angstrom), charge = 0, multiplicity = 1:

       Center              X                  Y                   Z               Mass
    ------------   -----------------  -----------------  -----------------  -----------------
         N            1.015423431258     1.787374693184     0.327897326568    14.003074004430
         N           -1.469856568742     0.860808693184    -0.610971673432    14.003074004430
         C            0.436801431258    -0.547038306816    -0.069384673432    12.000000000000
         C            1.411708431258     0.475908693184     0.099794326568    12.000000000000
         C           -1.015800568742    -0.272961306816    -0.024581673432    12.000000000000
         C            0.858145431258    -1.868315306816    -0.274843673432    12.000000000000
         C            2.768790431258     0.104152693184     0.116068326568    12.000000000000
         C            2.207027431258    -2.218071306816    -0.272368673432    12.000000000000
         C            3.159999431258    -1.220759306816    -0.070733673432    12.000000000000
         C           -1.829354668742    -1.110840906816     0.558523726568    12.000000000000
         C           -3.261412568742    -0.928531306816     0.583567326568    12.000000000000
         C            1.990998431258     2.858246693184     0.256683326568    12.000000000000
         C           -2.793735568742     1.092814693184    -0.608496673432    12.000000000000
         C           -3.728030568742     0.227269693184    -0.042244673432    12.000000000000
         H            0.105611431258    -2.632736306816    -0.459633673432     1.007825032230
         H            3.532322431258     0.862476693184     0.257713326568     1.007825032230
         H            0.128929431258     1.992434693184    -0.125964673432     1.007825032230
         H            2.507646431258    -3.248549306816    -0.442150673432     1.007825032230
         H            4.219465431258    -1.468212306816    -0.062418673432     1.007825032230
         H           -1.492424568742    -2.046952306816     1.112820326568     1.007825032230
         H           -3.951734568742    -1.618103306816     1.063702326568     1.007825032230
         H            2.566314431258     2.866404693184    -0.681447673432     1.007825032230
         H            2.696280431258     2.791418693184     1.090436326568     1.007825032230
         H            1.457910431258     3.806806693184     0.347492326568     1.007825032230
         H           -3.111115568742     2.016586693184    -1.089750673432     1.007825032230
         H           -4.787684568742     0.463601693184    -0.077986673432     1.007825032230

  Basis Set: AUG-CC-PVTZ
    Blend: AUG-CC-PVTZ
  Basis Set: (AUG-CC-PVTZ AUX)
    Blend: AUG-CC-PVTZ-JKFIT
	 Reference Energy          =    -570.4761928137286304 [Eh]
	 Singles Energy            =      -0.0000000000000000 [Eh]
	 Same-Spin Energy          =      -0.6395921382664064 [Eh]
	 Opposite-Spin Energy      =      -1.9771175444779094 [Eh]
	 Correlation Energy        =      -2.6167096827443159 [Eh]
	 Total Energy              =    -573.0929024964729024 [Eh]

	 ================> DF-SCS-MP2 Energies <==================
	-----------------------------------------------------------
	 SCS Same-Spin Scale       =       0.3333333333333333 [-]
	 SCS Opposite-Spin Scale   =       1.2000000000000000 [-]
	 SCS Same-Spin Energy      =      -0.2131973794221355 [Eh]
	 SCS Opposite-Spin Energy  =      -2.3725410533734914 [Eh]
	 SCS Correlation Energy    =      -2.5857384327956270 [Eh]
	 SCS Total Energy          =    -573.0619312465242956 [Eh]
	-----------------------------------------------------------

  Dipole Moment: [D]
     X:    -1.9683      Y:     0.1856      Z:     0.3557     Total:     2.0088

*** Psi4 exiting successfully. Buy a developer a beer!
