                               Psi4 1.3.2 release

  ==> Input File <==

--------------------------------------------------------------------------
#psi4
#
memory 32 gb

molecule  {
0 1
  N        0.9996340     1.7721850     0.3204360
  N       -1.6156274     0.8053230    -0.5785496
  C        0.4210120    -0.5622280    -0.0768460
  C        1.3959190     0.4607190     0.0923330
  C       -1.0315900    -0.2881510    -0.0320430
  C        0.8423560    -1.8835050    -0.2823050
  C        2.7530010     0.0889630     0.1086070
  C        2.1912380    -2.2332610    -0.2798300
  C        3.1442100    -1.2359490    -0.0781950
  C       -1.9074690    -1.1902190     0.5957330
  C       -3.2772020    -0.9437210     0.5761060
  C        1.9752090     2.8430570     0.2492220
  C       -2.8095250     1.0776250    -0.6159580
  C       -3.7438200     0.2120800    -0.0497060
  H        0.0898220    -2.6479260    -0.4670950
  H        3.5165330     0.8472870     0.2502520
  H        0.1131400     1.9772450    -0.1334260
  H        2.4918570    -3.2637390    -0.4496120
  H        4.2036760    -1.4834020    -0.0698800
  H       -1.5082140    -2.0621420     1.1053590
  H       -3.9675240    -1.6332930     1.0562410
  H        2.5505250     2.8512150    -0.6889090
  H        2.6804910     2.7762290     1.0829750
  H        1.4421210     3.7916170     0.3400310
  H       -3.1269050     2.0013970    -1.0972120
  H       -4.8034740     0.4484120    -0.0854480
units angstrom
no_reorient  #important for SAPT in psi4, default
symmetry c1  #important for SAPT in psi4, default
}

set PROPERTIES_ORIGIN ["COM"]
properties('MP2/aug-cc-pvtz', properties = ['dipole'])
--------------------------------------------------------------------------

    Molecular point group: c1
  Charge       = 0
  Multiplicity = 1
  Basis Set: AUG-CC-PVTZ
    Blend: AUG-CC-PVTZ
  Basis Set: (AUG-CC-PVTZ AUX)
    Blend: AUG-CC-PVTZ-JKFIT

    Orbital Energies [Eh]
    ---------------------

    Doubly Occupied:

       1A    -15.554940     2A    -15.550060     3A    -11.289095
       4A    -11.280840     5A    -11.264790     6A    -11.256125
       7A    -11.251160     8A    -11.239382     9A    -11.238989
      10A    -11.237502    11A    -11.236891    12A    -11.236453
      13A    -11.221690    14A    -11.220094    15A     -1.289691
      16A     -1.234723    17A     -1.135651    18A     -1.086780
      19A     -1.065181    20A     -1.000847    21A     -0.994266
      22A     -0.917218    23A     -0.878857    24A     -0.851976
      25A     -0.813660    26A     -0.797418    27A     -0.724488
      28A     -0.703361    29A     -0.671955    30A     -0.660482
      31A     -0.652315    32A     -0.622668    33A     -0.611863
      34A     -0.604726    35A     -0.591606    36A     -0.575723
      37A     -0.570722    38A     -0.560713    39A     -0.535836
      40A     -0.532086    41A     -0.508701    42A     -0.501290
      43A     -0.489960    44A     -0.422597    45A     -0.393518
      46A     -0.389891    47A     -0.370642    48A     -0.316145
      49A     -0.280236

  @DF-RHF Final Energy:  -570.47697655523382

   => Energetics <=

    Nuclear Repulsion Energy =            819.9597908080108937
    One-Electron Energy =               -2400.0019322259131513
    Two-Electron Energy =                1009.5651648626684391
    Total Energy =                       -570.4769765552338185
  Basis Set: (AUG-CC-PVTZ AUX)
    Blend: AUG-CC-PVTZ-RI
    Molecular point group: c1

    Geometry (in Angstrom), charge = 0, multiplicity = 1:

       Center              X                  Y                   Z               Mass
    ------------   -----------------  -----------------  -----------------  -----------------
         N            1.029372574595     1.794623624848     0.321951986459    14.003074004430
         N           -1.585888825405     0.827761624848    -0.577033613541    14.003074004430
         C            0.450750574595    -0.539789375152    -0.075330013541    12.000000000000
         C            1.425657574595     0.483157624848     0.093848986459    12.000000000000
         C           -1.001851425405    -0.265712375152    -0.030527013541    12.000000000000
         C            0.872094574595    -1.861066375152    -0.280789013541    12.000000000000
         C            2.782739574595     0.111401624848     0.110122986459    12.000000000000
         C            2.220976574595    -2.210822375152    -0.278314013541    12.000000000000
         C            3.173948574595    -1.213510375152    -0.076679013541    12.000000000000
         C           -1.877730425405    -1.167780375152     0.597248986459    12.000000000000
         C           -3.247463425405    -0.921282375152     0.577621986459    12.000000000000
         C            2.004947574595     2.865495624848     0.250737986459    12.000000000000
         C           -2.779786425405     1.100063624848    -0.614442013541    12.000000000000
         C           -3.714081425405     0.234518624848    -0.048190013541    12.000000000000
         H            0.119560574595    -2.625487375152    -0.465579013541     1.007825032230
         H            3.546271574595     0.869725624848     0.251767986459     1.007825032230
         H            0.142878574595     1.999683624848    -0.131910013541     1.007825032230
         H            2.521595574595    -3.241300375152    -0.448096013541     1.007825032230
         H            4.233414574595    -1.460963375152    -0.068364013541     1.007825032230
         H           -1.478475425405    -2.039703375152     1.106874986459     1.007825032230
         H           -3.937785425405    -1.610854375152     1.057756986459     1.007825032230
         H            2.580263574595     2.873653624848    -0.687393013541     1.007825032230
         H            2.710229574595     2.798667624848     1.084490986459     1.007825032230
         H            1.471859574595     3.814055624848     0.341546986459     1.007825032230
         H           -3.097166425405     2.023835624848    -1.095696013541     1.007825032230
         H           -4.773735425405     0.470850624848    -0.083932013541     1.007825032230

  Basis Set: AUG-CC-PVTZ
    Blend: AUG-CC-PVTZ
  Basis Set: (AUG-CC-PVTZ AUX)
    Blend: AUG-CC-PVTZ-JKFIT
	 Reference Energy          =    -570.4769765552338185 [Eh]
	 Singles Energy            =      -0.0000000000000000 [Eh]
	 Same-Spin Energy          =      -0.6383594088638469 [Eh]
	 Opposite-Spin Energy      =      -1.9731045738030522 [Eh]
	 Correlation Energy        =      -2.6114639826668991 [Eh]
	 Total Energy              =    -573.0884405379007376 [Eh]

	 ================> DF-SCS-MP2 Energies <==================
	-----------------------------------------------------------
	 SCS Same-Spin Scale       =       0.3333333333333333 [-]
	 SCS Opposite-Spin Scale   =       1.2000000000000000 [-]
	 SCS Same-Spin Energy      =      -0.2127864696212823 [Eh]
	 SCS Opposite-Spin Energy  =      -2.3677254885636625 [Eh]
	 SCS Correlation Energy    =      -2.5805119581849447 [Eh]
	 SCS Total Energy          =    -573.0574885134187753 [Eh]
	-----------------------------------------------------------

  Dipole Moment: [D]
     X:    -1.3119      Y:     0.2632      Z:     0.2762     Total:     1.3663

*** Psi4 exiting successfully. Buy a developer a beer!
