                               Psi4 1.4a3.dev225

  ==> Input File <==

--------------------------------------------------------------------------
#psi4
#
memory 32 gb

molecule  {
0 1
  N        0.9996340     1.7721850     0.3204360
  N       -1.4856460     0.8456190    -0.6184330
  C        0.4210120    -0.5622280    -0.0768460
  C        1.3959190     0.4607190     0.0923330
  C       -1.0315900    -0.2881510    -0.0320430
  C        0.8423560    -1.8835050    -0.2823050
  C        2.7530010     0.0889630     0.1086070
  C        2.1912380    -2.2332610    -0.2798300
  C        3.1442100    -1.2359490    -0.0781950
  C       -1.8763066    -1.1581248     0.5733977
  C       -3.2772020    -0.9437210     0.5761060
  C        1.9752090     2.8430570     0.2492220
  C       -2.8095250     1.0776250    -0.6159580
  C       -3.7438200     0.2120800    -0.0497060
  H        0.0898220    -2.6479260    -0.4670950
  H        3.5165330     0.8472870     0.2502520
  H        0.1131400     1.9772450    -0.1334260
  H        2.4918570    -3.2637390    -0.4496120
  H        4.2036760    -1.4834020    -0.0698800
  H       -1.5082140    -2.0621420     1.1053590
  H       -3.9675240    -1.6332930     1.0562410
  H        2.5505250     2.8512150    -0.6889090
  H        2.6804910     2.7762290     1.0829750
  H        1.4421210     3.7916170     0.3400310
  H       -3.1269050     2.0013970    -1.0972120
  H       -4.8034740     0.4484120    -0.0854480
units angstrom
no_reorient  #important for SAPT in psi4, default
symmetry c1  #important for SAPT in psi4, default
}

set PROPERTIES_ORIGIN ["COM"]
properties('MP2/aug-cc-pvtz', properties = ['dipole'])
--------------------------------------------------------------------------

    Molecular point group: c1
  Charge       = 0
  Multiplicity = 1
  Basis Set: AUG-CC-PVTZ
    Blend: AUG-CC-PVTZ
  Basis Set: (AUG-CC-PVTZ AUX)
    Blend: AUG-CC-PVTZ-JKFIT

    Orbital Energies [Eh]
    ---------------------

    Doubly Occupied:

       1A    -15.568677     2A    -15.549717     3A    -11.282752
       4A    -11.282322     5A    -11.277592     6A    -11.267410
       7A    -11.248162     8A    -11.243883     9A    -11.240602
      10A    -11.235987    11A    -11.234661    12A    -11.231739
      13A    -11.218967    14A    -11.217339    15A     -1.265241
      16A     -1.228334    17A     -1.131621    18A     -1.086587
      19A     -1.064118    20A     -0.997905    21A     -0.993390
      22A     -0.914904    23A     -0.868511    24A     -0.864604
      25A     -0.805154    26A     -0.795564    27A     -0.721261
      28A     -0.696432    29A     -0.672072    30A     -0.656096
      31A     -0.648289    32A     -0.623387    33A     -0.608029
      34A     -0.601986    35A     -0.588837    36A     -0.579030
      37A     -0.567579    38A     -0.550494    39A     -0.531953
      40A     -0.524515    41A     -0.502448    42A     -0.495397
      43A     -0.487392    44A     -0.424006    45A     -0.416698
      46A     -0.384980    47A     -0.370394    48A     -0.318500
      49A     -0.279108

  @DF-RHF Final Energy:  -570.48653571463228

   => Energetics <=

    Nuclear Repulsion Energy =            819.4531119230978220
    One-Electron Energy =               -2399.1500455776322269
    Two-Electron Energy =                1009.2103979399021227
    Total Energy =                       -570.4865357146322822
  Basis Set: (AUG-CC-PVTZ AUX)
    Blend: AUG-CC-PVTZ-RI
    Molecular point group: c1

    Geometry (in Angstrom), charge = 0, multiplicity = 1:

       Center              X                  Y                   Z               Mass
    ------------   -----------------  -----------------  -----------------  -----------------
         N            1.017454663750     1.789466655698     0.326441468178    14.003074004430
         N           -1.467825336250     0.862900655698    -0.612427531822    14.003074004430
         C            0.438832663750    -0.544946344302    -0.070840531822    12.000000000000
         C            1.413739663750     0.478000655698     0.098338468178    12.000000000000
         C           -1.013769336250    -0.270869344302    -0.026037531822    12.000000000000
         C            0.860176663750    -1.866223344302    -0.276299531822    12.000000000000
         C            2.770821663750     0.106244655698     0.114612468178    12.000000000000
         C            2.209058663750    -2.215979344302    -0.273824531822    12.000000000000
         C            3.162030663750    -1.218667344302    -0.072189531822    12.000000000000
         C           -1.858485936250    -1.140843144302     0.579403168178    12.000000000000
         C           -3.259381336250    -0.926439344302     0.582111468178    12.000000000000
         C            1.993029663750     2.860338655698     0.255227468178    12.000000000000
         C           -2.791704336250     1.094906655698    -0.609952531822    12.000000000000
         C           -3.725999336250     0.229361655698    -0.043700531822    12.000000000000
         H            0.107642663750    -2.630644344302    -0.461089531822     1.007825032230
         H            3.534353663750     0.864568655698     0.256257468178     1.007825032230
         H            0.130960663750     1.994526655698    -0.127420531822     1.007825032230
         H            2.509677663750    -3.246457344302    -0.443606531822     1.007825032230
         H            4.221496663750    -1.466120344302    -0.063874531822     1.007825032230
         H           -1.490393336250    -2.044860344302     1.111364468178     1.007825032230
         H           -3.949703336250    -1.616011344302     1.062246468178     1.007825032230
         H            2.568345663750     2.868496655698    -0.682903531822     1.007825032230
         H            2.698311663750     2.793510655698     1.088980468178     1.007825032230
         H            1.459941663750     3.808898655698     0.346036468178     1.007825032230
         H           -3.109084336250     2.018678655698    -1.091206531822     1.007825032230
         H           -4.785653336250     0.465693655698    -0.079442531822     1.007825032230

  Basis Set: AUG-CC-PVTZ
    Blend: AUG-CC-PVTZ
  Basis Set: (AUG-CC-PVTZ AUX)
    Blend: AUG-CC-PVTZ-JKFIT
	 Reference Energy          =    -570.4865357146322822 [Eh]
	 Singles Energy            =      -0.0000000000000000 [Eh]
	 Same-Spin Energy          =      -0.6395779366027073 [Eh]
	 Opposite-Spin Energy      =      -1.9766662395967720 [Eh]
	 Correlation Energy        =      -2.6162441761994795 [Eh]
	 Total Energy              =    -573.1027798908318118 [Eh]

	 ================> DF-SCS-MP2 Energies <==================
	-----------------------------------------------------------
	 SCS Same-Spin Scale       =       0.3333333333333333 [-]
	 SCS Opposite-Spin Scale   =       1.2000000000000000 [-]
	 SCS Same-Spin Energy      =      -0.2131926455342358 [Eh]
	 SCS Opposite-Spin Energy  =      -2.3719994875161263 [Eh]
	 SCS Correlation Energy    =      -2.5851921330503620 [Eh]
	 SCS Total Energy          =    -573.0717278476826095 [Eh]
	-----------------------------------------------------------

  Dipole Moment: [D]
     X:    -1.8624      Y:     0.1702      Z:     0.3607     Total:     1.9046

*** Psi4 exiting successfully. Buy a developer a beer!
