                               Psi4 1.3.2 release

  ==> Input File <==

--------------------------------------------------------------------------
#psi4
#
memory 32 gb

molecule  {
0 1
  N        0.9629156     1.8255280     0.4577444
  N       -1.4856460     0.8456190    -0.6184330
  C        0.4210120    -0.5622280    -0.0768460
  C        1.3959190     0.4607190     0.0923330
  C       -1.0315900    -0.2881510    -0.0320430
  C        0.8423560    -1.8835050    -0.2823050
  C        2.7530010     0.0889630     0.1086070
  C        2.1912380    -2.2332610    -0.2798300
  C        3.1442100    -1.2359490    -0.0781950
  C       -1.9074690    -1.1902190     0.5957330
  C       -3.2772020    -0.9437210     0.5761060
  C        1.9752090     2.8430570     0.2492220
  C       -2.8095250     1.0776250    -0.6159580
  C       -3.7438200     0.2120800    -0.0497060
  H        0.0898220    -2.6479260    -0.4670950
  H        3.5165330     0.8472870     0.2502520
  H        0.1131400     1.9772450    -0.1334260
  H        2.4918570    -3.2637390    -0.4496120
  H        4.2036760    -1.4834020    -0.0698800
  H       -1.5082140    -2.0621420     1.1053590
  H       -3.9675240    -1.6332930     1.0562410
  H        2.5505250     2.8512150    -0.6889090
  H        2.6804910     2.7762290     1.0829750
  H        1.4421210     3.7916170     0.3400310
  H       -3.1269050     2.0013970    -1.0972120
  H       -4.8034740     0.4484120    -0.0854480
units angstrom
no_reorient  #important for SAPT in psi4, default
symmetry c1  #important for SAPT in psi4, default
}

set PROPERTIES_ORIGIN ["COM"]
properties('MP2/aug-cc-pvtz', properties = ['dipole'])
--------------------------------------------------------------------------

    Molecular point group: c1
  Charge       = 0
  Multiplicity = 1
  Basis Set: AUG-CC-PVTZ
    Blend: AUG-CC-PVTZ
  Basis Set: (AUG-CC-PVTZ AUX)
    Blend: AUG-CC-PVTZ-JKFIT

    Orbital Energies [Eh]
    ---------------------

    Doubly Occupied:

       1A    -15.570171     2A    -15.554891     3A    -11.291230
       4A    -11.282125     5A    -11.279949     6A    -11.264112
       7A    -11.243614     8A    -11.242987     9A    -11.241707
      10A    -11.240309    11A    -11.239105    12A    -11.238259
      13A    -11.226809    14A    -11.226021    15A     -1.262719
      16A     -1.208276    17A     -1.134968    18A     -1.089869
      19A     -1.062847    20A     -1.001330    21A     -0.993028
      22A     -0.904808    23A     -0.872054    24A     -0.860851
      25A     -0.805464    26A     -0.796440    27A     -0.720360
      28A     -0.688899    29A     -0.671278    30A     -0.655723
      31A     -0.647101    32A     -0.618214    33A     -0.609098
      34A     -0.603054    35A     -0.591374    36A     -0.576834
      37A     -0.559170    38A     -0.544615    39A     -0.535218
      40A     -0.521005    41A     -0.506244    42A     -0.491704
      43A     -0.486626    44A     -0.424343    45A     -0.413582
      46A     -0.388683    47A     -0.368304    48A     -0.321324
      49A     -0.292953

  @DF-RHF Final Energy:  -570.47808640357084

   => Energetics <=

    Nuclear Repulsion Energy =            816.3820663136718849
    One-Electron Energy =               -2392.9810075351351770
    Two-Electron Energy =                1006.1208548178924502
    Total Energy =                       -570.4780864035708419
  Basis Set: (AUG-CC-PVTZ AUX)
    Blend: AUG-CC-PVTZ-RI
    Molecular point group: c1

    Geometry (in Angstrom), charge = 0, multiplicity = 1:

       Center              X                  Y                   Z               Mass
    ------------   -----------------  -----------------  -----------------  -----------------
         N            0.985560375858     1.840844226683     0.451850016409    14.003074004430
         N           -1.463001224142     0.860935226683    -0.624327383591    14.003074004430
         C            0.443656775858    -0.546911773317    -0.082740383591    12.000000000000
         C            1.418563775858     0.476035226683     0.086438616409    12.000000000000
         C           -1.008945224142    -0.272834773317    -0.037937383591    12.000000000000
         C            0.865000775858    -1.868188773317    -0.288199383591    12.000000000000
         C            2.775645775858     0.104279226683     0.102712616409    12.000000000000
         C            2.213882775858    -2.217944773317    -0.285724383591    12.000000000000
         C            3.166854775858    -1.220632773317    -0.084089383591    12.000000000000
         C           -1.884824224142    -1.174902773317     0.589838616409    12.000000000000
         C           -3.254557224142    -0.928404773317     0.570211616409    12.000000000000
         C            1.997853775858     2.858373226683     0.243327616409    12.000000000000
         C           -2.786880224142     1.092941226683    -0.621852383591    12.000000000000
         C           -3.721175224142     0.227396226683    -0.055600383591    12.000000000000
         H            0.112466775858    -2.632609773317    -0.472989383591     1.007825032230
         H            3.539177775858     0.862603226683     0.244357616409     1.007825032230
         H            0.135784775858     1.992561226683    -0.139320383591     1.007825032230
         H            2.514501775858    -3.248422773317    -0.455506383591     1.007825032230
         H            4.226320775858    -1.468085773317    -0.075774383591     1.007825032230
         H           -1.485569224142    -2.046825773317     1.099464616409     1.007825032230
         H           -3.944879224142    -1.617976773317     1.050346616409     1.007825032230
         H            2.573169775858     2.866531226683    -0.694803383591     1.007825032230
         H            2.703135775858     2.791545226683     1.077080616409     1.007825032230
         H            1.464765775858     3.806933226683     0.334136616409     1.007825032230
         H           -3.104260224142     2.016713226683    -1.103106383591     1.007825032230
         H           -4.780829224142     0.463728226683    -0.091342383591     1.007825032230

  Basis Set: AUG-CC-PVTZ
    Blend: AUG-CC-PVTZ
  Basis Set: (AUG-CC-PVTZ AUX)
    Blend: AUG-CC-PVTZ-JKFIT
	 Reference Energy          =    -570.4780864035708419 [Eh]
	 Singles Energy            =      -0.0000000000000000 [Eh]
	 Same-Spin Energy          =      -0.6397254784495695 [Eh]
	 Opposite-Spin Energy      =      -1.9786623500091456 [Eh]
	 Correlation Energy        =      -2.6183878284587152 [Eh]
	 Total Energy              =    -573.0964742320295500 [Eh]

	 ================> DF-SCS-MP2 Energies <==================
	-----------------------------------------------------------
	 SCS Same-Spin Scale       =       0.3333333333333333 [-]
	 SCS Opposite-Spin Scale   =       1.2000000000000000 [-]
	 SCS Same-Spin Energy      =      -0.2132418261498565 [Eh]
	 SCS Opposite-Spin Energy  =      -2.3743948200109748 [Eh]
	 SCS Correlation Energy    =      -2.5876366461608313 [Eh]
	 SCS Total Energy          =    -573.0657230497316732 [Eh]
	-----------------------------------------------------------

  Dipole Moment: [D]
     X:    -1.6450      Y:    -0.5155      Z:     0.0417     Total:     1.7244

*** Psi4 exiting successfully. Buy a developer a beer!
