                               Psi4 1.3.2 release

  ==> Input File <==

--------------------------------------------------------------------------
#psi4
#
memory 32 gb

molecule  {
0 1
  N        0.9996340     1.7721850     0.3204360
  N       -1.4856460     0.8456190    -0.6184330
  C        0.4210120    -0.5622280    -0.0768460
  C        1.4138649     0.4437350     0.0897893
  C       -1.0315900    -0.2881510    -0.0320430
  C        0.8423560    -1.8835050    -0.2823050
  C        2.7530010     0.0889630     0.1086070
  C        2.1912380    -2.2332610    -0.2798300
  C        3.1442100    -1.2359490    -0.0781950
  C       -1.9074690    -1.1902190     0.5957330
  C       -3.2772020    -0.9437210     0.5761060
  C        1.9752090     2.8430570     0.2492220
  C       -2.8095250     1.0776250    -0.6159580
  C       -3.7438200     0.2120800    -0.0497060
  H        0.0898220    -2.6479260    -0.4670950
  H        3.5165330     0.8472870     0.2502520
  H        0.1131400     1.9772450    -0.1334260
  H        2.4918570    -3.2637390    -0.4496120
  H        4.2036760    -1.4834020    -0.0698800
  H       -1.5082140    -2.0621420     1.1053590
  H       -3.9675240    -1.6332930     1.0562410
  H        2.5505250     2.8512150    -0.6889090
  H        2.6804910     2.7762290     1.0829750
  H        1.4421210     3.7916170     0.3400310
  H       -3.1269050     2.0013970    -1.0972120
  H       -4.8034740     0.4484120    -0.0854480
units angstrom
no_reorient  #important for SAPT in psi4, default
symmetry c1  #important for SAPT in psi4, default
}

set PROPERTIES_ORIGIN ["COM"]
properties('MP2/aug-cc-pvtz', properties = ['dipole'])
--------------------------------------------------------------------------

    Molecular point group: c1
  Charge       = 0
  Multiplicity = 1
  Basis Set: AUG-CC-PVTZ
    Blend: AUG-CC-PVTZ
  Basis Set: (AUG-CC-PVTZ AUX)
    Blend: AUG-CC-PVTZ-JKFIT

    Orbital Energies [Eh]
    ---------------------

    Doubly Occupied:

       1A    -15.568950     2A    -15.547707     3A    -11.290767
       4A    -11.281544     5A    -11.276929     6A    -11.263563
       7A    -11.246398     8A    -11.242907     9A    -11.242210
      10A    -11.237854    11A    -11.236614    12A    -11.234481
      13A    -11.219724    14A    -11.218750    15A     -1.262861
      16A     -1.222516    17A     -1.133622    18A     -1.089244
      19A     -1.061605    20A     -1.001560    21A     -0.992788
      22A     -0.912275    23A     -0.872145    24A     -0.860383
      25A     -0.806521    26A     -0.795987    27A     -0.721145
      28A     -0.696333    29A     -0.671066    30A     -0.658000
      31A     -0.648689    32A     -0.621046    33A     -0.607951
      34A     -0.602169    35A     -0.590309    36A     -0.577030
      37A     -0.566874    38A     -0.548346    39A     -0.534153
      40A     -0.527297    41A     -0.504181    42A     -0.496498
      43A     -0.491129    44A     -0.422466    45A     -0.414144
      46A     -0.388280    47A     -0.367791    48A     -0.318615
      49A     -0.281948

  @DF-RHF Final Energy:  -570.48914406338804

   => Energetics <=

    Nuclear Repulsion Energy =            818.5361348468087499
    One-Electron Energy =               -2397.2998317485225925
    Two-Electron Energy =                1008.2745528383259170
    Total Energy =                       -570.4891440633880393
  Basis Set: (AUG-CC-PVTZ AUX)
    Blend: AUG-CC-PVTZ-RI
    Molecular point group: c1

    Geometry (in Angstrom), charge = 0, multiplicity = 1:

       Center              X                  Y                   Z               Mass
    ------------   -----------------  -----------------  -----------------  -----------------
         N            1.018316140981     1.792665668436     0.325151413113    14.003074004430
         N           -1.466963859019     0.866099668436    -0.613717586887    14.003074004430
         C            0.439694140981    -0.541747331564    -0.072130586887    12.000000000000
         C            1.432547040981     0.464215668436     0.094504713113    12.000000000000
         C           -1.012907859019    -0.267670331564    -0.027327586887    12.000000000000
         C            0.861038140981    -1.863024331564    -0.277589586887    12.000000000000
         C            2.771683140981     0.109443668436     0.113322413113    12.000000000000
         C            2.209920140981    -2.212780331564    -0.275114586887    12.000000000000
         C            3.162892140981    -1.215468331564    -0.073479586887    12.000000000000
         C           -1.888786859019    -1.169738331564     0.600448413113    12.000000000000
         C           -3.258519859019    -0.923240331564     0.580821413113    12.000000000000
         C            1.993891140981     2.863537668436     0.253937413113    12.000000000000
         C           -2.790842859019     1.098105668436    -0.611242586887    12.000000000000
         C           -3.725137859019     0.232560668436    -0.044990586887    12.000000000000
         H            0.108504140981    -2.627445331564    -0.462379586887     1.007825032230
         H            3.535215140981     0.867767668436     0.254967413113     1.007825032230
         H            0.131822140981     1.997725668436    -0.128710586887     1.007825032230
         H            2.510539140981    -3.243258331564    -0.444896586887     1.007825032230
         H            4.222358140981    -1.462921331564    -0.065164586887     1.007825032230
         H           -1.489531859019    -2.041661331564     1.110074413113     1.007825032230
         H           -3.948841859019    -1.612812331564     1.060956413113     1.007825032230
         H            2.569207140981     2.871695668436    -0.684193586887     1.007825032230
         H            2.699173140981     2.796709668436     1.087690413113     1.007825032230
         H            1.460803140981     3.812097668436     0.344746413113     1.007825032230
         H           -3.108222859019     2.021877668436    -1.092496586887     1.007825032230
         H           -4.784791859019     0.468892668436    -0.080732586887     1.007825032230

  Basis Set: AUG-CC-PVTZ
    Blend: AUG-CC-PVTZ
  Basis Set: (AUG-CC-PVTZ AUX)
    Blend: AUG-CC-PVTZ-JKFIT
	 Reference Energy          =    -570.4891440633880393 [Eh]
	 Singles Energy            =      -0.0000000000000000 [Eh]
	 Same-Spin Energy          =      -0.6393354320618747 [Eh]
	 Opposite-Spin Energy      =      -1.9763414715192815 [Eh]
	 Correlation Energy        =      -2.6156769035811562 [Eh]
	 Total Energy              =    -573.1048209669692142 [Eh]

	 ================> DF-SCS-MP2 Energies <==================
	-----------------------------------------------------------
	 SCS Same-Spin Scale       =       0.3333333333333333 [-]
	 SCS Opposite-Spin Scale   =       1.2000000000000000 [-]
	 SCS Same-Spin Energy      =      -0.2131118106872916 [Eh]
	 SCS Opposite-Spin Energy  =      -2.3716097658231376 [Eh]
	 SCS Correlation Energy    =      -2.5847215765104292 [Eh]
	 SCS Total Energy          =    -573.0738656398984858 [Eh]
	-----------------------------------------------------------

  Dipole Moment: [D]
     X:    -1.7632      Y:     0.0108      Z:     0.3351     Total:     1.7948

*** Psi4 exiting successfully. Buy a developer a beer!
