                               Psi4 1.3.2 release

  ==> Input File <==

--------------------------------------------------------------------------
#psi4
#
memory 32 gb

molecule  {
0 1
  N        0.9996340     1.7721850     0.3204360
  N       -1.3962216     0.8652475    -0.6421005
  C        0.4210120    -0.5622280    -0.0768460
  C        1.3959190     0.4607190     0.0923330
  C       -1.0315900    -0.2881510    -0.0320430
  C        0.8423560    -1.8835050    -0.2823050
  C        2.7530010     0.0889630     0.1086070
  C        2.1912380    -2.2332610    -0.2798300
  C        3.1442100    -1.2359490    -0.0781950
  C       -1.9074690    -1.1902190     0.5957330
  C       -3.2772020    -0.9437210     0.5761060
  C        1.9752090     2.8430570     0.2492220
  C       -2.8095250     1.0776250    -0.6159580
  C       -3.7438200     0.2120800    -0.0497060
  H        0.0898220    -2.6479260    -0.4670950
  H        3.5165330     0.8472870     0.2502520
  H        0.1131400     1.9772450    -0.1334260
  H        2.4918570    -3.2637390    -0.4496120
  H        4.2036760    -1.4834020    -0.0698800
  H       -1.5082140    -2.0621420     1.1053590
  H       -3.9675240    -1.6332930     1.0562410
  H        2.5505250     2.8512150    -0.6889090
  H        2.6804910     2.7762290     1.0829750
  H        1.4421210     3.7916170     0.3400310
  H       -3.1269050     2.0013970    -1.0972120
  H       -4.8034740     0.4484120    -0.0854480
units angstrom
no_reorient  #important for SAPT in psi4, default
symmetry c1  #important for SAPT in psi4, default
}

set PROPERTIES_ORIGIN ["COM"]
properties('MP2/aug-cc-pvtz', properties = ['dipole'])
--------------------------------------------------------------------------

    Molecular point group: c1
  Charge       = 0
  Multiplicity = 1
  Basis Set: AUG-CC-PVTZ
    Blend: AUG-CC-PVTZ
  Basis Set: (AUG-CC-PVTZ AUX)
    Blend: AUG-CC-PVTZ-JKFIT

    Orbital Energies [Eh]
    ---------------------

    Doubly Occupied:

       1A    -15.579613     2A    -15.547569     3A    -11.291296
       4A    -11.291109     5A    -11.277572     6A    -11.267702
       7A    -11.247162     8A    -11.246328     9A    -11.243640
      10A    -11.235970    11A    -11.234713    12A    -11.230747
      13A    -11.218840    14A    -11.217193    15A     -1.252465
      16A     -1.222940    17A     -1.130255    18A     -1.093079
      19A     -1.054941    20A     -0.997480    21A     -0.992190
      22A     -0.914822    23A     -0.865845    24A     -0.865055
      25A     -0.800095    26A     -0.794935    27A     -0.719160
      28A     -0.695507    29A     -0.669792    30A     -0.658584
      31A     -0.646473    32A     -0.621613    33A     -0.606504
      34A     -0.601159    35A     -0.589046    36A     -0.575773
      37A     -0.566165    38A     -0.542556    39A     -0.532395
      40A     -0.526108    41A     -0.499706    42A     -0.494897
      43A     -0.489835    44A     -0.432519    45A     -0.417021
      46A     -0.390214    47A     -0.362146    48A     -0.318424
      49A     -0.278733

  @DF-RHF Final Energy:  -570.47673067780136

   => Energetics <=

    Nuclear Repulsion Energy =            817.9352268158384049
    One-Electron Energy =               -2396.1281451810818908
    Two-Electron Energy =                1007.7161876874421296
    Total Energy =                       -570.4767306778013563
  Basis Set: (AUG-CC-PVTZ AUX)
    Blend: AUG-CC-PVTZ-RI
    Molecular point group: c1

    Geometry (in Angstrom), charge = 0, multiplicity = 1:

       Center              X                  Y                   Z               Mass
    ------------   -----------------  -----------------  -----------------  -----------------
         N            1.012684063749     1.790065629260     0.326785814388    14.003074004430
         N           -1.383171536251     0.883128129260    -0.635750685612    14.003074004430
         C            0.434062063749    -0.544347370740    -0.070496185612    12.000000000000
         C            1.408969063749     0.478599629260     0.098682814388    12.000000000000
         C           -1.018539936251    -0.270270370740    -0.025693185612    12.000000000000
         C            0.855406063749    -1.865624370740    -0.275955185612    12.000000000000
         C            2.766051063749     0.106843629260     0.114956814388    12.000000000000
         C            2.204288063749    -2.215380370740    -0.273480185612    12.000000000000
         C            3.157260063749    -1.218068370740    -0.071845185612    12.000000000000
         C           -1.894418936251    -1.172338370740     0.602082814388    12.000000000000
         C           -3.264151936251    -0.925840370740     0.582455814388    12.000000000000
         C            1.988259063749     2.860937629260     0.255571814388    12.000000000000
         C           -2.796474936251     1.095505629260    -0.609608185612    12.000000000000
         C           -3.730769936251     0.229960629260    -0.043356185612    12.000000000000
         H            0.102872063749    -2.630045370740    -0.460745185612     1.007825032230
         H            3.529583063749     0.865167629260     0.256601814388     1.007825032230
         H            0.126190063749     1.995125629260    -0.127076185612     1.007825032230
         H            2.504907063749    -3.245858370740    -0.443262185612     1.007825032230
         H            4.216726063749    -1.465521370740    -0.063530185612     1.007825032230
         H           -1.495163936251    -2.044261370740     1.111708814388     1.007825032230
         H           -3.954473936251    -1.615412370740     1.062590814388     1.007825032230
         H            2.563575063749     2.869095629260    -0.682559185612     1.007825032230
         H            2.693541063749     2.794109629260     1.089324814388     1.007825032230
         H            1.455171063749     3.809497629260     0.346380814388     1.007825032230
         H           -3.113854936251     2.019277629260    -1.090862185612     1.007825032230
         H           -4.790423936251     0.466292629260    -0.079098185612     1.007825032230

  Basis Set: AUG-CC-PVTZ
    Blend: AUG-CC-PVTZ
  Basis Set: (AUG-CC-PVTZ AUX)
    Blend: AUG-CC-PVTZ-JKFIT
	 Reference Energy          =    -570.4767306778013563 [Eh]
	 Singles Energy            =      -0.0000000000000000 [Eh]
	 Same-Spin Energy          =      -0.6405885781057956 [Eh]
	 Opposite-Spin Energy      =      -1.9801157077741365 [Eh]
	 Correlation Energy        =      -2.6207042858799321 [Eh]
	 Total Energy              =    -573.0974349636812804 [Eh]

	 ================> DF-SCS-MP2 Energies <==================
	-----------------------------------------------------------
	 SCS Same-Spin Scale       =       0.3333333333333333 [-]
	 SCS Opposite-Spin Scale   =       1.2000000000000000 [-]
	 SCS Same-Spin Energy      =      -0.2135295260352652 [Eh]
	 SCS Opposite-Spin Energy  =      -2.3761388493289637 [Eh]
	 SCS Correlation Energy    =      -2.5896683753642291 [Eh]
	 SCS Total Energy          =    -573.0663990531655827 [Eh]
	-----------------------------------------------------------

  Dipole Moment: [D]
     X:    -1.9944      Y:     0.1064      Z:     0.4060     Total:     2.0380

*** Psi4 exiting successfully. Buy a developer a beer!
