                               Psi4 1.3.2 release

  ==> Input File <==

--------------------------------------------------------------------------
#psi4
#
memory 32 gb

molecule  {
0 1
  N        0.9996340     1.7721850     0.3204360
  N       -1.4856460     0.8456190    -0.6184330
  C        0.4210120    -0.5622280    -0.0768460
  C        1.4186136     0.4684300     0.0887147
  C       -1.0315900    -0.2881510    -0.0320430
  C        0.8423560    -1.8835050    -0.2823050
  C        2.7530010     0.0889630     0.1086070
  C        2.1912380    -2.2332610    -0.2798300
  C        3.1442100    -1.2359490    -0.0781950
  C       -1.9074690    -1.1902190     0.5957330
  C       -3.2772020    -0.9437210     0.5761060
  C        1.9752090     2.8430570     0.2492220
  C       -2.8095250     1.0776250    -0.6159580
  C       -3.7438200     0.2120800    -0.0497060
  H        0.0898220    -2.6479260    -0.4670950
  H        3.5165330     0.8472870     0.2502520
  H        0.1131400     1.9772450    -0.1334260
  H        2.4918570    -3.2637390    -0.4496120
  H        4.2036760    -1.4834020    -0.0698800
  H       -1.5082140    -2.0621420     1.1053590
  H       -3.9675240    -1.6332930     1.0562410
  H        2.5505250     2.8512150    -0.6889090
  H        2.6804910     2.7762290     1.0829750
  H        1.4421210     3.7916170     0.3400310
  H       -3.1269050     2.0013970    -1.0972120
  H       -4.8034740     0.4484120    -0.0854480
units angstrom
no_reorient  #important for SAPT in psi4, default
symmetry c1  #important for SAPT in psi4, default
}

set PROPERTIES_ORIGIN ["COM"]
properties('MP2/aug-cc-pvtz', properties = ['dipole'])
--------------------------------------------------------------------------

    Molecular point group: c1
  Charge       = 0
  Multiplicity = 1
  Basis Set: AUG-CC-PVTZ
    Blend: AUG-CC-PVTZ
  Basis Set: (AUG-CC-PVTZ AUX)
    Blend: AUG-CC-PVTZ-JKFIT

    Orbital Energies [Eh]
    ---------------------

    Doubly Occupied:

       1A    -15.568723     2A    -15.550520     3A    -11.290234
       4A    -11.281432     5A    -11.278596     6A    -11.263299
       7A    -11.247983     8A    -11.242537     9A    -11.241691
      10A    -11.237368    11A    -11.236341    12A    -11.235177
      13A    -11.218472    14A    -11.217676    15A     -1.263103
      16A     -1.229108    17A     -1.132164    18A     -1.088961
      19A     -1.060707    20A     -1.001062    21A     -0.990988
      22A     -0.915349    23A     -0.871875    24A     -0.860120
      25A     -0.805365    26A     -0.794712    27A     -0.720762
      28A     -0.698761    29A     -0.670463    30A     -0.658721
      31A     -0.649136    32A     -0.622727    33A     -0.608686
      34A     -0.603050    35A     -0.589475    36A     -0.576113
      37A     -0.567194    38A     -0.548559    39A     -0.534155
      40A     -0.528536    41A     -0.503720    42A     -0.497786
      43A     -0.487653    44A     -0.423650    45A     -0.416257
      46A     -0.388314    47A     -0.367498    48A     -0.318174
      49A     -0.279183

  @DF-RHF Final Energy:  -570.48894664880868

   => Energetics <=

    Nuclear Repulsion Energy =            818.4259521744168069
    One-Electron Energy =               -2397.0655247093468461
    Two-Electron Energy =                1008.1506258861213610
    Total Energy =                       -570.4889466488086782
  Basis Set: (AUG-CC-PVTZ AUX)
    Blend: AUG-CC-PVTZ-RI
    Molecular point group: c1

    Geometry (in Angstrom), charge = 0, multiplicity = 1:

       Center              X                  Y                   Z               Mass
    ------------   -----------------  -----------------  -----------------  -----------------
         N            1.018006611459     1.791056000201     0.325221457635    14.003074004430
         N           -1.467273388541     0.864490000201    -0.613647542365    14.003074004430
         C            0.439384611459    -0.543356999799    -0.072060542365    12.000000000000
         C            1.436986211459     0.487301000201     0.093500157635    12.000000000000
         C           -1.013217388541    -0.269279999799    -0.027257542365    12.000000000000
         C            0.860728611459    -1.864633999799    -0.277519542365    12.000000000000
         C            2.771373611459     0.107834000201     0.113392457635    12.000000000000
         C            2.209610611459    -2.214389999799    -0.275044542365    12.000000000000
         C            3.162582611459    -1.217077999799    -0.073409542365    12.000000000000
         C           -1.889096388541    -1.171347999799     0.600518457635    12.000000000000
         C           -3.258829388541    -0.924849999799     0.580891457635    12.000000000000
         C            1.993581611459     2.861928000201     0.254007457635    12.000000000000
         C           -2.791152388541     1.096496000201    -0.611172542365    12.000000000000
         C           -3.725447388541     0.230951000201    -0.044920542365    12.000000000000
         H            0.108194611459    -2.629054999799    -0.462309542365     1.007825032230
         H            3.534905611459     0.866158000201     0.255037457635     1.007825032230
         H            0.131512611459     1.996116000201    -0.128640542365     1.007825032230
         H            2.510229611459    -3.244867999799    -0.444826542365     1.007825032230
         H            4.222048611459    -1.464530999799    -0.065094542365     1.007825032230
         H           -1.489841388541    -2.043270999799     1.110144457635     1.007825032230
         H           -3.949151388541    -1.614421999799     1.061026457635     1.007825032230
         H            2.568897611459     2.870086000201    -0.684123542365     1.007825032230
         H            2.698863611459     2.795100000201     1.087760457635     1.007825032230
         H            1.460493611459     3.810488000201     0.344816457635     1.007825032230
         H           -3.108532388541     2.020268000201    -1.092426542365     1.007825032230
         H           -4.785101388541     0.467283000201    -0.080662542365     1.007825032230

  Basis Set: AUG-CC-PVTZ
    Blend: AUG-CC-PVTZ
  Basis Set: (AUG-CC-PVTZ AUX)
    Blend: AUG-CC-PVTZ-JKFIT
	 Reference Energy          =    -570.4889466488086782 [Eh]
	 Singles Energy            =      -0.0000000000000000 [Eh]
	 Same-Spin Energy          =      -0.6394796219493818 [Eh]
	 Opposite-Spin Energy      =      -1.9764839388354982 [Eh]
	 Correlation Energy        =      -2.6159635607848801 [Eh]
	 Total Energy              =    -573.1049102095935268 [Eh]

	 ================> DF-SCS-MP2 Energies <==================
	-----------------------------------------------------------
	 SCS Same-Spin Scale       =       0.3333333333333333 [-]
	 SCS Opposite-Spin Scale   =       1.2000000000000000 [-]
	 SCS Same-Spin Energy      =      -0.2131598739831272 [Eh]
	 SCS Opposite-Spin Energy  =      -2.3717807266025979 [Eh]
	 SCS Correlation Energy    =      -2.5849406005857252 [Eh]
	 SCS Total Energy          =    -573.0738872493943745 [Eh]
	-----------------------------------------------------------

  Dipole Moment: [D]
     X:    -1.7734      Y:     0.1454      Z:     0.3591     Total:     1.8152

*** Psi4 exiting successfully. Buy a developer a beer!
