                               Psi4 1.3.2 release

  ==> Input File <==

--------------------------------------------------------------------------
#psi4
#
memory 32 gb

molecule  {
0 1
  N        0.8626647     1.7240171     0.3130898
  N       -1.4856460     0.8456190    -0.6184330
  C        0.4210120    -0.5622280    -0.0768460
  C        1.3959190     0.4607190     0.0923330
  C       -1.0315900    -0.2881510    -0.0320430
  C        0.8423560    -1.8835050    -0.2823050
  C        2.7530010     0.0889630     0.1086070
  C        2.1912380    -2.2332610    -0.2798300
  C        3.1442100    -1.2359490    -0.0781950
  C       -1.9074690    -1.1902190     0.5957330
  C       -3.2772020    -0.9437210     0.5761060
  C        1.9752090     2.8430570     0.2492220
  C       -2.8095250     1.0776250    -0.6159580
  C       -3.7438200     0.2120800    -0.0497060
  H        0.0898220    -2.6479260    -0.4670950
  H        3.5165330     0.8472870     0.2502520
  H        0.1131400     1.9772450    -0.1334260
  H        2.4918570    -3.2637390    -0.4496120
  H        4.2036760    -1.4834020    -0.0698800
  H       -1.5082140    -2.0621420     1.1053590
  H       -3.9675240    -1.6332930     1.0562410
  H        2.5505250     2.8512150    -0.6889090
  H        2.6804910     2.7762290     1.0829750
  H        1.4421210     3.7916170     0.3400310
  H       -3.1269050     2.0013970    -1.0972120
  H       -4.8034740     0.4484120    -0.0854480
units angstrom
no_reorient  #important for SAPT in psi4, default
symmetry c1  #important for SAPT in psi4, default
}

set PROPERTIES_ORIGIN ["COM"]
properties('MP2/aug-cc-pvtz', properties = ['dipole'])
--------------------------------------------------------------------------

    Molecular point group: c1
  Charge       = 0
  Multiplicity = 1
  Basis Set: AUG-CC-PVTZ
    Blend: AUG-CC-PVTZ
  Basis Set: (AUG-CC-PVTZ AUX)
    Blend: AUG-CC-PVTZ-JKFIT

    Orbital Energies [Eh]
    ---------------------

    Doubly Occupied:

       1A    -15.565822     2A    -15.547796     3A    -11.287773
       4A    -11.279270     5A    -11.279011     6A    -11.261473
       7A    -11.257104     8A    -11.241129     9A    -11.240381
      10A    -11.236810    11A    -11.235734    12A    -11.230334
      13A    -11.223412    14A    -11.218884    15A     -1.262271
      16A     -1.222820    17A     -1.129950    18A     -1.087028
      19A     -1.059577    20A     -0.997477    21A     -0.987947
      22A     -0.922256    23A     -0.870629    24A     -0.859217
      25A     -0.807350    26A     -0.802836    27A     -0.723024
      28A     -0.704775    29A     -0.668291    30A     -0.660782
      31A     -0.643189    32A     -0.622961    33A     -0.603936
      34A     -0.596063    35A     -0.587990    36A     -0.574217
      37A     -0.558515    38A     -0.544068    39A     -0.532789
      40A     -0.530644    41A     -0.504663    42A     -0.499676
      43A     -0.482064    44A     -0.428801    45A     -0.417536
      46A     -0.385863    47A     -0.365913    48A     -0.317555
      49A     -0.282230

  @DF-RHF Final Energy:  -570.46434028658871

   => Energetics <=

    Nuclear Repulsion Energy =            819.0658190482470218
    One-Electron Energy =               -2398.3606453236698144
    Two-Electron Energy =                1008.8304859888340843
    Total Energy =                       -570.4643402865887083
  Basis Set: (AUG-CC-PVTZ AUX)
    Blend: AUG-CC-PVTZ-RI
    Molecular point group: c1

    Geometry (in Angstrom), charge = 0, multiplicity = 1:

       Center              X                  Y                   Z               Mass
    ------------   -----------------  -----------------  -----------------  -----------------
         N            0.892934790375     1.747054479705     0.318198178692    14.003074004430
         N           -1.455375909625     0.868656379705    -0.613324621308    14.003074004430
         C            0.451282090375    -0.539190620295    -0.071737621308    12.000000000000
         C            1.426189090375     0.483756379705     0.097441378692    12.000000000000
         C           -1.001319909625    -0.265113620295    -0.026934621308    12.000000000000
         C            0.872626090375    -1.860467620295    -0.277196621308    12.000000000000
         C            2.783271090375     0.112000379705     0.113715378692    12.000000000000
         C            2.221508090375    -2.210223620295    -0.274721621308    12.000000000000
         C            3.174480090375    -1.212911620295    -0.073086621308    12.000000000000
         C           -1.877198909625    -1.167181620295     0.600841378692    12.000000000000
         C           -3.246931909625    -0.920683620295     0.581214378692    12.000000000000
         C            2.005479090375     2.866094379705     0.254330378692    12.000000000000
         C           -2.779254909625     1.100662379705    -0.610849621308    12.000000000000
         C           -3.713549909625     0.235117379705    -0.044597621308    12.000000000000
         H            0.120092090375    -2.624888620295    -0.461986621308     1.007825032230
         H            3.546803090375     0.870324379705     0.255360378692     1.007825032230
         H            0.143410090375     2.000282379705    -0.128317621308     1.007825032230
         H            2.522127090375    -3.240701620295    -0.444503621308     1.007825032230
         H            4.233946090375    -1.460364620295    -0.064771621308     1.007825032230
         H           -1.477943909625    -2.039104620295     1.110467378692     1.007825032230
         H           -3.937253909625    -1.610255620295     1.061349378692     1.007825032230
         H            2.580795090375     2.874252379705    -0.683800621308     1.007825032230
         H            2.710761090375     2.799266379705     1.088083378692     1.007825032230
         H            1.472391090375     3.814654379705     0.345139378692     1.007825032230
         H           -3.096634909625     2.024434379705    -1.092103621308     1.007825032230
         H           -4.773203909625     0.471449379705    -0.080339621308     1.007825032230

  Basis Set: AUG-CC-PVTZ
    Blend: AUG-CC-PVTZ
  Basis Set: (AUG-CC-PVTZ AUX)
    Blend: AUG-CC-PVTZ-JKFIT
	 Reference Energy          =    -570.4643402865887083 [Eh]
	 Singles Energy            =      -0.0000000000000000 [Eh]
	 Same-Spin Energy          =      -0.6390734799332097 [Eh]
	 Opposite-Spin Energy      =      -1.9774813473432782 [Eh]
	 Correlation Energy        =      -2.6165548272764880 [Eh]
	 Total Energy              =    -573.0808951138651537 [Eh]

	 ================> DF-SCS-MP2 Energies <==================
	-----------------------------------------------------------
	 SCS Same-Spin Scale       =       0.3333333333333333 [-]
	 SCS Opposite-Spin Scale   =       1.2000000000000000 [-]
	 SCS Same-Spin Energy      =      -0.2130244933110699 [Eh]
	 SCS Opposite-Spin Energy  =      -2.3729776168119336 [Eh]
	 SCS Correlation Energy    =      -2.5860021101230037 [Eh]
	 SCS Total Energy          =    -573.0503423967116987 [Eh]
	-----------------------------------------------------------

  Dipole Moment: [D]
     X:    -1.4260      Y:     0.2352      Z:     0.3109     Total:     1.4783

*** Psi4 exiting successfully. Buy a developer a beer!
