                               Psi4 1.3.2 release

  ==> Input File <==

--------------------------------------------------------------------------
#psi4
#
memory 32 gb

molecule  {
0 1
  N        1.1409451     1.8059842     0.3252831
  N       -1.4856460     0.8456190    -0.6184330
  C        0.4210120    -0.5622280    -0.0768460
  C        1.3959190     0.4607190     0.0923330
  C       -1.0315900    -0.2881510    -0.0320430
  C        0.8423560    -1.8835050    -0.2823050
  C        2.7530010     0.0889630     0.1086070
  C        2.1912380    -2.2332610    -0.2798300
  C        3.1442100    -1.2359490    -0.0781950
  C       -1.9074690    -1.1902190     0.5957330
  C       -3.2772020    -0.9437210     0.5761060
  C        1.9752090     2.8430570     0.2492220
  C       -2.8095250     1.0776250    -0.6159580
  C       -3.7438200     0.2120800    -0.0497060
  H        0.0898220    -2.6479260    -0.4670950
  H        3.5165330     0.8472870     0.2502520
  H        0.1131400     1.9772450    -0.1334260
  H        2.4918570    -3.2637390    -0.4496120
  H        4.2036760    -1.4834020    -0.0698800
  H       -1.5082140    -2.0621420     1.1053590
  H       -3.9675240    -1.6332930     1.0562410
  H        2.5505250     2.8512150    -0.6889090
  H        2.6804910     2.7762290     1.0829750
  H        1.4421210     3.7916170     0.3400310
  H       -3.1269050     2.0013970    -1.0972120
  H       -4.8034740     0.4484120    -0.0854480
units angstrom
no_reorient  #important for SAPT in psi4, default
symmetry c1  #important for SAPT in psi4, default
}

set PROPERTIES_ORIGIN ["COM"]
properties('MP2/aug-cc-pvtz', properties = ['dipole'])
--------------------------------------------------------------------------

    Molecular point group: c1
  Charge       = 0
  Multiplicity = 1
  Basis Set: AUG-CC-PVTZ
    Blend: AUG-CC-PVTZ
  Basis Set: (AUG-CC-PVTZ AUX)
    Blend: AUG-CC-PVTZ-JKFIT

    Orbital Energies [Eh]
    ---------------------

    Doubly Occupied:

       1A    -15.571880     2A    -15.552253     3A    -11.292331
       4A    -11.283690     5A    -11.282233     6A    -11.265232
       7A    -11.244082     8A    -11.243050     9A    -11.239640
      10A    -11.239527    11A    -11.236782    12A    -11.235313
      13A    -11.218583    14A    -11.217494    15A     -1.265965
      16A     -1.244202    17A     -1.137776    18A     -1.090983
      19A     -1.061936    20A     -1.008060    21A     -0.995269
      22A     -0.909588    23A     -0.871597    24A     -0.861005
      25A     -0.808595    26A     -0.788768    27A     -0.721513
      28A     -0.693091    29A     -0.675072    30A     -0.660996
      31A     -0.654096    32A     -0.627605    33A     -0.619366
      34A     -0.603934    35A     -0.592999    36A     -0.584690
      37A     -0.576531    38A     -0.550658    39A     -0.534213
      40A     -0.516135    41A     -0.503719    42A     -0.497400
      43A     -0.481713    44A     -0.418189    45A     -0.408940
      46A     -0.390138    47A     -0.368937    48A     -0.317885
      49A     -0.276333

  @DF-RHF Final Energy:  -570.46033064125845

   => Energetics <=

    Nuclear Repulsion Energy =            818.5320005445680636
    One-Electron Energy =               -2397.1046804607867671
    Two-Electron Energy =                1008.1123492749602519
    Total Energy =                       -570.4603306412584516
  Basis Set: (AUG-CC-PVTZ AUX)
    Blend: AUG-CC-PVTZ-RI
    Molecular point group: c1

    Geometry (in Angstrom), charge = 0, multiplicity = 1:

       Center              X                  Y                   Z               Mass
    ------------   -----------------  -----------------  -----------------  -----------------
         N            1.150048541756     1.822786973157     0.329464028191    14.003074004430
         N           -1.476542558244     0.862421773157    -0.614252071809    14.003074004430
         C            0.430115441756    -0.545425226843    -0.072665071809    12.000000000000
         C            1.405022441756     0.477521773157     0.096513928191    12.000000000000
         C           -1.022486558244    -0.271348226843    -0.027862071809    12.000000000000
         C            0.851459441756    -1.866702226843    -0.278124071809    12.000000000000
         C            2.762104441756     0.105765773157     0.112787928191    12.000000000000
         C            2.200341441756    -2.216458226843    -0.275649071809    12.000000000000
         C            3.153313441756    -1.219146226843    -0.074014071809    12.000000000000
         C           -1.898365558244    -1.173416226843     0.599913928191    12.000000000000
         C           -3.268098558244    -0.926918226843     0.580286928191    12.000000000000
         C            1.984312441756     2.859859773157     0.253402928191    12.000000000000
         C           -2.800421558244     1.094427773157    -0.611777071809    12.000000000000
         C           -3.734716558244     0.228882773157    -0.045525071809    12.000000000000
         H            0.098925441756    -2.631123226843    -0.462914071809     1.007825032230
         H            3.525636441756     0.864089773157     0.254432928191     1.007825032230
         H            0.122243441756     1.994047773157    -0.129245071809     1.007825032230
         H            2.500960441756    -3.246936226843    -0.445431071809     1.007825032230
         H            4.212779441756    -1.466599226843    -0.065699071809     1.007825032230
         H           -1.499110558244    -2.045339226843     1.109539928191     1.007825032230
         H           -3.958420558244    -1.616490226843     1.060421928191     1.007825032230
         H            2.559628441756     2.868017773157    -0.684728071809     1.007825032230
         H            2.689594441756     2.793031773157     1.087155928191     1.007825032230
         H            1.451224441756     3.808419773157     0.344211928191     1.007825032230
         H           -3.117801558244     2.018199773157    -1.093031071809     1.007825032230
         H           -4.794370558244     0.465214773157    -0.081267071809     1.007825032230

  Basis Set: AUG-CC-PVTZ
    Blend: AUG-CC-PVTZ
  Basis Set: (AUG-CC-PVTZ AUX)
    Blend: AUG-CC-PVTZ-JKFIT
	 Reference Energy          =    -570.4603306412584516 [Eh]
	 Singles Energy            =      -0.0000000000000000 [Eh]
	 Same-Spin Energy          =      -0.6414970425433971 [Eh]
	 Opposite-Spin Energy      =      -1.9789747515089324 [Eh]
	 Correlation Energy        =      -2.6204717940523294 [Eh]
	 Total Energy              =    -573.0808024353108294 [Eh]

	 ================> DF-SCS-MP2 Energies <==================
	-----------------------------------------------------------
	 SCS Same-Spin Scale       =       0.3333333333333333 [-]
	 SCS Opposite-Spin Scale   =       1.2000000000000000 [-]
	 SCS Same-Spin Energy      =      -0.2138323475144657 [Eh]
	 SCS Opposite-Spin Energy  =      -2.3747697018107190 [Eh]
	 SCS Correlation Energy    =      -2.5886020493251847 [Eh]
	 SCS Total Energy          =    -573.0489326905836833 [Eh]
	-----------------------------------------------------------

  Dipole Moment: [D]
     X:    -2.1437      Y:     0.0164      Z:     0.4169     Total:     2.1839

*** Psi4 exiting successfully. Buy a developer a beer!
