                               Psi4 1.3.2 release

  ==> Input File <==

--------------------------------------------------------------------------
#psi4
#
memory 32 gb

molecule  {
0 1
  N        0.9996340     1.7721850     0.3204360
  N       -1.4856460     0.8456190    -0.6184330
  C        0.4210120    -0.5622280    -0.0768460
  C        1.2740314     0.4454696     0.0145797
  C       -1.0315900    -0.2881510    -0.0320430
  C        0.8423560    -1.8835050    -0.2823050
  C        2.7530010     0.0889630     0.1086070
  C        2.1912380    -2.2332610    -0.2798300
  C        3.1442100    -1.2359490    -0.0781950
  C       -1.9074690    -1.1902190     0.5957330
  C       -3.2772020    -0.9437210     0.5761060
  C        1.9752090     2.8430570     0.2492220
  C       -2.8095250     1.0776250    -0.6159580
  C       -3.7438200     0.2120800    -0.0497060
  H        0.0898220    -2.6479260    -0.4670950
  H        3.5165330     0.8472870     0.2502520
  H        0.1131400     1.9772450    -0.1334260
  H        2.4918570    -3.2637390    -0.4496120
  H        4.2036760    -1.4834020    -0.0698800
  H       -1.5082140    -2.0621420     1.1053590
  H       -3.9675240    -1.6332930     1.0562410
  H        2.5505250     2.8512150    -0.6889090
  H        2.6804910     2.7762290     1.0829750
  H        1.4421210     3.7916170     0.3400310
  H       -3.1269050     2.0013970    -1.0972120
  H       -4.8034740     0.4484120    -0.0854480
units angstrom
no_reorient  #important for SAPT in psi4, default
symmetry c1  #important for SAPT in psi4, default
}

set PROPERTIES_ORIGIN ["COM"]
properties('MP2/aug-cc-pvtz', properties = ['dipole'])
--------------------------------------------------------------------------

    Molecular point group: c1
  Charge       = 0
  Multiplicity = 1
  Basis Set: AUG-CC-PVTZ
    Blend: AUG-CC-PVTZ
  Basis Set: (AUG-CC-PVTZ AUX)
    Blend: AUG-CC-PVTZ-JKFIT

    Orbital Energies [Eh]
    ---------------------

    Doubly Occupied:

       1A    -15.568090     2A    -15.550934     3A    -11.287985
       4A    -11.281167     5A    -11.278712     6A    -11.262847
       7A    -11.252182     8A    -11.241714     9A    -11.240411
      10A    -11.237687    11A    -11.233461    12A    -11.231438
      13A    -11.221694    14A    -11.219814    15A     -1.264369
      16A     -1.228475    17A     -1.134887    18A     -1.088488
      19A     -1.061430    20A     -1.002447    21A     -0.987983
      22A     -0.917853    23A     -0.866686    24A     -0.861068
      25A     -0.814385    26A     -0.791212    27A     -0.719615
      28A     -0.693017    29A     -0.672319    30A     -0.656399
      31A     -0.652048    32A     -0.622598    33A     -0.609987
      34A     -0.598327    35A     -0.589169    36A     -0.575895
      37A     -0.570841    38A     -0.547308    39A     -0.532884
      40A     -0.530002    41A     -0.507589    42A     -0.501188
      43A     -0.477373    44A     -0.422725    45A     -0.415733
      46A     -0.387204    47A     -0.367349    48A     -0.315675
      49A     -0.281188

  @DF-RHF Final Energy:  -570.46776162951153

   => Energetics <=

    Nuclear Repulsion Energy =            819.4471496618672290
    One-Electron Energy =               -2399.0821210698313735
    Two-Electron Energy =                1009.1672097784527296
    Total Energy =                       -570.4677616295115286
  Basis Set: (AUG-CC-PVTZ AUX)
    Blend: AUG-CC-PVTZ-RI
    Molecular point group: c1

    Geometry (in Angstrom), charge = 0, multiplicity = 1:

       Center              X                  Y                   Z               Mass
    ------------   -----------------  -----------------  -----------------  -----------------
         N            1.027430761073     1.792552603827     0.330053721438    14.003074004430
         N           -1.457849238927     0.865986603827    -0.608815278562    14.003074004430
         C            0.448808761073    -0.541860396173    -0.067228278562    12.000000000000
         C            1.301828161073     0.465837203827     0.024197421438    12.000000000000
         C           -1.003793238927    -0.267783396173    -0.022425278562    12.000000000000
         C            0.870152761073    -1.863137396173    -0.272687278562    12.000000000000
         C            2.780797761073     0.109330603827     0.118224721438    12.000000000000
         C            2.219034761073    -2.212893396173    -0.270212278562    12.000000000000
         C            3.172006761073    -1.215581396173    -0.068577278562    12.000000000000
         C           -1.879672238927    -1.169851396173     0.605350721438    12.000000000000
         C           -3.249405238927    -0.923353396173     0.585723721438    12.000000000000
         C            2.003005761073     2.863424603827     0.258839721438    12.000000000000
         C           -2.781728238927     1.097992603827    -0.606340278562    12.000000000000
         C           -3.716023238927     0.232447603827    -0.040088278562    12.000000000000
         H            0.117618761073    -2.627558396173    -0.457477278562     1.007825032230
         H            3.544329761073     0.867654603827     0.259869721438     1.007825032230
         H            0.140936761073     1.997612603827    -0.123808278562     1.007825032230
         H            2.519653761073    -3.243371396173    -0.439994278562     1.007825032230
         H            4.231472761073    -1.463034396173    -0.060262278562     1.007825032230
         H           -1.480417238927    -2.041774396173     1.114976721438     1.007825032230
         H           -3.939727238927    -1.612925396173     1.065858721438     1.007825032230
         H            2.578321761073     2.871582603827    -0.679291278562     1.007825032230
         H            2.708287761073     2.796596603827     1.092592721438     1.007825032230
         H            1.469917761073     3.811984603827     0.349648721438     1.007825032230
         H           -3.099108238927     2.021764603827    -1.087594278562     1.007825032230
         H           -4.775677238927     0.468779603827    -0.075830278562     1.007825032230

  Basis Set: AUG-CC-PVTZ
    Blend: AUG-CC-PVTZ
  Basis Set: (AUG-CC-PVTZ AUX)
    Blend: AUG-CC-PVTZ-JKFIT
	 Reference Energy          =    -570.4677616295115286 [Eh]
	 Singles Energy            =      -0.0000000000000000 [Eh]
	 Same-Spin Energy          =      -0.6393984351283161 [Eh]
	 Opposite-Spin Energy      =      -1.9778487447212663 [Eh]
	 Correlation Energy        =      -2.6172471798495822 [Eh]
	 Total Energy              =    -573.0850088093610566 [Eh]

	 ================> DF-SCS-MP2 Energies <==================
	-----------------------------------------------------------
	 SCS Same-Spin Scale       =       0.3333333333333333 [-]
	 SCS Opposite-Spin Scale   =       1.2000000000000000 [-]
	 SCS Same-Spin Energy      =      -0.2131328117094387 [Eh]
	 SCS Opposite-Spin Energy  =      -2.3734184936655196 [Eh]
	 SCS Correlation Energy    =      -2.5865513053749583 [Eh]
	 SCS Total Energy          =    -573.0543129348865250 [Eh]
	-----------------------------------------------------------

  Dipole Moment: [D]
     X:    -1.6659      Y:     0.2241      Z:     0.3474     Total:     1.7165

*** Psi4 exiting successfully. Buy a developer a beer!
