                               Psi4 1.3.2 release

  ==> Input File <==

--------------------------------------------------------------------------
#psi4
#
memory 32 gb

molecule  {
0 1
  N        0.9996340     1.7721850     0.3204360
  N       -1.4856460     0.8456190    -0.6184330
  C        0.4210120    -0.5622280    -0.0768460
  C        1.2822048     0.5559052     0.1064867
  C       -1.0315900    -0.2881510    -0.0320430
  C        0.8423560    -1.8835050    -0.2823050
  C        2.7530010     0.0889630     0.1086070
  C        2.1912380    -2.2332610    -0.2798300
  C        3.1442100    -1.2359490    -0.0781950
  C       -1.9074690    -1.1902190     0.5957330
  C       -3.2772020    -0.9437210     0.5761060
  C        1.9752090     2.8430570     0.2492220
  C       -2.8095250     1.0776250    -0.6159580
  C       -3.7438200     0.2120800    -0.0497060
  H        0.0898220    -2.6479260    -0.4670950
  H        3.5165330     0.8472870     0.2502520
  H        0.1131400     1.9772450    -0.1334260
  H        2.4918570    -3.2637390    -0.4496120
  H        4.2036760    -1.4834020    -0.0698800
  H       -1.5082140    -2.0621420     1.1053590
  H       -3.9675240    -1.6332930     1.0562410
  H        2.5505250     2.8512150    -0.6889090
  H        2.6804910     2.7762290     1.0829750
  H        1.4421210     3.7916170     0.3400310
  H       -3.1269050     2.0013970    -1.0972120
  H       -4.8034740     0.4484120    -0.0854480
units angstrom
no_reorient  #important for SAPT in psi4, default
symmetry c1  #important for SAPT in psi4, default
}

set PROPERTIES_ORIGIN ["COM"]
properties('MP2/aug-cc-pvtz', properties = ['dipole'])
--------------------------------------------------------------------------

    Molecular point group: c1
  Charge       = 0
  Multiplicity = 1
  Basis Set: AUG-CC-PVTZ
    Blend: AUG-CC-PVTZ
  Basis Set: (AUG-CC-PVTZ AUX)
    Blend: AUG-CC-PVTZ-JKFIT

    Orbital Energies [Eh]
    ---------------------

    Doubly Occupied:

       1A    -15.568623     2A    -15.566318     3A    -11.290363
       4A    -11.284525     5A    -11.280180     6A    -11.264234
       7A    -11.260949     8A    -11.239125     9A    -11.236854
      10A    -11.234997    11A    -11.231438    12A    -11.224863
      13A    -11.224699    14A    -11.209178    15A     -1.288221
      16A     -1.254232    17A     -1.123695    18A     -1.086431
      19A     -1.055697    20A     -0.996755    21A     -0.985155
      22A     -0.932965    23A     -0.864994    24A     -0.857621
      25A     -0.801667    26A     -0.797528    27A     -0.722790
      28A     -0.704588    29A     -0.672925    30A     -0.659094
      31A     -0.655462    32A     -0.629839    33A     -0.624968
      34A     -0.597914    35A     -0.586142    36A     -0.571896
      37A     -0.569463    38A     -0.546813    39A     -0.541854
      40A     -0.529743    41A     -0.503592    42A     -0.502196
      43A     -0.469438    44A     -0.437881    45A     -0.413620
      46A     -0.386760    47A     -0.364574    48A     -0.312506
      49A     -0.263576

  @DF-RHF Final Energy:  -570.46020173236070

   => Energetics <=

    Nuclear Repulsion Energy =            819.1398595421331947
    One-Electron Energy =               -2398.3422409177310328
    Two-Electron Energy =                1008.7421796432370229
    Total Energy =                       -570.4602017323607015
  Basis Set: (AUG-CC-PVTZ AUX)
    Blend: AUG-CC-PVTZ-RI
    Molecular point group: c1

    Geometry (in Angstrom), charge = 0, multiplicity = 1:

       Center              X                  Y                   Z               Mass
    ------------   -----------------  -----------------  -----------------  -----------------
         N            1.026898002929     1.785354196159     0.324063044034    14.003074004430
         N           -1.458381997071     0.858788196159    -0.614805955966    14.003074004430
         C            0.448276002929    -0.549058803841    -0.073218955966    12.000000000000
         C            1.309468802929     0.569074396159     0.110113744034    12.000000000000
         C           -1.004325997071    -0.274981803841    -0.028415955966    12.000000000000
         C            0.869620002929    -1.870335803841    -0.278677955966    12.000000000000
         C            2.780265002929     0.102132196159     0.112234044034    12.000000000000
         C            2.218502002929    -2.220091803841    -0.276202955966    12.000000000000
         C            3.171474002929    -1.222779803841    -0.074567955966    12.000000000000
         C           -1.880204997071    -1.177049803841     0.599360044034    12.000000000000
         C           -3.249937997071    -0.930551803841     0.579733044034    12.000000000000
         C            2.002473002929     2.856226196159     0.252849044034    12.000000000000
         C           -2.782260997071     1.090794196159    -0.612330955966    12.000000000000
         C           -3.716555997071     0.225249196159    -0.046078955966    12.000000000000
         H            0.117086002929    -2.634756803841    -0.463467955966     1.007825032230
         H            3.543797002929     0.860456196159     0.253879044034     1.007825032230
         H            0.140404002929     1.990414196159    -0.129798955966     1.007825032230
         H            2.519121002929    -3.250569803841    -0.445984955966     1.007825032230
         H            4.230940002929    -1.470232803841    -0.066252955966     1.007825032230
         H           -1.480949997071    -2.048972803841     1.108986044034     1.007825032230
         H           -3.940259997071    -1.620123803841     1.059868044034     1.007825032230
         H            2.577789002929     2.864384196159    -0.685281955966     1.007825032230
         H            2.707755002929     2.789398196159     1.086602044034     1.007825032230
         H            1.469385002929     3.804786196159     0.343658044034     1.007825032230
         H           -3.099640997071     2.014566196159    -1.093584955966     1.007825032230
         H           -4.776209997071     0.461581196159    -0.081820955966     1.007825032230

  Basis Set: AUG-CC-PVTZ
    Blend: AUG-CC-PVTZ
  Basis Set: (AUG-CC-PVTZ AUX)
    Blend: AUG-CC-PVTZ-JKFIT
	 Reference Energy          =    -570.4602017323607015 [Eh]
	 Singles Energy            =      -0.0000000000000000 [Eh]
	 Same-Spin Energy          =      -0.6405558970871350 [Eh]
	 Opposite-Spin Energy      =      -1.9783053983383856 [Eh]
	 Correlation Energy        =      -2.6188612954255204 [Eh]
	 Total Energy              =    -573.0790630277862192 [Eh]

	 ================> DF-SCS-MP2 Energies <==================
	-----------------------------------------------------------
	 SCS Same-Spin Scale       =       0.3333333333333333 [-]
	 SCS Opposite-Spin Scale   =       1.2000000000000000 [-]
	 SCS Same-Spin Energy      =      -0.2135186323623783 [Eh]
	 SCS Opposite-Spin Energy  =      -2.3739664780060625 [Eh]
	 SCS Correlation Energy    =      -2.5874851103684406 [Eh]
	 SCS Total Energy          =    -573.0476868427291492 [Eh]
	-----------------------------------------------------------

  Dipole Moment: [D]
     X:    -1.7163      Y:     1.1119      Z:     0.5275     Total:     2.1119

*** Psi4 exiting successfully. Buy a developer a beer!
