                               Psi4 1.3.2 release

  ==> Input File <==

--------------------------------------------------------------------------
#psi4
#
memory 32 gb

molecule  {
0 1
  N        0.9996340     1.7721850     0.3204360
  N       -1.4856460     0.8456190    -0.6184330
  C        0.4210120    -0.5622280    -0.0768460
  C        1.3150614     0.4489426     0.0401665
  C       -1.0315900    -0.2881510    -0.0320430
  C        0.8423560    -1.8835050    -0.2823050
  C        2.7530010     0.0889630     0.1086070
  C        2.1912380    -2.2332610    -0.2798300
  C        3.1442100    -1.2359490    -0.0781950
  C       -1.9074690    -1.1902190     0.5957330
  C       -3.2772020    -0.9437210     0.5761060
  C        1.9752090     2.8430570     0.2492220
  C       -2.8095250     1.0776250    -0.6159580
  C       -3.7438200     0.2120800    -0.0497060
  H        0.0898220    -2.6479260    -0.4670950
  H        3.5165330     0.8472870     0.2502520
  H        0.1131400     1.9772450    -0.1334260
  H        2.4918570    -3.2637390    -0.4496120
  H        4.2036760    -1.4834020    -0.0698800
  H       -1.5082140    -2.0621420     1.1053590
  H       -3.9675240    -1.6332930     1.0562410
  H        2.5505250     2.8512150    -0.6889090
  H        2.6804910     2.7762290     1.0829750
  H        1.4421210     3.7916170     0.3400310
  H       -3.1269050     2.0013970    -1.0972120
  H       -4.8034740     0.4484120    -0.0854480
units angstrom
no_reorient  #important for SAPT in psi4, default
symmetry c1  #important for SAPT in psi4, default
}

set PROPERTIES_ORIGIN ["COM"]
properties('MP2/aug-cc-pvtz', properties = ['dipole'])
--------------------------------------------------------------------------

    Molecular point group: c1
  Charge       = 0
  Multiplicity = 1
  Basis Set: AUG-CC-PVTZ
    Blend: AUG-CC-PVTZ
  Basis Set: (AUG-CC-PVTZ AUX)
    Blend: AUG-CC-PVTZ-JKFIT

    Orbital Energies [Eh]
    ---------------------

    Doubly Occupied:

       1A    -15.568235     2A    -15.550839     3A    -11.288645
       4A    -11.281213     5A    -11.279067     6A    -11.262969
       7A    -11.251091     8A    -11.241935     9A    -11.240783
      10A    -11.237682    11A    -11.234274    12A    -11.228075
      13A    -11.225463    14A    -11.219056    15A     -1.263899
      16A     -1.228621    17A     -1.133832    18A     -1.088599
      19A     -1.060918    20A     -0.999412    21A     -0.991191
      22A     -0.916997    23A     -0.867987    24A     -0.860747
      25A     -0.810743    26A     -0.794104    27A     -0.720033
      28A     -0.694344    29A     -0.671870    30A     -0.656876
      31A     -0.651579    32A     -0.621359    33A     -0.609570
      34A     -0.599096    35A     -0.590115    36A     -0.576563
      37A     -0.569950    38A     -0.547736    39A     -0.533242
      40A     -0.529767    41A     -0.505664    42A     -0.500050
      43A     -0.483437    44A     -0.422682    45A     -0.416458
      46A     -0.387479    47A     -0.367249    48A     -0.315881
      49A     -0.280696

  @DF-RHF Final Energy:  -570.47978732872321

   => Energetics <=

    Nuclear Repulsion Energy =            819.1591764740388726
    One-Electron Energy =               -2398.5217790689921458
    Two-Electron Energy =                1008.8828152662301818
    Total Energy =                       -570.4797873287232051
  Basis Set: (AUG-CC-PVTZ AUX)
    Blend: AUG-CC-PVTZ-RI
    Molecular point group: c1

    Geometry (in Angstrom), charge = 0, multiplicity = 1:

       Center              X                  Y                   Z               Mass
    ------------   -----------------  -----------------  -----------------  -----------------
         N            1.024756345698     1.792326226918     0.328385923941    14.003074004430
         N           -1.460523654302     0.865760226918    -0.610483076059    14.003074004430
         C            0.446134345698    -0.542086773082    -0.068896076059    12.000000000000
         C            1.340183745698     0.469083826918     0.048116423941    12.000000000000
         C           -1.006467654302    -0.268009773082    -0.024093076059    12.000000000000
         C            0.867478345698    -1.863363773082    -0.274355076059    12.000000000000
         C            2.778123345698     0.109104226918     0.116556923941    12.000000000000
         C            2.216360345698    -2.213119773082    -0.271880076059    12.000000000000
         C            3.169332345698    -1.215807773082    -0.070245076059    12.000000000000
         C           -1.882346654302    -1.170077773082     0.603682923941    12.000000000000
         C           -3.252079654302    -0.923579773082     0.584055923941    12.000000000000
         C            2.000331345698     2.863198226918     0.257171923941    12.000000000000
         C           -2.784402654302     1.097766226918    -0.608008076059    12.000000000000
         C           -3.718697654302     0.232221226918    -0.041756076059    12.000000000000
         H            0.114944345698    -2.627784773082    -0.459145076059     1.007825032230
         H            3.541655345698     0.867428226918     0.258201923941     1.007825032230
         H            0.138262345698     1.997386226918    -0.125476076059     1.007825032230
         H            2.516979345698    -3.243597773082    -0.441662076059     1.007825032230
         H            4.228798345698    -1.463260773082    -0.061930076059     1.007825032230
         H           -1.483091654302    -2.042000773082     1.113308923941     1.007825032230
         H           -3.942401654302    -1.613151773082     1.064190923941     1.007825032230
         H            2.575647345698     2.871356226918    -0.680959076059     1.007825032230
         H            2.705613345698     2.796370226918     1.090924923941     1.007825032230
         H            1.467243345698     3.811758226918     0.347980923941     1.007825032230
         H           -3.101782654302     2.021538226918    -1.089262076059     1.007825032230
         H           -4.778351654302     0.468553226918    -0.077498076059     1.007825032230

  Basis Set: AUG-CC-PVTZ
    Blend: AUG-CC-PVTZ
  Basis Set: (AUG-CC-PVTZ AUX)
    Blend: AUG-CC-PVTZ-JKFIT
	 Reference Energy          =    -570.4797873287232051 [Eh]
	 Singles Energy            =      -0.0000000000000000 [Eh]
	 Same-Spin Energy          =      -0.6394422509739391 [Eh]
	 Opposite-Spin Energy      =      -1.9771002339667105 [Eh]
	 Correlation Energy        =      -2.6165424849406498 [Eh]
	 Total Energy              =    -573.0963298136638286 [Eh]

	 ================> DF-SCS-MP2 Energies <==================
	-----------------------------------------------------------
	 SCS Same-Spin Scale       =       0.3333333333333333 [-]
	 SCS Opposite-Spin Scale   =       1.2000000000000000 [-]
	 SCS Same-Spin Energy      =      -0.2131474169913130 [Eh]
	 SCS Opposite-Spin Energy  =      -2.3725202807600527 [Eh]
	 SCS Correlation Energy    =      -2.5856676977513660 [Eh]
	 SCS Total Energy          =    -573.0654550264745239 [Eh]
	-----------------------------------------------------------

  Dipole Moment: [D]
     X:    -1.6966      Y:     0.2086      Z:     0.3537     Total:     1.7456

*** Psi4 exiting successfully. Buy a developer a beer!
