                               Psi4 1.3.2 release

  ==> Input File <==

--------------------------------------------------------------------------
#psi4
#
memory 32 gb

molecule  {
0 1
  N        1.0463309     1.7850695     0.3223326
  N       -1.4856460     0.8456190    -0.6184330
  C        0.4210120    -0.5622280    -0.0768460
  C        1.3959190     0.4607190     0.0923330
  C       -1.0315900    -0.2881510    -0.0320430
  C        0.8423560    -1.8835050    -0.2823050
  C        2.7530010     0.0889630     0.1086070
  C        2.1912380    -2.2332610    -0.2798300
  C        3.1442100    -1.2359490    -0.0781950
  C       -1.9074690    -1.1902190     0.5957330
  C       -3.2772020    -0.9437210     0.5761060
  C        1.9752090     2.8430570     0.2492220
  C       -2.8095250     1.0776250    -0.6159580
  C       -3.7438200     0.2120800    -0.0497060
  H        0.0898220    -2.6479260    -0.4670950
  H        3.5165330     0.8472870     0.2502520
  H        0.1131400     1.9772450    -0.1334260
  H        2.4918570    -3.2637390    -0.4496120
  H        4.2036760    -1.4834020    -0.0698800
  H       -1.5082140    -2.0621420     1.1053590
  H       -3.9675240    -1.6332930     1.0562410
  H        2.5505250     2.8512150    -0.6889090
  H        2.6804910     2.7762290     1.0829750
  H        1.4421210     3.7916170     0.3400310
  H       -3.1269050     2.0013970    -1.0972120
  H       -4.8034740     0.4484120    -0.0854480
units angstrom
no_reorient  #important for SAPT in psi4, default
symmetry c1  #important for SAPT in psi4, default
}

set PROPERTIES_ORIGIN ["COM"]
properties('MP2/aug-cc-pvtz', properties = ['dipole'])
--------------------------------------------------------------------------

    Molecular point group: c1
  Charge       = 0
  Multiplicity = 1
  Basis Set: AUG-CC-PVTZ
    Blend: AUG-CC-PVTZ
  Basis Set: (AUG-CC-PVTZ AUX)
    Blend: AUG-CC-PVTZ-JKFIT

    Orbital Energies [Eh]
    ---------------------

    Doubly Occupied:

       1A    -15.569694     2A    -15.551198     3A    -11.290710
       4A    -11.282146     5A    -11.279651     6A    -11.263894
       7A    -11.245621     8A    -11.242972     9A    -11.242013
      10A    -11.238082    11A    -11.235686    12A    -11.234250
      13A    -11.219023    14A    -11.218360    15A     -1.263921
      16A     -1.232897    17A     -1.133932    18A     -1.089587
      19A     -1.061052    20A     -1.001025    21A     -0.994063
      22A     -0.913355    23A     -0.871213    24A     -0.860535
      25A     -0.806352    26A     -0.793350    27A     -0.720740
      28A     -0.695767    29A     -0.671915    30A     -0.658059
      31A     -0.652120    32A     -0.622995    33A     -0.611991
      34A     -0.603080    35A     -0.590445    36A     -0.578207
      37A     -0.572473    38A     -0.549343    39A     -0.533804
      40A     -0.524837    41A     -0.503541    42A     -0.496920
      43A     -0.488859    44A     -0.421742    45A     -0.414429
      46A     -0.388829    47A     -0.367823    48A     -0.317611
      49A     -0.278522

  @DF-RHF Final Energy:  -570.48600895184222

   => Energetics <=

    Nuclear Repulsion Energy =            818.5219258149776351
    One-Electron Energy =               -2397.2186004753334601
    Two-Electron Energy =                1008.2106657085134884
    Total Energy =                       -570.4860089518422228
  Basis Set: (AUG-CC-PVTZ AUX)
    Blend: AUG-CC-PVTZ-RI
    Molecular point group: c1

    Geometry (in Angstrom), charge = 0, multiplicity = 1:

       Center              X                  Y                   Z               Mass
    ------------   -----------------  -----------------  -----------------  -----------------
         N            1.062630915880     1.803463093444     0.326737950021    14.003074004430
         N           -1.469345984120     0.864012593444    -0.614027649979    14.003074004430
         C            0.437312015880    -0.543834406556    -0.072440649979    12.000000000000
         C            1.412219015880     0.479112593444     0.096738350021    12.000000000000
         C           -1.015289984120    -0.269757406556    -0.027637649979    12.000000000000
         C            0.858656015880    -1.865111406556    -0.277899649979    12.000000000000
         C            2.769301015880     0.107356593444     0.113012350021    12.000000000000
         C            2.207538015880    -2.214867406556    -0.275424649979    12.000000000000
         C            3.160510015880    -1.217555406556    -0.073789649979    12.000000000000
         C           -1.891168984120    -1.171825406556     0.600138350021    12.000000000000
         C           -3.260901984120    -0.925327406556     0.580511350021    12.000000000000
         C            1.991509015880     2.861450593444     0.253627350021    12.000000000000
         C           -2.793224984120     1.096018593444    -0.611552649979    12.000000000000
         C           -3.727519984120     0.230473593444    -0.045300649979    12.000000000000
         H            0.106122015880    -2.629532406556    -0.462689649979     1.007825032230
         H            3.532833015880     0.865680593444     0.254657350021     1.007825032230
         H            0.129440015880     1.995638593444    -0.129020649979     1.007825032230
         H            2.508157015880    -3.245345406556    -0.445206649979     1.007825032230
         H            4.219976015880    -1.465008406556    -0.065474649979     1.007825032230
         H           -1.491913984120    -2.043748406556     1.109764350021     1.007825032230
         H           -3.951223984120    -1.614899406556     1.060646350021     1.007825032230
         H            2.566825015880     2.869608593444    -0.684503649979     1.007825032230
         H            2.696791015880     2.794622593444     1.087380350021     1.007825032230
         H            1.458421015880     3.810010593444     0.344436350021     1.007825032230
         H           -3.110604984120     2.019790593444    -1.092806649979     1.007825032230
         H           -4.787173984120     0.466805593444    -0.081042649979     1.007825032230

  Basis Set: AUG-CC-PVTZ
    Blend: AUG-CC-PVTZ
  Basis Set: (AUG-CC-PVTZ AUX)
    Blend: AUG-CC-PVTZ-JKFIT
	 Reference Energy          =    -570.4860089518422228 [Eh]
	 Singles Energy            =      -0.0000000000000000 [Eh]
	 Same-Spin Energy          =      -0.6399793016145217 [Eh]
	 Opposite-Spin Energy      =      -1.9768948591531847 [Eh]
	 Correlation Energy        =      -2.6168741607677064 [Eh]
	 Total Energy              =    -573.1028831126099021 [Eh]

	 ================> DF-SCS-MP2 Energies <==================
	-----------------------------------------------------------
	 SCS Same-Spin Scale       =       0.3333333333333333 [-]
	 SCS Opposite-Spin Scale   =       1.2000000000000000 [-]
	 SCS Same-Spin Energy      =      -0.2133264338715072 [Eh]
	 SCS Opposite-Spin Energy  =      -2.3722738309838216 [Eh]
	 SCS Correlation Energy    =      -2.5856002648553287 [Eh]
	 SCS Total Energy          =    -573.0716092166975386 [Eh]
	-----------------------------------------------------------

  Dipole Moment: [D]
     X:    -1.8864      Y:     0.1207      Z:     0.3793     Total:     1.9280

*** Psi4 exiting successfully. Buy a developer a beer!
