                               Psi4 1.3.2 release

  ==> Input File <==

--------------------------------------------------------------------------
#psi4
#
memory 32 gb

molecule  {
0 1
  N        0.9534199     1.7577027     0.3182615
  N       -1.4856460     0.8456190    -0.6184330
  C        0.4210120    -0.5622280    -0.0768460
  C        1.3959190     0.4607190     0.0923330
  C       -1.0315900    -0.2881510    -0.0320430
  C        0.8423560    -1.8835050    -0.2823050
  C        2.7530010     0.0889630     0.1086070
  C        2.1912380    -2.2332610    -0.2798300
  C        3.1442100    -1.2359490    -0.0781950
  C       -1.9074690    -1.1902190     0.5957330
  C       -3.2772020    -0.9437210     0.5761060
  C        1.9752090     2.8430570     0.2492220
  C       -2.8095250     1.0776250    -0.6159580
  C       -3.7438200     0.2120800    -0.0497060
  H        0.0898220    -2.6479260    -0.4670950
  H        3.5165330     0.8472870     0.2502520
  H        0.1131400     1.9772450    -0.1334260
  H        2.4918570    -3.2637390    -0.4496120
  H        4.2036760    -1.4834020    -0.0698800
  H       -1.5082140    -2.0621420     1.1053590
  H       -3.9675240    -1.6332930     1.0562410
  H        2.5505250     2.8512150    -0.6889090
  H        2.6804910     2.7762290     1.0829750
  H        1.4421210     3.7916170     0.3400310
  H       -3.1269050     2.0013970    -1.0972120
  H       -4.8034740     0.4484120    -0.0854480
units angstrom
no_reorient  #important for SAPT in psi4, default
symmetry c1  #important for SAPT in psi4, default
}

set PROPERTIES_ORIGIN ["COM"]
properties('MP2/aug-cc-pvtz', properties = ['dipole'])
--------------------------------------------------------------------------

    Molecular point group: c1
  Charge       = 0
  Multiplicity = 1
  Basis Set: AUG-CC-PVTZ
    Blend: AUG-CC-PVTZ
  Basis Set: (AUG-CC-PVTZ AUX)
    Blend: AUG-CC-PVTZ-JKFIT

    Orbital Energies [Eh]
    ---------------------

    Doubly Occupied:

       1A    -15.567639     2A    -15.549666     3A    -11.289164
       4A    -11.280645     5A    -11.278620     6A    -11.262619
       7A    -11.251715     8A    -11.241967     9A    -11.241105
      10A    -11.236817    11A    -11.236190    12A    -11.232073
      13A    -11.221022    14A    -11.218455    15A     -1.262725
      16A     -1.225849    17A     -1.131190    18A     -1.088242
      19A     -1.060259    20A     -0.997747    21A     -0.991075
      22A     -0.917941    23A     -0.870862    24A     -0.859881
      25A     -0.804534    26A     -0.799318    27A     -0.721020
      28A     -0.700133    29A     -0.669798    30A     -0.658983
      31A     -0.647494    32A     -0.621729    33A     -0.605971
      34A     -0.600988    35A     -0.589259    36A     -0.575508
      37A     -0.563045    38A     -0.547044    39A     -0.534747
      40A     -0.531105    41A     -0.503885    42A     -0.498201
      43A     -0.488147    44A     -0.424840    45A     -0.417478
      46A     -0.387361    47A     -0.366796    48A     -0.317500
      49A     -0.280398

  @DF-RHF Final Energy:  -570.48732976276585

   => Energetics <=

    Nuclear Repulsion Energy =            818.6952468549495734
    One-Electron Energy =               -2397.6276497978992666
    Two-Electron Energy =                1008.4450731801838401
    Total Energy =                       -570.4873297627658530
  Basis Set: (AUG-CC-PVTZ AUX)
    Blend: AUG-CC-PVTZ-RI
    Molecular point group: c1

    Geometry (in Angstrom), charge = 0, multiplicity = 1:

       Center              X                  Y                   Z               Mass
    ------------   -----------------  -----------------  -----------------  -----------------
         N            0.976786940686     1.778177875329     0.322976507270    14.003074004430
         N           -1.462278959314     0.866094175329    -0.613717992730    14.003074004430
         C            0.444379040686    -0.541752824671    -0.072130992730    12.000000000000
         C            1.419286040686     0.481194175329     0.097048007270    12.000000000000
         C           -1.008222959314    -0.267675824671    -0.027327992730    12.000000000000
         C            0.865723040686    -1.863029824671    -0.277589992730    12.000000000000
         C            2.776368040686     0.109438175329     0.113322007270    12.000000000000
         C            2.214605040686    -2.212785824671    -0.275114992730    12.000000000000
         C            3.167577040686    -1.215473824671    -0.073479992730    12.000000000000
         C           -1.884101959314    -1.169743824671     0.600448007270    12.000000000000
         C           -3.253834959314    -0.923245824671     0.580821007270    12.000000000000
         C            1.998576040686     2.863532175329     0.253937007270    12.000000000000
         C           -2.786157959314     1.098100175329    -0.611242992730    12.000000000000
         C           -3.720452959314     0.232555175329    -0.044990992730    12.000000000000
         H            0.113189040686    -2.627450824671    -0.462379992730     1.007825032230
         H            3.539900040686     0.867762175329     0.254967007270     1.007825032230
         H            0.136507040686     1.997720175329    -0.128710992730     1.007825032230
         H            2.515224040686    -3.243263824671    -0.444896992730     1.007825032230
         H            4.227043040686    -1.462926824671    -0.065164992730     1.007825032230
         H           -1.484846959314    -2.041666824671     1.110074007270     1.007825032230
         H           -3.944156959314    -1.612817824671     1.060956007270     1.007825032230
         H            2.573892040686     2.871690175329    -0.684193992730     1.007825032230
         H            2.703858040686     2.796704175329     1.087690007270     1.007825032230
         H            1.465488040686     3.812092175329     0.344746007270     1.007825032230
         H           -3.103537959314     2.021872175329    -1.092496992730     1.007825032230
         H           -4.780106959314     0.468887175329    -0.080732992730     1.007825032230

  Basis Set: AUG-CC-PVTZ
    Blend: AUG-CC-PVTZ
  Basis Set: (AUG-CC-PVTZ AUX)
    Blend: AUG-CC-PVTZ-JKFIT
	 Reference Energy          =    -570.4873297627658530 [Eh]
	 Singles Energy            =      -0.0000000000000000 [Eh]
	 Same-Spin Energy          =      -0.6391615440219128 [Eh]
	 Opposite-Spin Energy      =      -1.9763928014905194 [Eh]
	 Correlation Energy        =      -2.6155543455124324 [Eh]
	 Total Energy              =    -573.1028841082783174 [Eh]

	 ================> DF-SCS-MP2 Energies <==================
	-----------------------------------------------------------
	 SCS Same-Spin Scale       =       0.3333333333333333 [-]
	 SCS Opposite-Spin Scale   =       1.2000000000000000 [-]
	 SCS Same-Spin Energy      =      -0.2130538480073043 [Eh]
	 SCS Opposite-Spin Energy  =      -2.3716713617886231 [Eh]
	 SCS Correlation Energy    =      -2.5847252097959275 [Eh]
	 SCS Total Energy          =    -573.0720549725617730 [Eh]
	-----------------------------------------------------------

  Dipole Moment: [D]
     X:    -1.6433      Y:     0.1957      Z:     0.3449     Total:     1.6904

*** Psi4 exiting successfully. Buy a developer a beer!
