                               Psi4 1.3.2 release

  ==> Input File <==

--------------------------------------------------------------------------
#psi4
#
memory 32 gb

molecule  {
0 1
  N        0.9996340     1.7721850     0.3204360
  N       -1.4856460     0.8456190    -0.6184330
  C        0.4210120    -0.5622280    -0.0768460
  C        1.3959190     0.4607190     0.0923330
  C       -1.1298110    -0.2696186    -0.0290135
  C        0.8423560    -1.8835050    -0.2823050
  C        2.7530010     0.0889630     0.1086070
  C        2.1912380    -2.2332610    -0.2798300
  C        3.1442100    -1.2359490    -0.0781950
  C       -1.9074690    -1.1902190     0.5957330
  C       -3.2772020    -0.9437210     0.5761060
  C        1.9752090     2.8430570     0.2492220
  C       -2.8095250     1.0776250    -0.6159580
  C       -3.7438200     0.2120800    -0.0497060
  H        0.0898220    -2.6479260    -0.4670950
  H        3.5165330     0.8472870     0.2502520
  H        0.1131400     1.9772450    -0.1334260
  H        2.4918570    -3.2637390    -0.4496120
  H        4.2036760    -1.4834020    -0.0698800
  H       -1.5082140    -2.0621420     1.1053590
  H       -3.9675240    -1.6332930     1.0562410
  H        2.5505250     2.8512150    -0.6889090
  H        2.6804910     2.7762290     1.0829750
  H        1.4421210     3.7916170     0.3400310
  H       -3.1269050     2.0013970    -1.0972120
  H       -4.8034740     0.4484120    -0.0854480
units angstrom
no_reorient  #important for SAPT in psi4, default
symmetry c1  #important for SAPT in psi4, default
}

set PROPERTIES_ORIGIN ["COM"]
properties('MP2/aug-cc-pvtz', properties = ['dipole'])
--------------------------------------------------------------------------

    Molecular point group: c1
  Charge       = 0
  Multiplicity = 1
  Basis Set: AUG-CC-PVTZ
    Blend: AUG-CC-PVTZ
  Basis Set: (AUG-CC-PVTZ AUX)
    Blend: AUG-CC-PVTZ-JKFIT

    Orbital Energies [Eh]
    ---------------------

    Doubly Occupied:

       1A    -15.570329     2A    -15.547675     3A    -11.286607
       4A    -11.285020     5A    -11.274092     6A    -11.266906
       7A    -11.246848     8A    -11.245130     9A    -11.239090
      10A    -11.234331    11A    -11.232244    12A    -11.231112
      13A    -11.216788    14A    -11.215198    15A     -1.280813
      16A     -1.227311    17A     -1.126480    18A     -1.099101
      19A     -1.056427    20A     -0.995942    21A     -0.991682
      22A     -0.912042    23A     -0.871766    24A     -0.862873
      25A     -0.804767    26A     -0.792765    27A     -0.720600
      28A     -0.696554    29A     -0.672756    30A     -0.658042
      31A     -0.649591    32A     -0.622163    33A     -0.605808
      34A     -0.599173    35A     -0.589063    36A     -0.577124
      37A     -0.564746    38A     -0.557935    39A     -0.533447
      40A     -0.523397    41A     -0.500152    42A     -0.493240
      43A     -0.485007    44A     -0.424863    45A     -0.416145
      46A     -0.393099    47A     -0.367122    48A     -0.319781
      49A     -0.278175

  @DF-RHF Final Energy:  -570.48172164020184

   => Energetics <=

    Nuclear Repulsion Energy =            818.5763913908486984
    One-Electron Energy =               -2397.3935785252006099
    Two-Electron Energy =                1008.3354654941501849
    Total Energy =                       -570.4817216402018403
  Basis Set: (AUG-CC-PVTZ AUX)
    Blend: AUG-CC-PVTZ-RI
    Molecular point group: c1

    Geometry (in Angstrom), charge = 0, multiplicity = 1:

       Center              X                  Y                   Z               Mass
    ------------   -----------------  -----------------  -----------------  -----------------
         N            1.025888125954     1.790350640256     0.324788141073    14.003074004430
         N           -1.459391874046     0.863784640256    -0.614080858927    14.003074004430
         C            0.447266125954    -0.544062359744    -0.072493858927    12.000000000000
         C            1.422173125954     0.478884640256     0.096685141073    12.000000000000
         C           -1.103556874046    -0.251452959744    -0.024661358927    12.000000000000
         C            0.868610125954    -1.865339359744    -0.277952858927    12.000000000000
         C            2.779255125954     0.107128640256     0.112959141073    12.000000000000
         C            2.217492125954    -2.215095359744    -0.275477858927    12.000000000000
         C            3.170464125954    -1.217783359744    -0.073842858927    12.000000000000
         C           -1.881214874046    -1.172053359744     0.600085141073    12.000000000000
         C           -3.250947874046    -0.925555359744     0.580458141073    12.000000000000
         C            2.001463125954     2.861222640256     0.253574141073    12.000000000000
         C           -2.783270874046     1.095790640256    -0.611605858927    12.000000000000
         C           -3.717565874046     0.230245640256    -0.045353858927    12.000000000000
         H            0.116076125954    -2.629760359744    -0.462742858927     1.007825032230
         H            3.542787125954     0.865452640256     0.254604141073     1.007825032230
         H            0.139394125954     1.995410640256    -0.129073858927     1.007825032230
         H            2.518111125954    -3.245573359744    -0.445259858927     1.007825032230
         H            4.229930125954    -1.465236359744    -0.065527858927     1.007825032230
         H           -1.481959874046    -2.043976359744     1.109711141073     1.007825032230
         H           -3.941269874046    -1.615127359744     1.060593141073     1.007825032230
         H            2.576779125954     2.869380640256    -0.684556858927     1.007825032230
         H            2.706745125954     2.794394640256     1.087327141073     1.007825032230
         H            1.468375125954     3.809782640256     0.344383141073     1.007825032230
         H           -3.100650874046     2.019562640256    -1.092859858927     1.007825032230
         H           -4.777219874046     0.466577640256    -0.081095858927     1.007825032230

  Basis Set: AUG-CC-PVTZ
    Blend: AUG-CC-PVTZ
  Basis Set: (AUG-CC-PVTZ AUX)
    Blend: AUG-CC-PVTZ-JKFIT
	 Reference Energy          =    -570.4817216402018403 [Eh]
	 Singles Energy            =      -0.0000000000000000 [Eh]
	 Same-Spin Energy          =      -0.6383790877644462 [Eh]
	 Opposite-Spin Energy      =      -1.9748493752759579 [Eh]
	 Correlation Energy        =      -2.6132284630404041 [Eh]
	 Total Energy              =    -573.0949501032422404 [Eh]

	 ================> DF-SCS-MP2 Energies <==================
	-----------------------------------------------------------
	 SCS Same-Spin Scale       =       0.3333333333333333 [-]
	 SCS Opposite-Spin Scale   =       1.2000000000000000 [-]
	 SCS Same-Spin Energy      =      -0.2127930292548154 [Eh]
	 SCS Opposite-Spin Energy  =      -2.3698192503311493 [Eh]
	 SCS Correlation Energy    =      -2.5826122795859647 [Eh]
	 SCS Total Energy          =    -573.0643339197878277 [Eh]
	-----------------------------------------------------------

  Dipole Moment: [D]
     X:    -2.2337      Y:     0.2077      Z:     0.3680     Total:     2.2733

*** Psi4 exiting successfully. Buy a developer a beer!
