                               Psi4 1.3.2 release

  ==> Input File <==

--------------------------------------------------------------------------
#psi4
#
memory 32 gb

molecule  {
0 1
  N        0.9996340     1.7721850     0.3204360
  N       -1.4856460     0.8456190    -0.6184330
  C        0.4210120    -0.5622280    -0.0768460
  C        1.3959190     0.4607190     0.0923330
  C       -0.9875082    -0.2754409    -0.0435088
  C        0.8423560    -1.8835050    -0.2823050
  C        2.7530010     0.0889630     0.1086070
  C        2.1912380    -2.2332610    -0.2798300
  C        3.1442100    -1.2359490    -0.0781950
  C       -1.9074690    -1.1902190     0.5957330
  C       -3.2772020    -0.9437210     0.5761060
  C        1.9752090     2.8430570     0.2492220
  C       -2.8095250     1.0776250    -0.6159580
  C       -3.7438200     0.2120800    -0.0497060
  H        0.0898220    -2.6479260    -0.4670950
  H        3.5165330     0.8472870     0.2502520
  H        0.1131400     1.9772450    -0.1334260
  H        2.4918570    -3.2637390    -0.4496120
  H        4.2036760    -1.4834020    -0.0698800
  H       -1.5082140    -2.0621420     1.1053590
  H       -3.9675240    -1.6332930     1.0562410
  H        2.5505250     2.8512150    -0.6889090
  H        2.6804910     2.7762290     1.0829750
  H        1.4421210     3.7916170     0.3400310
  H       -3.1269050     2.0013970    -1.0972120
  H       -4.8034740     0.4484120    -0.0854480
units angstrom
no_reorient  #important for SAPT in psi4, default
symmetry c1  #important for SAPT in psi4, default
}

set PROPERTIES_ORIGIN ["COM"]
properties('MP2/aug-cc-pvtz', properties = ['dipole'])
--------------------------------------------------------------------------

    Molecular point group: c1
  Charge       = 0
  Multiplicity = 1
  Basis Set: AUG-CC-PVTZ
    Blend: AUG-CC-PVTZ
  Basis Set: (AUG-CC-PVTZ AUX)
    Blend: AUG-CC-PVTZ-JKFIT

    Orbital Energies [Eh]
    ---------------------

    Doubly Occupied:

       1A    -15.566746     2A    -15.552167     3A    -11.292355
       4A    -11.281036     5A    -11.279563     6A    -11.260755
       7A    -11.249787     8A    -11.244145     9A    -11.240947
      10A    -11.240129    11A    -11.238340    12A    -11.231979
      13A    -11.221459    14A    -11.220101    15A     -1.260948
      16A     -1.229545    17A     -1.135356    18A     -1.085731
      19A     -1.062232    20A     -1.000527    21A     -0.991779
      22A     -0.917451    23A     -0.875172    24A     -0.855376
      25A     -0.805852    26A     -0.797285    27A     -0.721904
      28A     -0.698706    29A     -0.670328    30A     -0.661213
      31A     -0.649043    32A     -0.620673    33A     -0.609668
      34A     -0.603438    35A     -0.589646    36A     -0.576180
      37A     -0.569888    38A     -0.546248    39A     -0.534279
      40A     -0.530827    41A     -0.506381    42A     -0.499139
      43A     -0.491797    44A     -0.422712    45A     -0.412299
      46A     -0.388442    47A     -0.365733    48A     -0.315956
      49A     -0.279607

  @DF-RHF Final Energy:  -570.48570627454944

   => Energetics <=

    Nuclear Repulsion Energy =            818.7414487585599545
    One-Electron Energy =               -2397.6525692804948449
    Two-Electron Energy =                1008.4254142473854472
    Total Energy =                       -570.4857062745494432
  Basis Set: (AUG-CC-PVTZ AUX)
    Blend: AUG-CC-PVTZ-RI
    Molecular point group: c1

    Geometry (in Angstrom), charge = 0, multiplicity = 1:

       Center              X                  Y                   Z               Mass
    ------------   -----------------  -----------------  -----------------  -----------------
         N            1.016612552075     1.790730149119     0.325732972981    14.003074004430
         N           -1.468667447925     0.864164149119    -0.613136027019    14.003074004430
         C            0.437990552075    -0.543682850881    -0.071549027019    12.000000000000
         C            1.412897552075     0.479264149119     0.097629972981    12.000000000000
         C           -0.970529647925    -0.256895750881    -0.038211827019    12.000000000000
         C            0.859334552075    -1.864959850881    -0.277008027019    12.000000000000
         C            2.769979552075     0.107508149119     0.113903972981    12.000000000000
         C            2.208216552075    -2.214715850881    -0.274533027019    12.000000000000
         C            3.161188552075    -1.217403850881    -0.072898027019    12.000000000000
         C           -1.890490447925    -1.171673850881     0.601029972981    12.000000000000
         C           -3.260223447925    -0.925175850881     0.581402972981    12.000000000000
         C            1.992187552075     2.861602149119     0.254518972981    12.000000000000
         C           -2.792546447925     1.096170149119    -0.610661027019    12.000000000000
         C           -3.726841447925     0.230625149119    -0.044409027019    12.000000000000
         H            0.106800552075    -2.629380850881    -0.461798027019     1.007825032230
         H            3.533511552075     0.865832149119     0.255548972981     1.007825032230
         H            0.130118552075     1.995790149119    -0.128129027019     1.007825032230
         H            2.508835552075    -3.245193850881    -0.444315027019     1.007825032230
         H            4.220654552075    -1.464856850881    -0.064583027019     1.007825032230
         H           -1.491235447925    -2.043596850881     1.110655972981     1.007825032230
         H           -3.950545447925    -1.614747850881     1.061537972981     1.007825032230
         H            2.567503552075     2.869760149119    -0.683612027019     1.007825032230
         H            2.697469552075     2.794774149119     1.088271972981     1.007825032230
         H            1.459099552075     3.810162149119     0.345327972981     1.007825032230
         H           -3.109926447925     2.019942149119    -1.091915027019     1.007825032230
         H           -4.786495447925     0.466957149119    -0.080151027019     1.007825032230

  Basis Set: AUG-CC-PVTZ
    Blend: AUG-CC-PVTZ
  Basis Set: (AUG-CC-PVTZ AUX)
    Blend: AUG-CC-PVTZ-JKFIT
	 Reference Energy          =    -570.4857062745494432 [Eh]
	 Singles Energy            =      -0.0000000000000000 [Eh]
	 Same-Spin Energy          =      -0.6401093667630974 [Eh]
	 Opposite-Spin Energy      =      -1.9773653860347924 [Eh]
	 Correlation Energy        =      -2.6174747527978899 [Eh]
	 Total Energy              =    -573.1031810273473184 [Eh]

	 ================> DF-SCS-MP2 Energies <==================
	-----------------------------------------------------------
	 SCS Same-Spin Scale       =       0.3333333333333333 [-]
	 SCS Opposite-Spin Scale   =       1.2000000000000000 [-]
	 SCS Same-Spin Energy      =      -0.2133697889210324 [Eh]
	 SCS Opposite-Spin Energy  =      -2.3728384632417510 [Eh]
	 SCS Correlation Energy    =      -2.5862082521627836 [Eh]
	 SCS Total Energy          =    -573.0719145267122485 [Eh]
	-----------------------------------------------------------

  Dipole Moment: [D]
     X:    -1.5314      Y:     0.1500      Z:     0.3529     Total:     1.5787

*** Psi4 exiting successfully. Buy a developer a beer!
