                               Psi4 1.3.2 release

  ==> Input File <==

--------------------------------------------------------------------------
#psi4
#
memory 32 gb

molecule  {
0 1
  N        0.9996340     1.7721850     0.3204360
  N       -1.4856460     0.8456190    -0.6184330
  C        0.4210120    -0.5622280    -0.0768460
  C        1.3959190     0.4607190     0.0923330
  C       -1.0315900    -0.2881510    -0.0320430
  C        0.8423560    -1.8835050    -0.2823050
  C        2.7530010     0.0889630     0.1086070
  C        2.1912380    -2.2332610    -0.2798300
  C        3.1442100    -1.2359490    -0.0781950
  C       -1.9074690    -1.1902190     0.5957330
  C       -3.2772020    -0.9437210     0.5761060
  C        1.9752090     2.8430570     0.2492220
  C       -2.7110263     1.0603634    -0.6161421
  C       -3.7438200     0.2120800    -0.0497060
  H        0.0898220    -2.6479260    -0.4670950
  H        3.5165330     0.8472870     0.2502520
  H        0.1131400     1.9772450    -0.1334260
  H        2.4918570    -3.2637390    -0.4496120
  H        4.2036760    -1.4834020    -0.0698800
  H       -1.5082140    -2.0621420     1.1053590
  H       -3.9675240    -1.6332930     1.0562410
  H        2.5505250     2.8512150    -0.6889090
  H        2.6804910     2.7762290     1.0829750
  H        1.4421210     3.7916170     0.3400310
  H       -3.1269050     2.0013970    -1.0972120
  H       -4.8034740     0.4484120    -0.0854480
units angstrom
no_reorient  #important for SAPT in psi4, default
symmetry c1  #important for SAPT in psi4, default
}

set PROPERTIES_ORIGIN ["COM"]
properties('MP2/aug-cc-pvtz', properties = ['dipole'])
--------------------------------------------------------------------------

    Molecular point group: c1
  Charge       = 0
  Multiplicity = 1
  Basis Set: AUG-CC-PVTZ
    Blend: AUG-CC-PVTZ
  Basis Set: (AUG-CC-PVTZ AUX)
    Blend: AUG-CC-PVTZ-JKFIT

    Orbital Energies [Eh]
    ---------------------

    Doubly Occupied:

       1A    -15.563658     2A    -15.551825     3A    -11.289994
       4A    -11.282774     5A    -11.279158     6A    -11.260827
       7A    -11.249514     8A    -11.245635     9A    -11.240177
      10A    -11.237129    11A    -11.235926    12A    -11.233345
      13A    -11.220286    14A    -11.218490    15A     -1.291654
      16A     -1.232250    17A     -1.133603    18A     -1.093444
      19A     -1.059565    20A     -0.998903    21A     -0.987758
      22A     -0.915576    23A     -0.879016    24A     -0.851065
      25A     -0.808739    26A     -0.796370    27A     -0.720213
      28A     -0.699746    29A     -0.675368    30A     -0.657254
      31A     -0.652049    32A     -0.618355    33A     -0.608968
      34A     -0.601257    35A     -0.584705    36A     -0.579352
      37A     -0.569240    38A     -0.559282    39A     -0.536699
      40A     -0.530911    41A     -0.504905    42A     -0.498084
      43A     -0.486567    44A     -0.421900    45A     -0.411835
      46A     -0.398088    47A     -0.366761    48A     -0.314115
      49A     -0.278242

  @DF-RHF Final Energy:  -570.47954645653920

   => Energetics <=

    Nuclear Repulsion Energy =            820.3546873209693331
    One-Electron Energy =               -2400.8073186879064451
    Two-Electron Energy =                1009.9730849103979153
    Total Energy =                       -570.4795464565391967
  Basis Set: (AUG-CC-PVTZ AUX)
    Blend: AUG-CC-PVTZ-RI
    Molecular point group: c1

    Geometry (in Angstrom), charge = 0, multiplicity = 1:

       Center              X                  Y                   Z               Mass
    ------------   -----------------  -----------------  -----------------  -----------------
         N            1.013065552465     1.792683762945     0.324997609785    14.003074004430
         N           -1.472214447535     0.866117762945    -0.613871390215    14.003074004430
         C            0.434443552465    -0.541729237055    -0.072284390215    12.000000000000
         C            1.409350552465     0.481217762945     0.096894609785    12.000000000000
         C           -1.018158447535    -0.267652237055    -0.027481390215    12.000000000000
         C            0.855787552465    -1.863006237055    -0.277743390215    12.000000000000
         C            2.766432552465     0.109461762945     0.113168609785    12.000000000000
         C            2.204669552465    -2.212762237055    -0.275268390215    12.000000000000
         C            3.157641552465    -1.215450237055    -0.073633390215    12.000000000000
         C           -1.894037447535    -1.169720237055     0.600294609785    12.000000000000
         C           -3.263770447535    -0.923222237055     0.580667609785    12.000000000000
         C            1.988640552465     2.863555762945     0.253783609785    12.000000000000
         C           -2.697594747535     1.080862162945    -0.611580490215    12.000000000000
         C           -3.730388447535     0.232578762945    -0.045144390215    12.000000000000
         H            0.103253552465    -2.627427237055    -0.462533390215     1.007825032230
         H            3.529964552465     0.867785762945     0.254813609785     1.007825032230
         H            0.126571552465     1.997743762945    -0.128864390215     1.007825032230
         H            2.505288552465    -3.243240237055    -0.445050390215     1.007825032230
         H            4.217107552465    -1.462903237055    -0.065318390215     1.007825032230
         H           -1.494782447535    -2.041643237055     1.109920609785     1.007825032230
         H           -3.954092447535    -1.612794237055     1.060802609785     1.007825032230
         H            2.563956552465     2.871713762945    -0.684347390215     1.007825032230
         H            2.693922552465     2.796727762945     1.087536609785     1.007825032230
         H            1.455552552465     3.812115762945     0.344592609785     1.007825032230
         H           -3.113473447535     2.021895762945    -1.092650390215     1.007825032230
         H           -4.790042447535     0.468910762945    -0.080886390215     1.007825032230

  Basis Set: AUG-CC-PVTZ
    Blend: AUG-CC-PVTZ
  Basis Set: (AUG-CC-PVTZ AUX)
    Blend: AUG-CC-PVTZ-JKFIT
	 Reference Energy          =    -570.4795464565391967 [Eh]
	 Singles Energy            =      -0.0000000000000000 [Eh]
	 Same-Spin Energy          =      -0.6386019892553255 [Eh]
	 Opposite-Spin Energy      =      -1.9749299677734644 [Eh]
	 Correlation Energy        =      -2.6135319570287900 [Eh]
	 Total Energy              =    -573.0930784135680369 [Eh]

	 ================> DF-SCS-MP2 Energies <==================
	-----------------------------------------------------------
	 SCS Same-Spin Scale       =       0.3333333333333333 [-]
	 SCS Opposite-Spin Scale   =       1.2000000000000000 [-]
	 SCS Same-Spin Energy      =      -0.2128673297517752 [Eh]
	 SCS Opposite-Spin Energy  =      -2.3699159613281573 [Eh]
	 SCS Correlation Energy    =      -2.5827832910799327 [Eh]
	 SCS Total Energy          =    -573.0623297476191738 [Eh]
	-----------------------------------------------------------

  Dipole Moment: [D]
     X:    -1.6810      Y:     0.1576      Z:     0.3540     Total:     1.7251

*** Psi4 exiting successfully. Buy a developer a beer!
