                               Psi4 1.3.2 release

  ==> Input File <==

--------------------------------------------------------------------------
#psi4
#
memory 32 gb

molecule  {
0 1
  N        0.9996340     1.7721850     0.3204360
  N       -1.5076733     0.8398445    -0.6120649
  C        0.4210120    -0.5622280    -0.0768460
  C        1.3959190     0.4607190     0.0923330
  C       -1.0315900    -0.2881510    -0.0320430
  C        0.8423560    -1.8835050    -0.2823050
  C        2.7530010     0.0889630     0.1086070
  C        2.1912380    -2.2332610    -0.2798300
  C        3.1442100    -1.2359490    -0.0781950
  C       -1.9074690    -1.1902190     0.5957330
  C       -3.2772020    -0.9437210     0.5761060
  C        1.9752090     2.8430570     0.2492220
  C       -2.8095250     1.0776250    -0.6159580
  C       -3.7438200     0.2120800    -0.0497060
  H        0.0898220    -2.6479260    -0.4670950
  H        3.5165330     0.8472870     0.2502520
  H        0.1131400     1.9772450    -0.1334260
  H        2.4918570    -3.2637390    -0.4496120
  H        4.2036760    -1.4834020    -0.0698800
  H       -1.5082140    -2.0621420     1.1053590
  H       -3.9675240    -1.6332930     1.0562410
  H        2.5505250     2.8512150    -0.6889090
  H        2.6804910     2.7762290     1.0829750
  H        1.4421210     3.7916170     0.3400310
  H       -3.1269050     2.0013970    -1.0972120
  H       -4.8034740     0.4484120    -0.0854480
units angstrom
no_reorient  #important for SAPT in psi4, default
symmetry c1  #important for SAPT in psi4, default
}

set PROPERTIES_ORIGIN ["COM"]
properties('MP2/aug-cc-pvtz', properties = ['dipole'])
--------------------------------------------------------------------------

    Molecular point group: c1
  Charge       = 0
  Multiplicity = 1
  Basis Set: AUG-CC-PVTZ
    Blend: AUG-CC-PVTZ
  Basis Set: (AUG-CC-PVTZ AUX)
    Blend: AUG-CC-PVTZ-JKFIT

    Orbital Energies [Eh]
    ---------------------

    Doubly Occupied:

       1A    -15.565694     2A    -15.551229     3A    -11.289677
       4A    -11.279279     5A    -11.278734     6A    -11.262093
       7A    -11.249104     8A    -11.241461     9A    -11.241051
      10A    -11.237770    11A    -11.236205    12A    -11.233728
      13A    -11.220253    14A    -11.218658    15A     -1.266852
      16A     -1.230029    17A     -1.132933    18A     -1.088090
      19A     -1.061861    20A     -0.999159    21A     -0.993023
      22A     -0.915841    23A     -0.872452    24A     -0.858818
      25A     -0.806792    26A     -0.796379    27A     -0.721216
      28A     -0.698549    29A     -0.670963    30A     -0.658366
      31A     -0.650591    32A     -0.622045    33A     -0.609157
      34A     -0.602711    35A     -0.590064    36A     -0.576499
      37A     -0.568300    38A     -0.550182    39A     -0.534363
      40A     -0.529488    41A     -0.504574    42A     -0.498052
      43A     -0.489330    44A     -0.421968    45A     -0.414191
      46A     -0.387955    47A     -0.368331    48A     -0.317296
      49A     -0.279635

  @DF-RHF Final Energy:  -570.49059390750085

   => Energetics <=

    Nuclear Repulsion Energy =            818.7813934690321958
    One-Electron Energy =               -2397.7619962635717457
    Two-Electron Energy =                1008.4900088870388117
    Total Energy =                       -570.4905939075008519
  Basis Set: (AUG-CC-PVTZ AUX)
    Blend: AUG-CC-PVTZ-RI
    Molecular point group: c1

    Geometry (in Angstrom), charge = 0, multiplicity = 1:

       Center              X                  Y                   Z               Mass
    ------------   -----------------  -----------------  -----------------  -----------------
         N            1.021161336931     1.791997839991     0.324501237425    14.003074004430
         N           -1.486145963069     0.859657339991    -0.607999662575    14.003074004430
         C            0.442539336931    -0.542415160009    -0.072780762575    12.000000000000
         C            1.417446336931     0.480531839991     0.096398237425    12.000000000000
         C           -1.010062663069    -0.268338160009    -0.027977762575    12.000000000000
         C            0.863883336931    -1.863692160009    -0.278239762575    12.000000000000
         C            2.774528336931     0.108775839991     0.112672237425    12.000000000000
         C            2.212765336931    -2.213448160009    -0.275764762575    12.000000000000
         C            3.165737336931    -1.216136160009    -0.074129762575    12.000000000000
         C           -1.885941663069    -1.170406160009     0.599798237425    12.000000000000
         C           -3.255674663069    -0.923908160009     0.580171237425    12.000000000000
         C            1.996736336931     2.862869839991     0.253287237425    12.000000000000
         C           -2.787997663069     1.097437839991    -0.611892762575    12.000000000000
         C           -3.722292663069     0.231892839991    -0.045640762575    12.000000000000
         H            0.111349336931    -2.628113160009    -0.463029762575     1.007825032230
         H            3.538060336931     0.867099839991     0.254317237425     1.007825032230
         H            0.134667336931     1.997057839991    -0.129360762575     1.007825032230
         H            2.513384336931    -3.243926160009    -0.445546762575     1.007825032230
         H            4.225203336931    -1.463589160009    -0.065814762575     1.007825032230
         H           -1.486686663069    -2.042329160009     1.109424237425     1.007825032230
         H           -3.945996663069    -1.613480160009     1.060306237425     1.007825032230
         H            2.572052336931     2.871027839991    -0.684843762575     1.007825032230
         H            2.702018336931     2.796041839991     1.087040237425     1.007825032230
         H            1.463648336931     3.811429839991     0.344096237425     1.007825032230
         H           -3.105377663069     2.021209839991    -1.093146762575     1.007825032230
         H           -4.781946663069     0.468224839991    -0.081382762575     1.007825032230

  Basis Set: AUG-CC-PVTZ
    Blend: AUG-CC-PVTZ
  Basis Set: (AUG-CC-PVTZ AUX)
    Blend: AUG-CC-PVTZ-JKFIT
	 Reference Energy          =    -570.4905939075008519 [Eh]
	 Singles Energy            =      -0.0000000000000000 [Eh]
	 Same-Spin Energy          =      -0.6392476437048226 [Eh]
	 Opposite-Spin Energy      =      -1.9757044291120263 [Eh]
	 Correlation Energy        =      -2.6149520728168487 [Eh]
	 Total Energy              =    -573.1055459803177428 [Eh]

	 ================> DF-SCS-MP2 Energies <==================
	-----------------------------------------------------------
	 SCS Same-Spin Scale       =       0.3333333333333333 [-]
	 SCS Opposite-Spin Scale   =       1.2000000000000000 [-]
	 SCS Same-Spin Energy      =      -0.2130825479016075 [Eh]
	 SCS Opposite-Spin Energy  =      -2.3708453149344315 [Eh]
	 SCS Correlation Energy    =      -2.5839278628360391 [Eh]
	 SCS Total Energy          =    -573.0745217703369008 [Eh]
	-----------------------------------------------------------

  Dipole Moment: [D]
     X:    -1.6969      Y:     0.1782      Z:     0.3489     Total:     1.7416

*** Psi4 exiting successfully. Buy a developer a beer!
