                               Psi4 1.3.2 release

  ==> Input File <==

--------------------------------------------------------------------------
#psi4
#
memory 32 gb

molecule  {
0 1
  N        0.9996340     1.7721850     0.3204360
  N       -1.4856460     0.8456190    -0.6184330
  C        0.4210120    -0.5622280    -0.0768460
  C        1.4989519     0.3543252     0.0763257
  C       -1.0315900    -0.2881510    -0.0320430
  C        0.8423560    -1.8835050    -0.2823050
  C        2.7530010     0.0889630     0.1086070
  C        2.1912380    -2.2332610    -0.2798300
  C        3.1442100    -1.2359490    -0.0781950
  C       -1.9074690    -1.1902190     0.5957330
  C       -3.2772020    -0.9437210     0.5761060
  C        1.9752090     2.8430570     0.2492220
  C       -2.8095250     1.0776250    -0.6159580
  C       -3.7438200     0.2120800    -0.0497060
  H        0.0898220    -2.6479260    -0.4670950
  H        3.5165330     0.8472870     0.2502520
  H        0.1131400     1.9772450    -0.1334260
  H        2.4918570    -3.2637390    -0.4496120
  H        4.2036760    -1.4834020    -0.0698800
  H       -1.5082140    -2.0621420     1.1053590
  H       -3.9675240    -1.6332930     1.0562410
  H        2.5505250     2.8512150    -0.6889090
  H        2.6804910     2.7762290     1.0829750
  H        1.4421210     3.7916170     0.3400310
  H       -3.1269050     2.0013970    -1.0972120
  H       -4.8034740     0.4484120    -0.0854480
units angstrom
no_reorient  #important for SAPT in psi4, default
symmetry c1  #important for SAPT in psi4, default
}

set PROPERTIES_ORIGIN ["COM"]
properties('MP2/aug-cc-pvtz', properties = ['dipole'])
--------------------------------------------------------------------------

    Molecular point group: c1
  Charge       = 0
  Multiplicity = 1
  Basis Set: AUG-CC-PVTZ
    Blend: AUG-CC-PVTZ
  Basis Set: (AUG-CC-PVTZ AUX)
    Blend: AUG-CC-PVTZ-JKFIT

    Orbital Energies [Eh]
    ---------------------

    Doubly Occupied:

       1A    -15.570102     2A    -15.534641     3A    -11.294701
       4A    -11.282125     5A    -11.267320     6A    -11.264859
       7A    -11.245051     8A    -11.244718     9A    -11.241472
      10A    -11.240080    11A    -11.239582    12A    -11.236209
      13A    -11.225489    14A    -11.211638    15A     -1.262668
      16A     -1.200281    17A     -1.136207    18A     -1.090591
      19A     -1.067404    20A     -1.016008    21A     -0.993118
      22A     -0.896512    23A     -0.877306    24A     -0.860303
      25A     -0.813383    26A     -0.795149    27A     -0.724618
      28A     -0.692081    29A     -0.673345    30A     -0.656923
      31A     -0.642752    32A     -0.620718    33A     -0.613399
      34A     -0.595637    35A     -0.587735    36A     -0.578062
      37A     -0.562990    38A     -0.545841    39A     -0.535483
      40A     -0.522627    41A     -0.510906    42A     -0.503935
      43A     -0.474428    44A     -0.422849    45A     -0.399404
      46A     -0.388818    47A     -0.370713    48A     -0.324926
      49A     -0.291882

  @DF-RHF Final Energy:  -570.46202195299884

   => Energetics <=

    Nuclear Repulsion Energy =            818.4940669318522168
    One-Electron Energy =               -2397.2181994225829840
    Two-Electron Energy =                1008.2621105377320418
    Total Energy =                       -570.4620219529988390
  Basis Set: (AUG-CC-PVTZ AUX)
    Blend: AUG-CC-PVTZ-RI
    Molecular point group: c1

    Geometry (in Angstrom), charge = 0, multiplicity = 1:

       Center              X                  Y                   Z               Mass
    ------------   -----------------  -----------------  -----------------  -----------------
         N            1.012770004471     1.798493573477     0.326028996804    14.003074004430
         N           -1.472509995529     0.871927573477    -0.612840003196    14.003074004430
         C            0.434148004471    -0.535919426523    -0.071253003196    12.000000000000
         C            1.512087904471     0.380633773477     0.081918696804    12.000000000000
         C           -1.018453995529    -0.261842426523    -0.026450003196    12.000000000000
         C            0.855492004471    -1.857196426523    -0.276712003196    12.000000000000
         C            2.766137004471     0.115271573477     0.114199996804    12.000000000000
         C            2.204374004471    -2.206952426523    -0.274237003196    12.000000000000
         C            3.157346004471    -1.209640426523    -0.072602003196    12.000000000000
         C           -1.894332995529    -1.163910426523     0.601325996804    12.000000000000
         C           -3.264065995529    -0.917412426523     0.581698996804    12.000000000000
         C            1.988345004471     2.869365573477     0.254814996804    12.000000000000
         C           -2.796388995529     1.103933573477    -0.610365003196    12.000000000000
         C           -3.730683995529     0.238388573477    -0.044113003196    12.000000000000
         H            0.102958004471    -2.621617426523    -0.461502003196     1.007825032230
         H            3.529669004471     0.873595573477     0.255844996804     1.007825032230
         H            0.126276004471     2.003553573477    -0.127833003196     1.007825032230
         H            2.504993004471    -3.237430426523    -0.444019003196     1.007825032230
         H            4.216812004471    -1.457093426523    -0.064287003196     1.007825032230
         H           -1.495077995529    -2.035833426523     1.110951996804     1.007825032230
         H           -3.954387995529    -1.606984426523     1.061833996804     1.007825032230
         H            2.563661004471     2.877523573477    -0.683316003196     1.007825032230
         H            2.693627004471     2.802537573477     1.088567996804     1.007825032230
         H            1.455257004471     3.817925573477     0.345623996804     1.007825032230
         H           -3.113768995529     2.027705573477    -1.091619003196     1.007825032230
         H           -4.790337995529     0.474720573477    -0.079855003196     1.007825032230

  Basis Set: AUG-CC-PVTZ
    Blend: AUG-CC-PVTZ
  Basis Set: (AUG-CC-PVTZ AUX)
    Blend: AUG-CC-PVTZ-JKFIT
	 Reference Energy          =    -570.4620219529988390 [Eh]
	 Singles Energy            =      -0.0000000000000000 [Eh]
	 Same-Spin Energy          =      -0.6389732512228986 [Eh]
	 Opposite-Spin Energy      =      -1.9769915151823347 [Eh]
	 Correlation Energy        =      -2.6159647664052335 [Eh]
	 Total Energy              =    -573.0779867194040662 [Eh]

	 ================> DF-SCS-MP2 Energies <==================
	-----------------------------------------------------------
	 SCS Same-Spin Scale       =       0.3333333333333333 [-]
	 SCS Opposite-Spin Scale   =       1.2000000000000000 [-]
	 SCS Same-Spin Energy      =      -0.2129910837409662 [Eh]
	 SCS Opposite-Spin Energy  =      -2.3723898182188017 [Eh]
	 SCS Correlation Energy    =      -2.5853809019597680 [Eh]
	 SCS Total Energy          =    -573.0474028549585910 [Eh]
	-----------------------------------------------------------

  Dipole Moment: [D]
     X:    -1.7416      Y:    -0.6935      Z:     0.2101     Total:     1.8863

*** Psi4 exiting successfully. Buy a developer a beer!
