                               Psi4 1.3.2 release

  ==> Input File <==

--------------------------------------------------------------------------
#psi4
#
memory 32 gb

molecule  {
0 1
  N        0.9996340     1.7721850     0.3204360
  N       -1.4856460     0.8456190    -0.6184330
  C        0.4210120    -0.5622280    -0.0768460
  C        1.3959190     0.4607190     0.0923330
  C       -1.0762250    -0.2994797    -0.0212916
  C        0.8423560    -1.8835050    -0.2823050
  C        2.7530010     0.0889630     0.1086070
  C        2.1912380    -2.2332610    -0.2798300
  C        3.1442100    -1.2359490    -0.0781950
  C       -1.9074690    -1.1902190     0.5957330
  C       -3.2772020    -0.9437210     0.5761060
  C        1.9752090     2.8430570     0.2492220
  C       -2.8095250     1.0776250    -0.6159580
  C       -3.7438200     0.2120800    -0.0497060
  H        0.0898220    -2.6479260    -0.4670950
  H        3.5165330     0.8472870     0.2502520
  H        0.1131400     1.9772450    -0.1334260
  H        2.4918570    -3.2637390    -0.4496120
  H        4.2036760    -1.4834020    -0.0698800
  H       -1.5082140    -2.0621420     1.1053590
  H       -3.9675240    -1.6332930     1.0562410
  H        2.5505250     2.8512150    -0.6889090
  H        2.6804910     2.7762290     1.0829750
  H        1.4421210     3.7916170     0.3400310
  H       -3.1269050     2.0013970    -1.0972120
  H       -4.8034740     0.4484120    -0.0854480
units angstrom
no_reorient  #important for SAPT in psi4, default
symmetry c1  #important for SAPT in psi4, default
}

set PROPERTIES_ORIGIN ["COM"]
properties('MP2/aug-cc-pvtz', properties = ['dipole'])
--------------------------------------------------------------------------

    Molecular point group: c1
  Charge       = 0
  Multiplicity = 1
  Basis Set: AUG-CC-PVTZ
    Blend: AUG-CC-PVTZ
  Basis Set: (AUG-CC-PVTZ AUX)
    Blend: AUG-CC-PVTZ-JKFIT

    Orbital Energies [Eh]
    ---------------------

    Doubly Occupied:

       1A    -15.570513     2A    -15.548939     3A    -11.287378
       4A    -11.283213     5A    -11.276965     6A    -11.265639
       7A    -11.247693     8A    -11.243811     9A    -11.238579
      10A    -11.235079    11A    -11.233709    12A    -11.233634
      13A    -11.218540    14A    -11.216722    15A     -1.266057
      16A     -1.227892    17A     -1.129686    18A     -1.092956
      19A     -1.059734    20A     -0.997432    21A     -0.993008
      22A     -0.913891    23A     -0.867101    24A     -0.865296
      25A     -0.804775    26A     -0.794747    27A     -0.720252
      28A     -0.696641    29A     -0.671826    30A     -0.656384
      31A     -0.650048    32A     -0.623132    33A     -0.607318
      34A     -0.600984    35A     -0.589978    36A     -0.576468
      37A     -0.565891    38A     -0.551164    39A     -0.533465
      40A     -0.526649    41A     -0.501284    42A     -0.494961
      43A     -0.486168    44A     -0.426219    45A     -0.417032
      46A     -0.388118    47A     -0.369259    48A     -0.318887
      49A     -0.278963

  @DF-RHF Final Energy:  -570.48807446326600

   => Energetics <=

    Nuclear Repulsion Energy =            818.4664110414785227
    One-Electron Energy =               -2397.1808096150157326
    Two-Electron Energy =                1008.2263241102712072
    Total Energy =                       -570.4880744632660026
  Basis Set: (AUG-CC-PVTZ AUX)
    Blend: AUG-CC-PVTZ-RI
    Molecular point group: c1

    Geometry (in Angstrom), charge = 0, multiplicity = 1:

       Center              X                  Y                   Z               Mass
    ------------   -----------------  -----------------  -----------------  -----------------
         N            1.022395286025     1.792297044959     0.324284812580    14.003074004430
         N           -1.462884713975     0.865731044959    -0.614584187420    14.003074004430
         C            0.443773286025    -0.542115955041    -0.072997187420    12.000000000000
         C            1.418680286025     0.480831044959     0.096181812580    12.000000000000
         C           -1.053463713975    -0.279367655041    -0.017442787420    12.000000000000
         C            0.865117286025    -1.863392955041    -0.278456187420    12.000000000000
         C            2.775762286025     0.109075044959     0.112455812580    12.000000000000
         C            2.213999286025    -2.213148955041    -0.275981187420    12.000000000000
         C            3.166971286025    -1.215836955041    -0.074346187420    12.000000000000
         C           -1.884707713975    -1.170106955041     0.599581812580    12.000000000000
         C           -3.254440713975    -0.923608955041     0.579954812580    12.000000000000
         C            1.997970286025     2.863169044959     0.253070812580    12.000000000000
         C           -2.786763713975     1.097737044959    -0.612109187420    12.000000000000
         C           -3.721058713975     0.232192044959    -0.045857187420    12.000000000000
         H            0.112583286025    -2.627813955041    -0.463246187420     1.007825032230
         H            3.539294286025     0.867399044959     0.254100812580     1.007825032230
         H            0.135901286025     1.997357044959    -0.129577187420     1.007825032230
         H            2.514618286025    -3.243626955041    -0.445763187420     1.007825032230
         H            4.226437286025    -1.463289955041    -0.066031187420     1.007825032230
         H           -1.485452713975    -2.042029955041     1.109207812580     1.007825032230
         H           -3.944762713975    -1.613180955041     1.060089812580     1.007825032230
         H            2.573286286025     2.871327044959    -0.685060187420     1.007825032230
         H            2.703252286025     2.796341044959     1.086823812580     1.007825032230
         H            1.464882286025     3.811729044959     0.343879812580     1.007825032230
         H           -3.104143713975     2.021509044959    -1.093363187420     1.007825032230
         H           -4.780712713975     0.468524044959    -0.081599187420     1.007825032230

  Basis Set: AUG-CC-PVTZ
    Blend: AUG-CC-PVTZ
  Basis Set: (AUG-CC-PVTZ AUX)
    Blend: AUG-CC-PVTZ-JKFIT
	 Reference Energy          =    -570.4880744632660026 [Eh]
	 Singles Energy            =      -0.0000000000000000 [Eh]
	 Same-Spin Energy          =      -0.6390055703362404 [Eh]
	 Opposite-Spin Energy      =      -1.9759002523502456 [Eh]
	 Correlation Energy        =      -2.6149058226864859 [Eh]
	 Total Energy              =    -573.1029802859525262 [Eh]

	 ================> DF-SCS-MP2 Energies <==================
	-----------------------------------------------------------
	 SCS Same-Spin Scale       =       0.3333333333333333 [-]
	 SCS Opposite-Spin Scale   =       1.2000000000000000 [-]
	 SCS Same-Spin Energy      =      -0.2130018567787468 [Eh]
	 SCS Opposite-Spin Energy  =      -2.3710803028202947 [Eh]
	 SCS Correlation Energy    =      -2.5840821595990415 [Eh]
	 SCS Total Energy          =    -573.0721566228650090 [Eh]
	-----------------------------------------------------------

  Dipole Moment: [D]
     X:    -1.9860      Y:     0.1785      Z:     0.3696     Total:     2.0280

*** Psi4 exiting successfully. Buy a developer a beer!
