                               Psi4 1.3.2 release

  ==> Input File <==

--------------------------------------------------------------------------
#psi4
#
memory 32 gb

molecule  {
0 1
  N        0.9996340     1.7721850     0.3204360
  N       -1.4856460     0.8456190    -0.6184330
  C        0.4210120    -0.5622280    -0.0768460
  C        1.3591418     0.4937472     0.0972650
  C       -1.0315900    -0.2881510    -0.0320430
  C        0.8423560    -1.8835050    -0.2823050
  C        2.7530010     0.0889630     0.1086070
  C        2.1912380    -2.2332610    -0.2798300
  C        3.1442100    -1.2359490    -0.0781950
  C       -1.9074690    -1.1902190     0.5957330
  C       -3.2772020    -0.9437210     0.5761060
  C        1.9752090     2.8430570     0.2492220
  C       -2.8095250     1.0776250    -0.6159580
  C       -3.7438200     0.2120800    -0.0497060
  H        0.0898220    -2.6479260    -0.4670950
  H        3.5165330     0.8472870     0.2502520
  H        0.1131400     1.9772450    -0.1334260
  H        2.4918570    -3.2637390    -0.4496120
  H        4.2036760    -1.4834020    -0.0698800
  H       -1.5082140    -2.0621420     1.1053590
  H       -3.9675240    -1.6332930     1.0562410
  H        2.5505250     2.8512150    -0.6889090
  H        2.6804910     2.7762290     1.0829750
  H        1.4421210     3.7916170     0.3400310
  H       -3.1269050     2.0013970    -1.0972120
  H       -4.8034740     0.4484120    -0.0854480
units angstrom
no_reorient  #important for SAPT in psi4, default
symmetry c1  #important for SAPT in psi4, default
}

set PROPERTIES_ORIGIN ["COM"]
properties('MP2/aug-cc-pvtz', properties = ['dipole'])
--------------------------------------------------------------------------

    Molecular point group: c1
  Charge       = 0
  Multiplicity = 1
  Basis Set: AUG-CC-PVTZ
    Blend: AUG-CC-PVTZ
  Basis Set: (AUG-CC-PVTZ AUX)
    Blend: AUG-CC-PVTZ-JKFIT

    Orbital Energies [Eh]
    ---------------------

    Doubly Occupied:

       1A    -15.567952     2A    -15.556293     3A    -11.288177
       4A    -11.282936     5A    -11.281026     6A    -11.262547
       7A    -11.253596     8A    -11.241449     9A    -11.240093
      10A    -11.236598    11A    -11.234502    12A    -11.230299
      13A    -11.222092    14A    -11.215472    15A     -1.265426
      16A     -1.241704    17A     -1.129632    18A     -1.088154
      19A     -1.058853    20A     -0.994421    21A     -0.992516
      22A     -0.922133    23A     -0.868807    24A     -0.859695
      25A     -0.803492    26A     -0.796455    27A     -0.720381
      28A     -0.700850    29A     -0.670462    30A     -0.658737
      31A     -0.652078    32A     -0.624305    33A     -0.613104
      34A     -0.600603    35A     -0.588425    36A     -0.574841
      37A     -0.569598    38A     -0.548329    39A     -0.535020
      40A     -0.531042    41A     -0.503437    42A     -0.498968
      43A     -0.483594    44A     -0.427480    45A     -0.417484
      46A     -0.387703    47A     -0.366352    48A     -0.315614
      49A     -0.274272

  @DF-RHF Final Energy:  -570.48616962366225

   => Energetics <=

    Nuclear Repulsion Energy =            818.7202749705555789
    One-Electron Energy =               -2397.6188909575325852
    Two-Electron Energy =                1008.4124463633146433
    Total Energy =                       -570.4861696236622493
  Basis Set: (AUG-CC-PVTZ AUX)
    Blend: AUG-CC-PVTZ-RI
    Molecular point group: c1

    Geometry (in Angstrom), charge = 0, multiplicity = 1:

       Center              X                  Y                   Z               Mass
    ------------   -----------------  -----------------  -----------------  -----------------
         N            1.021883099305     1.789405775757     0.324664132415    14.003074004430
         N           -1.463396900695     0.862839775757    -0.614204867585    14.003074004430
         C            0.443261099305    -0.545007224243    -0.072617867585    12.000000000000
         C            1.381390899305     0.510967975757     0.101493132415    12.000000000000
         C           -1.009340900695    -0.270930224243    -0.027814867585    12.000000000000
         C            0.864605099305    -1.866284224243    -0.278076867585    12.000000000000
         C            2.775250099305     0.106183775757     0.112835132415    12.000000000000
         C            2.213487099305    -2.216040224243    -0.275601867585    12.000000000000
         C            3.166459099305    -1.218728224243    -0.073966867585    12.000000000000
         C           -1.885219900695    -1.172998224243     0.599961132415    12.000000000000
         C           -3.254952900695    -0.926500224243     0.580334132415    12.000000000000
         C            1.997458099305     2.860277775757     0.253450132415    12.000000000000
         C           -2.787275900695     1.094845775757    -0.611729867585    12.000000000000
         C           -3.721570900695     0.229300775757    -0.045477867585    12.000000000000
         H            0.112071099305    -2.630705224243    -0.462866867585     1.007825032230
         H            3.538782099305     0.864507775757     0.254480132415     1.007825032230
         H            0.135389099305     1.994465775757    -0.129197867585     1.007825032230
         H            2.514106099305    -3.246518224243    -0.445383867585     1.007825032230
         H            4.225925099305    -1.466181224243    -0.065651867585     1.007825032230
         H           -1.485964900695    -2.044921224243     1.109587132415     1.007825032230
         H           -3.945274900695    -1.616072224243     1.060469132415     1.007825032230
         H            2.572774099305     2.868435775757    -0.684680867585     1.007825032230
         H            2.702740099305     2.793449775757     1.087203132415     1.007825032230
         H            1.464370099305     3.808837775757     0.344259132415     1.007825032230
         H           -3.104655900695     2.018617775757    -1.092983867585     1.007825032230
         H           -4.781224900695     0.465632775757    -0.081219867585     1.007825032230

  Basis Set: AUG-CC-PVTZ
    Blend: AUG-CC-PVTZ
  Basis Set: (AUG-CC-PVTZ AUX)
    Blend: AUG-CC-PVTZ-JKFIT
	 Reference Energy          =    -570.4861696236622493 [Eh]
	 Singles Energy            =      -0.0000000000000000 [Eh]
	 Same-Spin Energy          =      -0.6398092581726333 [Eh]
	 Opposite-Spin Energy      =      -1.9768436318369582 [Eh]
	 Correlation Energy        =      -2.6166528900095916 [Eh]
	 Total Energy              =    -573.1028225136718675 [Eh]

	 ================> DF-SCS-MP2 Energies <==================
	-----------------------------------------------------------
	 SCS Same-Spin Scale       =       0.3333333333333333 [-]
	 SCS Opposite-Spin Scale   =       1.2000000000000000 [-]
	 SCS Same-Spin Energy      =      -0.2132697527242111 [Eh]
	 SCS Opposite-Spin Energy  =      -2.3722123582043499 [Eh]
	 SCS Correlation Energy    =      -2.5854821109285613 [Eh]
	 SCS Total Energy          =    -573.0716517345907732 [Eh]
	-----------------------------------------------------------

  Dipole Moment: [D]
     X:    -1.7547      Y:     0.4729      Z:     0.4166     Total:     1.8645

*** Psi4 exiting successfully. Buy a developer a beer!
