                               Psi4 1.3.2 release

  ==> Input File <==

--------------------------------------------------------------------------
#psi4
#
memory 32 gb

molecule  {
0 1
  N        0.9996340     1.7721850     0.3204360
  N       -1.3506898     0.8734932    -0.6518918
  C        0.4210120    -0.5622280    -0.0768460
  C        1.3959190     0.4607190     0.0923330
  C       -1.0315900    -0.2881510    -0.0320430
  C        0.8423560    -1.8835050    -0.2823050
  C        2.7530010     0.0889630     0.1086070
  C        2.1912380    -2.2332610    -0.2798300
  C        3.1442100    -1.2359490    -0.0781950
  C       -1.9074690    -1.1902190     0.5957330
  C       -3.2772020    -0.9437210     0.5761060
  C        1.9752090     2.8430570     0.2492220
  C       -2.8095250     1.0776250    -0.6159580
  C       -3.7438200     0.2120800    -0.0497060
  H        0.0898220    -2.6479260    -0.4670950
  H        3.5165330     0.8472870     0.2502520
  H        0.1131400     1.9772450    -0.1334260
  H        2.4918570    -3.2637390    -0.4496120
  H        4.2036760    -1.4834020    -0.0698800
  H       -1.5082140    -2.0621420     1.1053590
  H       -3.9675240    -1.6332930     1.0562410
  H        2.5505250     2.8512150    -0.6889090
  H        2.6804910     2.7762290     1.0829750
  H        1.4421210     3.7916170     0.3400310
  H       -3.1269050     2.0013970    -1.0972120
  H       -4.8034740     0.4484120    -0.0854480
units angstrom
no_reorient  #important for SAPT in psi4, default
symmetry c1  #important for SAPT in psi4, default
}

set PROPERTIES_ORIGIN ["COM"]
properties('MP2/aug-cc-pvtz', properties = ['dipole'])
--------------------------------------------------------------------------

    Molecular point group: c1
  Charge       = 0
  Multiplicity = 1
  Basis Set: AUG-CC-PVTZ
    Blend: AUG-CC-PVTZ
  Basis Set: (AUG-CC-PVTZ AUX)
    Blend: AUG-CC-PVTZ-JKFIT

    Orbital Energies [Eh]
    ---------------------

    Doubly Occupied:

       1A    -15.584588     2A    -15.546096     3A    -11.295329
       4A    -11.292213     5A    -11.276855     6A    -11.269843
       7A    -11.248175     8A    -11.246406     9A    -11.244741
      10A    -11.235197    11A    -11.234069    12A    -11.229649
      13A    -11.218283    14A    -11.216603    15A     -1.249150
      16A     -1.219492    17A     -1.129226    18A     -1.095473
      19A     -1.051888    20A     -0.996824    21A     -0.991925
      22A     -0.914540    23A     -0.868478    24A     -0.862120
      25A     -0.797950    26A     -0.794029    27A     -0.718653
      28A     -0.694821    29A     -0.669163    30A     -0.658977
      31A     -0.644710    32A     -0.621478    33A     -0.605468
      34A     -0.600618    35A     -0.588894    36A     -0.575103
      37A     -0.565394    38A     -0.540113    39A     -0.531713
      40A     -0.524518    41A     -0.497697    42A     -0.493836
      43A     -0.490438    44A     -0.435674    45A     -0.416297
      46A     -0.391862    47A     -0.359366    48A     -0.318789
      49A     -0.278270

  @DF-RHF Final Energy:  -570.46541170377270

   => Energetics <=

    Nuclear Repulsion Energy =            817.6991743231898226
    One-Electron Energy =               -2395.6671766597819442
    Two-Electron Energy =                1007.5025906328195333
    Total Energy =                       -570.4654117037727019
  Basis Set: (AUG-CC-PVTZ AUX)
    Blend: AUG-CC-PVTZ-RI
    Molecular point group: c1

    Geometry (in Angstrom), charge = 0, multiplicity = 1:

       Center              X                  Y                   Z               Mass
    ------------   -----------------  -----------------  -----------------  -----------------
         N            1.009220810097     1.789438442313     0.327530563234    14.003074004430
         N           -1.341102989903     0.890746642313    -0.644797236766    14.003074004430
         C            0.430598810097    -0.544974557687    -0.069751436766    12.000000000000
         C            1.405505810097     0.477972442313     0.099427563234    12.000000000000
         C           -1.022003189903    -0.270897557687    -0.024948436766    12.000000000000
         C            0.851942810097    -1.866251557687    -0.275210436766    12.000000000000
         C            2.762587810097     0.106216442313     0.115701563234    12.000000000000
         C            2.200824810097    -2.216007557687    -0.272735436766    12.000000000000
         C            3.153796810097    -1.218695557687    -0.071100436766    12.000000000000
         C           -1.897882189903    -1.172965557687     0.602827563234    12.000000000000
         C           -3.267615189903    -0.926467557687     0.583200563234    12.000000000000
         C            1.984795810097     2.860310442313     0.256316563234    12.000000000000
         C           -2.799938189903     1.094878442313    -0.608863436766    12.000000000000
         C           -3.734233189903     0.229333442313    -0.042611436766    12.000000000000
         H            0.099408810097    -2.630672557687    -0.460000436766     1.007825032230
         H            3.526119810097     0.864540442313     0.257346563234     1.007825032230
         H            0.122726810097     1.994498442313    -0.126331436766     1.007825032230
         H            2.501443810097    -3.246485557687    -0.442517436766     1.007825032230
         H            4.213262810097    -1.466148557687    -0.062785436766     1.007825032230
         H           -1.498627189903    -2.044888557687     1.112453563234     1.007825032230
         H           -3.957937189903    -1.616039557687     1.063335563234     1.007825032230
         H            2.560111810097     2.868468442313    -0.681814436766     1.007825032230
         H            2.690077810097     2.793482442313     1.090069563234     1.007825032230
         H            1.451707810097     3.808870442313     0.347125563234     1.007825032230
         H           -3.117318189903     2.018650442313    -1.090117436766     1.007825032230
         H           -4.793887189903     0.465665442313    -0.078353436766     1.007825032230

  Basis Set: AUG-CC-PVTZ
    Blend: AUG-CC-PVTZ
  Basis Set: (AUG-CC-PVTZ AUX)
    Blend: AUG-CC-PVTZ-JKFIT
	 Reference Energy          =    -570.4654117037727019 [Eh]
	 Singles Energy            =      -0.0000000000000000 [Eh]
	 Same-Spin Energy          =      -0.6412536736168796 [Eh]
	 Opposite-Spin Energy      =      -1.9823609088331786 [Eh]
	 Correlation Energy        =      -2.6236145824500583 [Eh]
	 Total Energy              =    -573.0890262862227473 [Eh]

	 ================> DF-SCS-MP2 Energies <==================
	-----------------------------------------------------------
	 SCS Same-Spin Scale       =       0.3333333333333333 [-]
	 SCS Opposite-Spin Scale   =       1.2000000000000000 [-]
	 SCS Same-Spin Energy      =      -0.2137512245389598 [Eh]
	 SCS Opposite-Spin Energy  =      -2.3788330905998141 [Eh]
	 SCS Correlation Energy    =      -2.5925843151387737 [Eh]
	 SCS Total Energy          =    -573.0579960189114672 [Eh]
	-----------------------------------------------------------

  Dipole Moment: [D]
     X:    -2.0966      Y:     0.0840      Z:     0.4221     Total:     2.1403

*** Psi4 exiting successfully. Buy a developer a beer!
