                               Psi4 1.3.2 release

  ==> Input File <==

--------------------------------------------------------------------------
#psi4
#
memory 32 gb

molecule  {
0 1
  N        0.9996340     1.7721850     0.3204360
  N       -1.4856460     0.8456190    -0.6184330
  C        0.4210120    -0.5622280    -0.0768460
  C        1.3776751     0.4773513     0.0950733
  C       -1.0315900    -0.2881510    -0.0320430
  C        0.8423560    -1.8835050    -0.2823050
  C        2.7530010     0.0889630     0.1086070
  C        2.1912380    -2.2332610    -0.2798300
  C        3.1442100    -1.2359490    -0.0781950
  C       -1.9074690    -1.1902190     0.5957330
  C       -3.2772020    -0.9437210     0.5761060
  C        1.9752090     2.8430570     0.2492220
  C       -2.8095250     1.0776250    -0.6159580
  C       -3.7438200     0.2120800    -0.0497060
  H        0.0898220    -2.6479260    -0.4670950
  H        3.5165330     0.8472870     0.2502520
  H        0.1131400     1.9772450    -0.1334260
  H        2.4918570    -3.2637390    -0.4496120
  H        4.2036760    -1.4834020    -0.0698800
  H       -1.5082140    -2.0621420     1.1053590
  H       -3.9675240    -1.6332930     1.0562410
  H        2.5505250     2.8512150    -0.6889090
  H        2.6804910     2.7762290     1.0829750
  H        1.4421210     3.7916170     0.3400310
  H       -3.1269050     2.0013970    -1.0972120
  H       -4.8034740     0.4484120    -0.0854480
units angstrom
no_reorient  #important for SAPT in psi4, default
symmetry c1  #important for SAPT in psi4, default
}

set PROPERTIES_ORIGIN ["COM"]
properties('MP2/aug-cc-pvtz', properties = ['dipole'])
--------------------------------------------------------------------------

    Molecular point group: c1
  Charge       = 0
  Multiplicity = 1
  Basis Set: AUG-CC-PVTZ
    Blend: AUG-CC-PVTZ
  Basis Set: (AUG-CC-PVTZ AUX)
    Blend: AUG-CC-PVTZ-JKFIT

    Orbital Energies [Eh]
    ---------------------

    Doubly Occupied:

       1A    -15.568310     2A    -15.553356     3A    -11.289059
       4A    -11.281212     5A    -11.280958     6A    -11.262906
       7A    -11.251110     8A    -11.241967     9A    -11.240834
      10A    -11.237010    11A    -11.235220    12A    -11.231713
      13A    -11.221083    14A    -11.216947    15A     -1.263974
      16A     -1.235362    17A     -1.131049    18A     -1.088541
      19A     -1.059729    20A     -0.996285    21A     -0.992877
      22A     -0.918909    23A     -0.869911    24A     -0.859993
      25A     -0.804370    26A     -0.796290    27A     -0.720441
      28A     -0.699340    29A     -0.670548    30A     -0.658534
      31A     -0.651001    32A     -0.623043    33A     -0.610593
      34A     -0.601583    35A     -0.589139    36A     -0.575761
      37A     -0.568781    38A     -0.548449    39A     -0.534110
      40A     -0.530310    41A     -0.503435    42A     -0.498314
      43A     -0.486643    44A     -0.424904    45A     -0.417438
      46A     -0.387910    47A     -0.366815    48A     -0.316538
      49A     -0.276912

  @DF-RHF Final Energy:  -570.48874679695746

   => Energetics <=

    Nuclear Repulsion Energy =            818.6458524594329447
    One-Electron Energy =               -2397.4901686682992477
    Two-Electron Energy =                1008.3555694119088457
    Total Energy =                       -570.4887467969574573
  Basis Set: (AUG-CC-PVTZ AUX)
    Blend: AUG-CC-PVTZ-RI
    Molecular point group: c1

    Geometry (in Angstrom), charge = 0, multiplicity = 1:

       Center              X                  Y                   Z               Mass
    ------------   -----------------  -----------------  -----------------  -----------------
         N            1.020675062686     1.790474492478     0.324806991693    14.003074004430
         N           -1.464604937314     0.863908492478    -0.614062008307    14.003074004430
         C            0.442053062686    -0.543938507522    -0.072475008307    12.000000000000
         C            1.398716162686     0.495640792478     0.099444291693    12.000000000000
         C           -1.010548937314    -0.269861507522    -0.027672008307    12.000000000000
         C            0.863397062686    -1.865215507522    -0.277934008307    12.000000000000
         C            2.774042062686     0.107252492478     0.112977991693    12.000000000000
         C            2.212279062686    -2.214971507522    -0.275459008307    12.000000000000
         C            3.165251062686    -1.217659507522    -0.073824008307    12.000000000000
         C           -1.886427937314    -1.171929507522     0.600103991693    12.000000000000
         C           -3.256160937314    -0.925431507522     0.580476991693    12.000000000000
         C            1.996250062686     2.861346492478     0.253592991693    12.000000000000
         C           -2.788483937314     1.095914492478    -0.611587008307    12.000000000000
         C           -3.722778937314     0.230369492478    -0.045335008307    12.000000000000
         H            0.110863062686    -2.629636507522    -0.462724008307     1.007825032230
         H            3.537574062686     0.865576492478     0.254622991693     1.007825032230
         H            0.134181062686     1.995534492478    -0.129055008307     1.007825032230
         H            2.512898062686    -3.245449507522    -0.445241008307     1.007825032230
         H            4.224717062686    -1.465112507522    -0.065509008307     1.007825032230
         H           -1.487172937314    -2.043852507522     1.109729991693     1.007825032230
         H           -3.946482937314    -1.615003507522     1.060611991693     1.007825032230
         H            2.571566062686     2.869504492478    -0.684538008307     1.007825032230
         H            2.701532062686     2.794518492478     1.087345991693     1.007825032230
         H            1.463162062686     3.809906492478     0.344401991693     1.007825032230
         H           -3.105863937314     2.019686492478    -1.092841008307     1.007825032230
         H           -4.782432937314     0.466701492478    -0.081077008307     1.007825032230

  Basis Set: AUG-CC-PVTZ
    Blend: AUG-CC-PVTZ
  Basis Set: (AUG-CC-PVTZ AUX)
    Blend: AUG-CC-PVTZ-JKFIT
	 Reference Energy          =    -570.4887467969574573 [Eh]
	 Singles Energy            =      -0.0000000000000000 [Eh]
	 Same-Spin Energy          =      -0.6396398263428521 [Eh]
	 Opposite-Spin Energy      =      -1.9766129990141015 [Eh]
	 Correlation Energy        =      -2.6162528253569537 [Eh]
	 Total Energy              =    -573.1049996223143808 [Eh]

	 ================> DF-SCS-MP2 Energies <==================
	-----------------------------------------------------------
	 SCS Same-Spin Scale       =       0.3333333333333333 [-]
	 SCS Opposite-Spin Scale   =       1.2000000000000000 [-]
	 SCS Same-Spin Energy      =      -0.2132132754476174 [Eh]
	 SCS Opposite-Spin Energy  =      -2.3719355988169215 [Eh]
	 SCS Correlation Energy    =      -2.5851488742645388 [Eh]
	 SCS Total Energy          =    -573.0738956712219760 [Eh]
	-----------------------------------------------------------

  Dipole Moment: [D]
     X:    -1.7596      Y:     0.3165      Z:     0.3891     Total:     1.8297

*** Psi4 exiting successfully. Buy a developer a beer!
