                               Psi4 1.3.2 release

  ==> Input File <==

--------------------------------------------------------------------------
#psi4
#
memory 32 gb

molecule  {
0 1
  N        0.9996340     1.7721850     0.3204360
  N       -1.4856460     0.8456190    -0.6184330
  C        0.4210120    -0.5622280    -0.0768460
  C        1.4859043     0.4939357     0.0782877
  C       -1.0315900    -0.2881510    -0.0320430
  C        0.8423560    -1.8835050    -0.2823050
  C        2.7530010     0.0889630     0.1086070
  C        2.1912380    -2.2332610    -0.2798300
  C        3.1442100    -1.2359490    -0.0781950
  C       -1.9074690    -1.1902190     0.5957330
  C       -3.2772020    -0.9437210     0.5761060
  C        1.9752090     2.8430570     0.2492220
  C       -2.8095250     1.0776250    -0.6159580
  C       -3.7438200     0.2120800    -0.0497060
  H        0.0898220    -2.6479260    -0.4670950
  H        3.5165330     0.8472870     0.2502520
  H        0.1131400     1.9772450    -0.1334260
  H        2.4918570    -3.2637390    -0.4496120
  H        4.2036760    -1.4834020    -0.0698800
  H       -1.5082140    -2.0621420     1.1053590
  H       -3.9675240    -1.6332930     1.0562410
  H        2.5505250     2.8512150    -0.6889090
  H        2.6804910     2.7762290     1.0829750
  H        1.4421210     3.7916170     0.3400310
  H       -3.1269050     2.0013970    -1.0972120
  H       -4.8034740     0.4484120    -0.0854480
units angstrom
no_reorient  #important for SAPT in psi4, default
symmetry c1  #important for SAPT in psi4, default
}

set PROPERTIES_ORIGIN ["COM"]
properties('MP2/aug-cc-pvtz', properties = ['dipole'])
--------------------------------------------------------------------------

    Molecular point group: c1
  Charge       = 0
  Multiplicity = 1
  Basis Set: AUG-CC-PVTZ
    Blend: AUG-CC-PVTZ
  Basis Set: (AUG-CC-PVTZ AUX)
    Blend: AUG-CC-PVTZ-JKFIT

    Orbital Energies [Eh]
    ---------------------

    Doubly Occupied:

       1A    -15.568908     2A    -15.550498     3A    -11.291013
       4A    -11.281526     5A    -11.276841     6A    -11.263410
       7A    -11.245870     8A    -11.242737     9A    -11.242056
      10A    -11.241169    11A    -11.237446    12A    -11.236536
      13A    -11.219300    14A    -11.210690    15A     -1.262729
      16A     -1.229938    17A     -1.132017    18A     -1.089085
      19A     -1.061288    20A     -1.008311    21A     -0.985687
      22A     -0.914628    23A     -0.874385    24A     -0.859879
      25A     -0.807577    26A     -0.787760    27A     -0.720815
      28A     -0.702135    29A     -0.669615    30A     -0.660251
      31A     -0.646548    32A     -0.626171    33A     -0.609140
      34A     -0.604067    35A     -0.588661    36A     -0.574911
      37A     -0.565237    38A     -0.548616    39A     -0.534712
      40A     -0.527347    41A     -0.505050    42A     -0.500187
      43A     -0.477366    44A     -0.424781    45A     -0.415886
      46A     -0.388896    47A     -0.368207    48A     -0.320950
      49A     -0.278264

  @DF-RHF Final Energy:  -570.47836361636462

   => Energetics <=

    Nuclear Repulsion Energy =            817.9794237701019028
    One-Electron Energy =               -2396.1573902319328226
    Two-Electron Energy =                1007.6996028454663019
    Total Energy =                       -570.4783636163646179
  Basis Set: (AUG-CC-PVTZ AUX)
    Blend: AUG-CC-PVTZ-RI
    Molecular point group: c1

    Geometry (in Angstrom), charge = 0, multiplicity = 1:

       Center              X                  Y                   Z               Mass
    ------------   -----------------  -----------------  -----------------  -----------------
         N            1.013620472471     1.789393488960     0.325901109819    14.003074004430
         N           -1.471659527529     0.862827488960    -0.612967890181    14.003074004430
         C            0.434998472471    -0.545019511040    -0.071380890181    12.000000000000
         C            1.499890772471     0.511144188960     0.083752809819    12.000000000000
         C           -1.017603527529    -0.270942511040    -0.026577890181    12.000000000000
         C            0.856342472471    -1.866296511040    -0.276839890181    12.000000000000
         C            2.766987472471     0.106171488960     0.114072109819    12.000000000000
         C            2.205224472471    -2.216052511040    -0.274364890181    12.000000000000
         C            3.158196472471    -1.218740511040    -0.072729890181    12.000000000000
         C           -1.893482527529    -1.173010511040     0.601198109819    12.000000000000
         C           -3.263215527529    -0.926512511040     0.581571109819    12.000000000000
         C            1.989195472471     2.860265488960     0.254687109819    12.000000000000
         C           -2.795538527529     1.094833488960    -0.610492890181    12.000000000000
         C           -3.729833527529     0.229288488960    -0.044240890181    12.000000000000
         H            0.103808472471    -2.630717511040    -0.461629890181     1.007825032230
         H            3.530519472471     0.864495488960     0.255717109819     1.007825032230
         H            0.127126472471     1.994453488960    -0.127960890181     1.007825032230
         H            2.505843472471    -3.246530511040    -0.444146890181     1.007825032230
         H            4.217662472471    -1.466193511040    -0.064414890181     1.007825032230
         H           -1.494227527529    -2.044933511040     1.110824109819     1.007825032230
         H           -3.953537527529    -1.616084511040     1.061706109819     1.007825032230
         H            2.564511472471     2.868423488960    -0.683443890181     1.007825032230
         H            2.694477472471     2.793437488960     1.088440109819     1.007825032230
         H            1.456107472471     3.808825488960     0.345496109819     1.007825032230
         H           -3.112918527529     2.018605488960    -1.091746890181     1.007825032230
         H           -4.789487527529     0.465620488960    -0.079982890181     1.007825032230

  Basis Set: AUG-CC-PVTZ
    Blend: AUG-CC-PVTZ
  Basis Set: (AUG-CC-PVTZ AUX)
    Blend: AUG-CC-PVTZ-JKFIT
	 Reference Energy          =    -570.4783636163646179 [Eh]
	 Singles Energy            =      -0.0000000000000000 [Eh]
	 Same-Spin Energy          =      -0.6393648953831185 [Eh]
	 Opposite-Spin Energy      =      -1.9769945673967286 [Eh]
	 Correlation Energy        =      -2.6163594627798470 [Eh]
	 Total Energy              =    -573.0947230791445008 [Eh]

	 ================> DF-SCS-MP2 Energies <==================
	-----------------------------------------------------------
	 SCS Same-Spin Scale       =       0.3333333333333333 [-]
	 SCS Opposite-Spin Scale   =       1.2000000000000000 [-]
	 SCS Same-Spin Energy      =      -0.2131216317943728 [Eh]
	 SCS Opposite-Spin Energy  =      -2.3723934808760743 [Eh]
	 SCS Correlation Energy    =      -2.5855151126704472 [Eh]
	 SCS Total Energy          =    -573.0638787290350820 [Eh]
	-----------------------------------------------------------

  Dipole Moment: [D]
     X:    -1.7940      Y:     0.0890      Z:     0.3489     Total:     1.8298

*** Psi4 exiting successfully. Buy a developer a beer!
