                               Psi4 1.3.2 release

  ==> Input File <==

--------------------------------------------------------------------------
#psi4
#
memory 32 gb

molecule  {
0 1
  N        1.0142720     1.7569861     0.2744184
  N       -1.4856460     0.8456190    -0.6184330
  C        0.4210120    -0.5622280    -0.0768460
  C        1.3959190     0.4607190     0.0923330
  C       -1.0315900    -0.2881510    -0.0320430
  C        0.8423560    -1.8835050    -0.2823050
  C        2.7530010     0.0889630     0.1086070
  C        2.1912380    -2.2332610    -0.2798300
  C        3.1442100    -1.2359490    -0.0781950
  C       -1.9074690    -1.1902190     0.5957330
  C       -3.2772020    -0.9437210     0.5761060
  C        1.9752090     2.8430570     0.2492220
  C       -2.8095250     1.0776250    -0.6159580
  C       -3.7438200     0.2120800    -0.0497060
  H        0.0898220    -2.6479260    -0.4670950
  H        3.5165330     0.8472870     0.2502520
  H        0.1131400     1.9772450    -0.1334260
  H        2.4918570    -3.2637390    -0.4496120
  H        4.2036760    -1.4834020    -0.0698800
  H       -1.5082140    -2.0621420     1.1053590
  H       -3.9675240    -1.6332930     1.0562410
  H        2.5505250     2.8512150    -0.6889090
  H        2.6804910     2.7762290     1.0829750
  H        1.4421210     3.7916170     0.3400310
  H       -3.1269050     2.0013970    -1.0972120
  H       -4.8034740     0.4484120    -0.0854480
units angstrom
no_reorient  #important for SAPT in psi4, default
symmetry c1  #important for SAPT in psi4, default
}

set PROPERTIES_ORIGIN ["COM"]
properties('MP2/aug-cc-pvtz', properties = ['dipole'])
--------------------------------------------------------------------------

    Molecular point group: c1
  Charge       = 0
  Multiplicity = 1
  Basis Set: AUG-CC-PVTZ
    Blend: AUG-CC-PVTZ
  Basis Set: (AUG-CC-PVTZ AUX)
    Blend: AUG-CC-PVTZ-JKFIT

    Orbital Energies [Eh]
    ---------------------

    Doubly Occupied:

       1A    -15.568157     2A    -15.550805     3A    -11.289481
       4A    -11.281151     5A    -11.278495     6A    -11.262951
       7A    -11.251210     8A    -11.242042     9A    -11.241021
      10A    -11.236611    11A    -11.235059    12A    -11.230803
      13A    -11.217519    14A    -11.215612    15A     -1.263923
      16A     -1.235348    17A     -1.131328    18A     -1.088579
      19A     -1.059867    20A     -0.998302    21A     -0.992788
      22A     -0.918591    23A     -0.870716    24A     -0.859921
      25A     -0.805720    26A     -0.795895    27A     -0.721555
      28A     -0.700320    29A     -0.670699    30A     -0.658729
      31A     -0.650508    32A     -0.622918    33A     -0.609158
      34A     -0.602079    35A     -0.589242    36A     -0.576863
      37A     -0.569631    38A     -0.549071    39A     -0.534629
      40A     -0.530522    41A     -0.502907    42A     -0.499067
      43A     -0.488346    44A     -0.423039    45A     -0.417140
      46A     -0.387975    47A     -0.366975    48A     -0.316492
      49A     -0.274970

  @DF-RHF Final Energy:  -570.48999922678706

   => Energetics <=

    Nuclear Repulsion Energy =            819.2025081976985348
    One-Electron Energy =               -2398.6155578981461076
    Two-Electron Energy =                1008.9230504736605099
    Total Energy =                       -570.4899992267870630
  Basis Set: (AUG-CC-PVTZ AUX)
    Blend: AUG-CC-PVTZ-RI
    Molecular point group: c1

    Geometry (in Angstrom), charge = 0, multiplicity = 1:

       Center              X                  Y                   Z               Mass
    ------------   -----------------  -----------------  -----------------  -----------------
         N            1.033010489705     1.777515781576     0.282468214508    14.003074004430
         N           -1.466907510295     0.866148681576    -0.610383185492    14.003074004430
         C            0.439750489705    -0.541698318424    -0.068796185492    12.000000000000
         C            1.414657489705     0.481248681576     0.100382814508    12.000000000000
         C           -1.012851510295    -0.267621318424    -0.023993185492    12.000000000000
         C            0.861094489705    -1.862975318424    -0.274255185492    12.000000000000
         C            2.771739489705     0.109492681576     0.116656814508    12.000000000000
         C            2.209976489705    -2.212731318424    -0.271780185492    12.000000000000
         C            3.162948489705    -1.215419318424    -0.070145185492    12.000000000000
         C           -1.888730510295    -1.169689318424     0.603782814508    12.000000000000
         C           -3.258463510295    -0.923191318424     0.584155814508    12.000000000000
         C            1.993947489705     2.863586681576     0.257271814508    12.000000000000
         C           -2.790786510295     1.098154681576    -0.607908185492    12.000000000000
         C           -3.725081510295     0.232609681576    -0.041656185492    12.000000000000
         H            0.108560489705    -2.627396318424    -0.459045185492     1.007825032230
         H            3.535271489705     0.867816681576     0.258301814508     1.007825032230
         H            0.131878489705     1.997774681576    -0.125376185492     1.007825032230
         H            2.510595489705    -3.243209318424    -0.441562185492     1.007825032230
         H            4.222414489705    -1.462872318424    -0.061830185492     1.007825032230
         H           -1.489475510295    -2.041612318424     1.113408814508     1.007825032230
         H           -3.948785510295    -1.612763318424     1.064290814508     1.007825032230
         H            2.569263489705     2.871744681576    -0.680859185492     1.007825032230
         H            2.699229489705     2.796758681576     1.091024814508     1.007825032230
         H            1.460859489705     3.812146681576     0.348080814508     1.007825032230
         H           -3.108166510295     2.021926681576    -1.089162185492     1.007825032230
         H           -4.784735510295     0.468941681576    -0.077398185492     1.007825032230

  Basis Set: AUG-CC-PVTZ
    Blend: AUG-CC-PVTZ
  Basis Set: (AUG-CC-PVTZ AUX)
    Blend: AUG-CC-PVTZ-JKFIT
	 Reference Energy          =    -570.4899992267870630 [Eh]
	 Singles Energy            =      -0.0000000000000000 [Eh]
	 Same-Spin Energy          =      -0.6395458635290048 [Eh]
	 Opposite-Spin Energy      =      -1.9761543787215798 [Eh]
	 Correlation Energy        =      -2.6157002422505844 [Eh]
	 Total Energy              =    -573.1056994690376314 [Eh]

	 ================> DF-SCS-MP2 Energies <==================
	-----------------------------------------------------------
	 SCS Same-Spin Scale       =       0.3333333333333333 [-]
	 SCS Opposite-Spin Scale   =       1.2000000000000000 [-]
	 SCS Same-Spin Energy      =      -0.2131819545096683 [Eh]
	 SCS Opposite-Spin Energy  =      -2.3713852544658955 [Eh]
	 SCS Correlation Energy    =      -2.5845672089755638 [Eh]
	 SCS Total Energy          =    -573.0745664357626765 [Eh]
	-----------------------------------------------------------

  Dipole Moment: [D]
     X:    -1.8023      Y:     0.3966      Z:     0.4696     Total:     1.9042

*** Psi4 exiting successfully. Buy a developer a beer!
