                               Psi4 1.3.2 release

  ==> Input File <==

--------------------------------------------------------------------------
#psi4
#
memory 32 gb

molecule  {
0 1
  N        0.9996340     1.7721850     0.3204360
  N       -1.4856460     0.8456190    -0.6184330
  C        0.4210120    -0.5622280    -0.0768460
  C        1.3959190     0.4607190     0.0923330
  C       -1.0538417    -0.2939889    -0.0265772
  C        0.8423560    -1.8835050    -0.2823050
  C        2.7530010     0.0889630     0.1086070
  C        2.1912380    -2.2332610    -0.2798300
  C        3.1442100    -1.2359490    -0.0781950
  C       -1.9074690    -1.1902190     0.5957330
  C       -3.2772020    -0.9437210     0.5761060
  C        1.9752090     2.8430570     0.2492220
  C       -2.8095250     1.0776250    -0.6159580
  C       -3.7438200     0.2120800    -0.0497060
  H        0.0898220    -2.6479260    -0.4670950
  H        3.5165330     0.8472870     0.2502520
  H        0.1131400     1.9772450    -0.1334260
  H        2.4918570    -3.2637390    -0.4496120
  H        4.2036760    -1.4834020    -0.0698800
  H       -1.5082140    -2.0621420     1.1053590
  H       -3.9675240    -1.6332930     1.0562410
  H        2.5505250     2.8512150    -0.6889090
  H        2.6804910     2.7762290     1.0829750
  H        1.4421210     3.7916170     0.3400310
  H       -3.1269050     2.0013970    -1.0972120
  H       -4.8034740     0.4484120    -0.0854480
units angstrom
no_reorient  #important for SAPT in psi4, default
symmetry c1  #important for SAPT in psi4, default
}

set PROPERTIES_ORIGIN ["COM"]
properties('MP2/aug-cc-pvtz', properties = ['dipole'])
--------------------------------------------------------------------------

    Molecular point group: c1
  Charge       = 0
  Multiplicity = 1
  Basis Set: AUG-CC-PVTZ
    Blend: AUG-CC-PVTZ
  Basis Set: (AUG-CC-PVTZ AUX)
    Blend: AUG-CC-PVTZ-JKFIT

    Orbital Energies [Eh]
    ---------------------

    Doubly Occupied:

       1A    -15.569579     2A    -15.549703     3A    -11.288657
       4A    -11.282298     5A    -11.277946     6A    -11.264452
       7A    -11.248193     8A    -11.243148     9A    -11.240094
      10A    -11.236166    11A    -11.234765    12A    -11.233524
      13A    -11.219248    14A    -11.217534    15A     -1.264587
      16A     -1.228383    17A     -1.131006    18A     -1.090816
      19A     -1.060104    20A     -0.998083    21A     -0.993035
      22A     -0.914733    23A     -0.869032    24A     -0.862748
      25A     -0.805102    26A     -0.795462    27A     -0.720391
      28A     -0.697247    29A     -0.671212    30A     -0.657178
      31A     -0.650055    32A     -0.622602    33A     -0.607987
      34A     -0.601701    35A     -0.589866    36A     -0.576512
      37A     -0.566854    38A     -0.549748    39A     -0.533746
      40A     -0.527792    41A     -0.502406    42A     -0.496257
      43A     -0.487844    44A     -0.424483    45A     -0.417044
      46A     -0.388052    47A     -0.368225    48A     -0.318254
      49A     -0.279265

  @DF-RHF Final Energy:  -570.48962538540036

   => Energetics <=

    Nuclear Repulsion Energy =            818.5205080085610234
    One-Electron Energy =               -2397.2740238995743312
    Two-Electron Energy =                1008.2638905056128351
    Total Energy =                       -570.4896253854003589
  Basis Set: (AUG-CC-PVTZ AUX)
    Blend: AUG-CC-PVTZ-RI
    Molecular point group: c1

    Geometry (in Angstrom), charge = 0, multiplicity = 1:

       Center              X                  Y                   Z               Mass
    ------------   -----------------  -----------------  -----------------  -----------------
         N            1.020936298902     1.791939143912     0.324629338290    14.003074004430
         N           -1.464343701098     0.865373143912    -0.614239661710    14.003074004430
         C            0.442314298902    -0.542473856088    -0.072652661710    12.000000000000
         C            1.417221298902     0.480473143912     0.096526338290    12.000000000000
         C           -1.032539401098    -0.274234756088    -0.022383861710    12.000000000000
         C            0.863658298902    -1.863750856088    -0.278111661710    12.000000000000
         C            2.774303298902     0.108717143912     0.112800338290    12.000000000000
         C            2.212540298902    -2.213506856088    -0.275636661710    12.000000000000
         C            3.165512298902    -1.216194856088    -0.074001661710    12.000000000000
         C           -1.886166701098    -1.170464856088     0.599926338290    12.000000000000
         C           -3.255899701098    -0.923966856088     0.580299338290    12.000000000000
         C            1.996511298902     2.862811143912     0.253415338290    12.000000000000
         C           -2.788222701098     1.097379143912    -0.611764661710    12.000000000000
         C           -3.722517701098     0.231834143912    -0.045512661710    12.000000000000
         H            0.111124298902    -2.628171856088    -0.462901661710     1.007825032230
         H            3.537835298902     0.867041143912     0.254445338290     1.007825032230
         H            0.134442298902     1.996999143912    -0.129232661710     1.007825032230
         H            2.513159298902    -3.243984856088    -0.445418661710     1.007825032230
         H            4.224978298902    -1.463647856088    -0.065686661710     1.007825032230
         H           -1.486911701098    -2.042387856088     1.109552338290     1.007825032230
         H           -3.946221701098    -1.613538856088     1.060434338290     1.007825032230
         H            2.571827298902     2.870969143912    -0.684715661710     1.007825032230
         H            2.701793298902     2.795983143912     1.087168338290     1.007825032230
         H            1.463423298902     3.811371143912     0.344224338290     1.007825032230
         H           -3.105602701098     2.021151143912    -1.093018661710     1.007825032230
         H           -4.782171701098     0.468166143912    -0.081254661710     1.007825032230

  Basis Set: AUG-CC-PVTZ
    Blend: AUG-CC-PVTZ
  Basis Set: (AUG-CC-PVTZ AUX)
    Blend: AUG-CC-PVTZ-JKFIT
	 Reference Energy          =    -570.4896253854003589 [Eh]
	 Singles Energy            =      -0.0000000000000000 [Eh]
	 Same-Spin Energy          =      -0.6392235278459929 [Eh]
	 Opposite-Spin Energy      =      -1.9761246784976694 [Eh]
	 Correlation Energy        =      -2.6153482063436622 [Eh]
	 Total Energy              =    -573.1049735917440557 [Eh]

	 ================> DF-SCS-MP2 Energies <==================
	-----------------------------------------------------------
	 SCS Same-Spin Scale       =       0.3333333333333333 [-]
	 SCS Opposite-Spin Scale   =       1.2000000000000000 [-]
	 SCS Same-Spin Energy      =      -0.2130745092819976 [Eh]
	 SCS Opposite-Spin Energy  =      -2.3713496141972032 [Eh]
	 SCS Correlation Energy    =      -2.5844241234792009 [Eh]
	 SCS Total Energy          =    -573.0740495088795114 [Eh]
	-----------------------------------------------------------

  Dipole Moment: [D]
     X:    -1.8750      Y:     0.1699      Z:     0.3659     Total:     1.9179

*** Psi4 exiting successfully. Buy a developer a beer!
