                               Psi4 1.3.2 release

  ==> Input File <==

--------------------------------------------------------------------------
#psi4
#
memory 32 gb

molecule  {
0 1
  N        0.9996340     1.7721850     0.3204360
  N       -1.4856460     0.8456190    -0.6184330
  C        0.4210120    -0.5622280    -0.0768460
  C        1.3959190     0.4607190     0.0923330
  C       -1.1669365    -0.3179397    -0.0019836
  C        0.8423560    -1.8835050    -0.2823050
  C        2.7530010     0.0889630     0.1086070
  C        2.1912380    -2.2332610    -0.2798300
  C        3.1442100    -1.2359490    -0.0781950
  C       -1.9074690    -1.1902190     0.5957330
  C       -3.2772020    -0.9437210     0.5761060
  C        1.9752090     2.8430570     0.2492220
  C       -2.8095250     1.0776250    -0.6159580
  C       -3.7438200     0.2120800    -0.0497060
  H        0.0898220    -2.6479260    -0.4670950
  H        3.5165330     0.8472870     0.2502520
  H        0.1131400     1.9772450    -0.1334260
  H        2.4918570    -3.2637390    -0.4496120
  H        4.2036760    -1.4834020    -0.0698800
  H       -1.5082140    -2.0621420     1.1053590
  H       -3.9675240    -1.6332930     1.0562410
  H        2.5505250     2.8512150    -0.6889090
  H        2.6804910     2.7762290     1.0829750
  H        1.4421210     3.7916170     0.3400310
  H       -3.1269050     2.0013970    -1.0972120
  H       -4.8034740     0.4484120    -0.0854480
units angstrom
no_reorient  #important for SAPT in psi4, default
symmetry c1  #important for SAPT in psi4, default
}

set PROPERTIES_ORIGIN ["COM"]
properties('MP2/aug-cc-pvtz', properties = ['dipole'])
--------------------------------------------------------------------------

    Molecular point group: c1
  Charge       = 0
  Multiplicity = 1
  Basis Set: AUG-CC-PVTZ
    Blend: AUG-CC-PVTZ
  Basis Set: (AUG-CC-PVTZ AUX)
    Blend: AUG-CC-PVTZ-JKFIT

    Orbital Energies [Eh]
    ---------------------

    Doubly Occupied:

       1A    -15.574377     2A    -15.546102     3A    -11.286955
       4A    -11.282483     5A    -11.273155     6A    -11.270303
       7A    -11.246219     8A    -11.245810     9A    -11.234491
      10A    -11.232229    11A    -11.229808    12A    -11.229370
      13A    -11.215772    14A    -11.213615    15A     -1.273022
      16A     -1.225657    17A     -1.125114    18A     -1.103908
      19A     -1.059598    20A     -0.995259    21A     -0.991053
      22A     -0.910823    23A     -0.875397    24A     -0.859929
      25A     -0.803053    26A     -0.791683    27A     -0.721356
      28A     -0.693815    29A     -0.675856    30A     -0.655624
      31A     -0.648868    32A     -0.623169    33A     -0.604626
      34A     -0.597880    35A     -0.590968    36A     -0.575893
      37A     -0.562715    38A     -0.557933    39A     -0.531916
      40A     -0.521925    41A     -0.497663    42A     -0.489745
      43A     -0.477797    44A     -0.430273    45A     -0.415122
      46A     -0.390166    47A     -0.374084    48A     -0.320215
      49A     -0.277118

  @DF-RHF Final Energy:  -570.46728804520717

   => Energetics <=

    Nuclear Repulsion Energy =            818.3473940472106278
    One-Electron Energy =               -2396.9695405531833785
    Two-Electron Energy =                1008.1548584607655812
    Total Energy =                       -570.4672880452071695
  Basis Set: (AUG-CC-PVTZ AUX)
    Blend: AUG-CC-PVTZ-RI
    Molecular point group: c1

    Geometry (in Angstrom), charge = 0, multiplicity = 1:

       Center              X                  Y                   Z               Mass
    ------------   -----------------  -----------------  -----------------  -----------------
         N            1.028308038409     1.793500303741     0.323026279505    14.003074004430
         N           -1.456971961591     0.866934303741    -0.615842720495    14.003074004430
         C            0.449686038409    -0.540912696259    -0.074255720495    12.000000000000
         C            1.424593038409     0.482034303741     0.094923279505    12.000000000000
         C           -1.138262461591    -0.296624396259     0.000606679505    12.000000000000
         C            0.871030038409    -1.862189696259    -0.279714720495    12.000000000000
         C            2.781675038409     0.110278303741     0.111197279505    12.000000000000
         C            2.219912038409    -2.211945696259    -0.277239720495    12.000000000000
         C            3.172884038409    -1.214633696259    -0.075604720495    12.000000000000
         C           -1.878794961591    -1.168903696259     0.598323279505    12.000000000000
         C           -3.248527961591    -0.922405696259     0.578696279505    12.000000000000
         C            2.003883038409     2.864372303741     0.251812279505    12.000000000000
         C           -2.780850961591     1.098940303741    -0.613367720495    12.000000000000
         C           -3.715145961591     0.233395303741    -0.047115720495    12.000000000000
         H            0.118496038409    -2.626610696259    -0.464504720495     1.007825032230
         H            3.545207038409     0.868602303741     0.252842279505     1.007825032230
         H            0.141814038409     1.998560303741    -0.130835720495     1.007825032230
         H            2.520531038409    -3.242423696259    -0.447021720495     1.007825032230
         H            4.232350038409    -1.462086696259    -0.067289720495     1.007825032230
         H           -1.479539961591    -2.040826696259     1.107949279505     1.007825032230
         H           -3.938849961591    -1.611977696259     1.058831279505     1.007825032230
         H            2.579199038409     2.872530303741    -0.686318720495     1.007825032230
         H            2.709165038409     2.797544303741     1.085565279505     1.007825032230
         H            1.470795038409     3.812932303741     0.342621279505     1.007825032230
         H           -3.098230961591     2.022712303741    -1.094621720495     1.007825032230
         H           -4.774799961591     0.469727303741    -0.082857720495     1.007825032230

  Basis Set: AUG-CC-PVTZ
    Blend: AUG-CC-PVTZ
  Basis Set: (AUG-CC-PVTZ AUX)
    Blend: AUG-CC-PVTZ-JKFIT
	 Reference Energy          =    -570.4672880452071695 [Eh]
	 Singles Energy            =      -0.0000000000000000 [Eh]
	 Same-Spin Energy          =      -0.6385664382482446 [Eh]
	 Opposite-Spin Energy      =      -1.9759682519794552 [Eh]
	 Correlation Energy        =      -2.6145346902276998 [Eh]
	 Total Energy              =    -573.0818227354349119 [Eh]

	 ================> DF-SCS-MP2 Energies <==================
	-----------------------------------------------------------
	 SCS Same-Spin Scale       =       0.3333333333333333 [-]
	 SCS Opposite-Spin Scale   =       1.2000000000000000 [-]
	 SCS Same-Spin Energy      =      -0.2128554794160815 [Eh]
	 SCS Opposite-Spin Energy  =      -2.3711619023753463 [Eh]
	 SCS Correlation Energy    =      -2.5840173817914280 [Eh]
	 SCS Total Energy          =    -573.0513054269986242 [Eh]
	-----------------------------------------------------------

  Dipole Moment: [D]
     X:    -2.4170      Y:     0.2212      Z:     0.3810     Total:     2.4568

*** Psi4 exiting successfully. Buy a developer a beer!
