                               Psi4 1.3.2 release

  ==> Input File <==

--------------------------------------------------------------------------
#psi4
#
memory 32 gb

molecule  {
0 1
  N        0.9996340     1.7721850     0.3204360
  N       -1.5728583     0.8204669    -0.5919087
  C        0.4210120    -0.5622280    -0.0768460
  C        1.3959190     0.4607190     0.0923330
  C       -1.0315900    -0.2881510    -0.0320430
  C        0.8423560    -1.8835050    -0.2823050
  C        2.7530010     0.0889630     0.1086070
  C        2.1912380    -2.2332610    -0.2798300
  C        3.1442100    -1.2359490    -0.0781950
  C       -1.9074690    -1.1902190     0.5957330
  C       -3.2772020    -0.9437210     0.5761060
  C        1.9752090     2.8430570     0.2492220
  C       -2.8095250     1.0776250    -0.6159580
  C       -3.7438200     0.2120800    -0.0497060
  H        0.0898220    -2.6479260    -0.4670950
  H        3.5165330     0.8472870     0.2502520
  H        0.1131400     1.9772450    -0.1334260
  H        2.4918570    -3.2637390    -0.4496120
  H        4.2036760    -1.4834020    -0.0698800
  H       -1.5082140    -2.0621420     1.1053590
  H       -3.9675240    -1.6332930     1.0562410
  H        2.5505250     2.8512150    -0.6889090
  H        2.6804910     2.7762290     1.0829750
  H        1.4421210     3.7916170     0.3400310
  H       -3.1269050     2.0013970    -1.0972120
  H       -4.8034740     0.4484120    -0.0854480
units angstrom
no_reorient  #important for SAPT in psi4, default
symmetry c1  #important for SAPT in psi4, default
}

set PROPERTIES_ORIGIN ["COM"]
properties('MP2/aug-cc-pvtz', properties = ['dipole'])
--------------------------------------------------------------------------

    Molecular point group: c1
  Charge       = 0
  Multiplicity = 1
  Basis Set: AUG-CC-PVTZ
    Blend: AUG-CC-PVTZ
  Basis Set: (AUG-CC-PVTZ AUX)
    Blend: AUG-CC-PVTZ-JKFIT

    Orbital Energies [Eh]
    ---------------------

    Doubly Occupied:

       1A    -15.556451     2A    -15.553437     3A    -11.289196
       4A    -11.280230     5A    -11.270447     6A    -11.258553
       7A    -11.250317     8A    -11.239728     9A    -11.238753
      10A    -11.238458    11A    -11.237005    12A    -11.235616
      13A    -11.221110    14A    -11.219521    15A     -1.279709
      16A     -1.233048    17A     -1.134563    18A     -1.086642
      19A     -1.064522    20A     -1.000170    21A     -0.993709
      22A     -0.916625    23A     -0.876471    24A     -0.854654
      25A     -0.810989    26A     -0.797031    27A     -0.723022
      28A     -0.701234    29A     -0.671540    30A     -0.659268
      31A     -0.652045    32A     -0.622402    33A     -0.610775
      34A     -0.603859    35A     -0.590973    36A     -0.576172
      37A     -0.569696    38A     -0.556108    39A     -0.535375
      40A     -0.531122    41A     -0.507147    42A     -0.499998
      43A     -0.489626    44A     -0.421919    45A     -0.402553
      46A     -0.388748    47A     -0.370345    48A     -0.316583
      49A     -0.280019

  @DF-RHF Final Energy:  -570.48627770769497

   => Energetics <=

    Nuclear Repulsion Energy =            819.4520827934713907
    One-Electron Energy =               -2399.0417553244506053
    Two-Electron Energy =                1009.1033948232842477
    Total Energy =                       -570.4862777076949669
  Basis Set: (AUG-CC-PVTZ AUX)
    Blend: AUG-CC-PVTZ-RI
    Molecular point group: c1

    Geometry (in Angstrom), charge = 0, multiplicity = 1:

       Center              X                  Y                   Z               Mass
    ------------   -----------------  -----------------  -----------------  -----------------
         N            1.026119458273     1.793471744909     0.322968110396    14.003074004430
         N           -1.546372841727     0.841753644909    -0.589376589604    14.003074004430
         C            0.447497458273    -0.540941255091    -0.074313889604    12.000000000000
         C            1.422404458273     0.482005744909     0.094865110396    12.000000000000
         C           -1.005104541727    -0.266864255091    -0.029510889604    12.000000000000
         C            0.868841458273    -1.862218255091    -0.279772889604    12.000000000000
         C            2.779486458273     0.110249744909     0.111139110396    12.000000000000
         C            2.217723458273    -2.211974255091    -0.277297889604    12.000000000000
         C            3.170695458273    -1.214662255091    -0.075662889604    12.000000000000
         C           -1.880983541727    -1.168932255091     0.598265110396    12.000000000000
         C           -3.250716541727    -0.922434255091     0.578638110396    12.000000000000
         C            2.001694458273     2.864343744909     0.251754110396    12.000000000000
         C           -2.783039541727     1.098911744909    -0.613425889604    12.000000000000
         C           -3.717334541727     0.233366744909    -0.047173889604    12.000000000000
         H            0.116307458273    -2.626639255091    -0.464562889604     1.007825032230
         H            3.543018458273     0.868573744909     0.252784110396     1.007825032230
         H            0.139625458273     1.998531744909    -0.130893889604     1.007825032230
         H            2.518342458273    -3.242452255091    -0.447079889604     1.007825032230
         H            4.230161458273    -1.462115255091    -0.067347889604     1.007825032230
         H           -1.481728541727    -2.040855255091     1.107891110396     1.007825032230
         H           -3.941038541727    -1.612006255091     1.058773110396     1.007825032230
         H            2.577010458273     2.872501744909    -0.686376889604     1.007825032230
         H            2.706976458273     2.797515744909     1.085507110396     1.007825032230
         H            1.468606458273     3.812903744909     0.342563110396     1.007825032230
         H           -3.100419541727     2.022683744909    -1.094679889604     1.007825032230
         H           -4.776988541727     0.469698744909    -0.082915889604     1.007825032230

  Basis Set: AUG-CC-PVTZ
    Blend: AUG-CC-PVTZ
  Basis Set: (AUG-CC-PVTZ AUX)
    Blend: AUG-CC-PVTZ-JKFIT
	 Reference Energy          =    -570.4862777076949669 [Eh]
	 Singles Energy            =      -0.0000000000000000 [Eh]
	 Same-Spin Energy          =      -0.6386566769995470 [Eh]
	 Opposite-Spin Energy      =      -1.9739251192566276 [Eh]
	 Correlation Energy        =      -2.6125817962561744 [Eh]
	 Total Energy              =    -573.0988595039511893 [Eh]

	 ================> DF-SCS-MP2 Energies <==================
	-----------------------------------------------------------
	 SCS Same-Spin Scale       =       0.3333333333333333 [-]
	 SCS Opposite-Spin Scale   =       1.2000000000000000 [-]
	 SCS Same-Spin Energy      =      -0.2128855589998490 [Eh]
	 SCS Opposite-Spin Energy  =      -2.3687101431079531 [Eh]
	 SCS Correlation Energy    =      -2.5815957021078022 [Eh]
	 SCS Total Energy          =    -573.0678734098028144 [Eh]
	-----------------------------------------------------------

  Dipole Moment: [D]
     X:    -1.4787      Y:     0.2286      Z:     0.3062     Total:     1.5273

*** Psi4 exiting successfully. Buy a developer a beer!
