                               Psi4 1.4a3.dev225

  ==> Input File <==

--------------------------------------------------------------------------
#psi4
#
memory 32 gb

molecule  {
0 1
  N        0.9996340     1.7721850     0.3204360
  N       -1.4856460     0.8456190    -0.6184330
  C        0.4210120    -0.5622280    -0.0768460
  C        1.3959190     0.4607190     0.0923330
  C       -1.0512342    -0.2844445    -0.0314371
  C        0.8423560    -1.8835050    -0.2823050
  C        2.7530010     0.0889630     0.1086070
  C        2.1912380    -2.2332610    -0.2798300
  C        3.1442100    -1.2359490    -0.0781950
  C       -1.9074690    -1.1902190     0.5957330
  C       -3.2772020    -0.9437210     0.5761060
  C        1.9752090     2.8430570     0.2492220
  C       -2.8095250     1.0776250    -0.6159580
  C       -3.7438200     0.2120800    -0.0497060
  H        0.0898220    -2.6479260    -0.4670950
  H        3.5165330     0.8472870     0.2502520
  H        0.1131400     1.9772450    -0.1334260
  H        2.4918570    -3.2637390    -0.4496120
  H        4.2036760    -1.4834020    -0.0698800
  H       -1.5082140    -2.0621420     1.1053590
  H       -3.9675240    -1.6332930     1.0562410
  H        2.5505250     2.8512150    -0.6889090
  H        2.6804910     2.7762290     1.0829750
  H        1.4421210     3.7916170     0.3400310
  H       -3.1269050     2.0013970    -1.0972120
  H       -4.8034740     0.4484120    -0.0854480
units angstrom
no_reorient  #important for SAPT in psi4, default
symmetry c1  #important for SAPT in psi4, default
}

set PROPERTIES_ORIGIN ["COM"]
properties('MP2/aug-cc-pvtz', properties = ['dipole'])
--------------------------------------------------------------------------

    Molecular point group: c1
  Charge       = 0
  Multiplicity = 1
  Basis Set: AUG-CC-PVTZ
    Blend: AUG-CC-PVTZ
  Basis Set: (AUG-CC-PVTZ AUX)
    Blend: AUG-CC-PVTZ-JKFIT

    Orbital Energies [Eh]
    ---------------------

    Doubly Occupied:

       1A    -15.568980     2A    -15.549890     3A    -11.289139
       4A    -11.282098     5A    -11.277931     6A    -11.263975
       7A    -11.248315     8A    -11.243044     9A    -11.240986
      10A    -11.236449    11A    -11.234910    12A    -11.233496
      13A    -11.219314    14A    -11.217714    15A     -1.266446
      16A     -1.228686    17A     -1.131095    18A     -1.090797
      19A     -1.059492    20A     -0.998178    21A     -0.992862
      22A     -0.914834    23A     -0.869656    24A     -0.862103
      25A     -0.805375    26A     -0.795476    27A     -0.720321
      28A     -0.697665    29A     -0.670841    30A     -0.657904
      31A     -0.650169    32A     -0.622197    33A     -0.608055
      34A     -0.601755    35A     -0.589522    36A     -0.576647
      37A     -0.567123    38A     -0.550223    39A     -0.533981
      40A     -0.527838    41A     -0.502955    42A     -0.496671
      43A     -0.488292    44A     -0.423758    45A     -0.416877
      46A     -0.389036    47A     -0.367089    48A     -0.318130
      49A     -0.279357

  @DF-RHF Final Energy:  -570.49010770309860

   => Energetics <=

    Nuclear Repulsion Energy =            818.5707609587784646
    One-Electron Energy =               -2397.3664515928003311
    Two-Electron Energy =                1008.3055829309232649
    Total Energy =                       -570.4901077030986016
  Basis Set: (AUG-CC-PVTZ AUX)
    Blend: AUG-CC-PVTZ-RI
    Molecular point group: c1

    Geometry (in Angstrom), charge = 0, multiplicity = 1:

       Center              X                  Y                   Z               Mass
    ------------   -----------------  -----------------  -----------------  -----------------
         N            1.020766336969     1.791317021317     0.324946116045    14.003074004430
         N           -1.464513663031     0.864751021317    -0.613922883955    14.003074004430
         C            0.442144336969    -0.543095978683    -0.072335883955    12.000000000000
         C            1.417051336969     0.479851021317     0.096843116045    12.000000000000
         C           -1.030101863031    -0.265312478683    -0.026926983955    12.000000000000
         C            0.863488336969    -1.864372978683    -0.277794883955    12.000000000000
         C            2.774133336969     0.108095021317     0.113117116045    12.000000000000
         C            2.212370336969    -2.214128978683    -0.275319883955    12.000000000000
         C            3.165342336969    -1.216816978683    -0.073684883955    12.000000000000
         C           -1.886336663031    -1.171086978683     0.600243116045    12.000000000000
         C           -3.256069663031    -0.924588978683     0.580616116045    12.000000000000
         C            1.996341336969     2.862189021317     0.253732116045    12.000000000000
         C           -2.788392663031     1.096757021317    -0.611447883955    12.000000000000
         C           -3.722687663031     0.231212021317    -0.045195883955    12.000000000000
         H            0.110954336969    -2.628793978683    -0.462584883955     1.007825032230
         H            3.537665336969     0.866419021317     0.254762116045     1.007825032230
         H            0.134272336969     1.996377021317    -0.128915883955     1.007825032230
         H            2.512989336969    -3.244606978683    -0.445101883955     1.007825032230
         H            4.224808336969    -1.464269978683    -0.065369883955     1.007825032230
         H           -1.487081663031    -2.043009978683     1.109869116045     1.007825032230
         H           -3.946391663031    -1.614160978683     1.060751116045     1.007825032230
         H            2.571657336969     2.870347021317    -0.684398883955     1.007825032230
         H            2.701623336969     2.795361021317     1.087485116045     1.007825032230
         H            1.463253336969     3.810749021317     0.344541116045     1.007825032230
         H           -3.105772663031     2.020529021317    -1.092701883955     1.007825032230
         H           -4.782341663031     0.467544021317    -0.080937883955     1.007825032230

  Basis Set: AUG-CC-PVTZ
    Blend: AUG-CC-PVTZ
  Basis Set: (AUG-CC-PVTZ AUX)
    Blend: AUG-CC-PVTZ-JKFIT
	 Reference Energy          =    -570.4901077030986016 [Eh]
	 Singles Energy            =      -0.0000000000000000 [Eh]
	 Same-Spin Energy          =      -0.6391618985303216 [Eh]
	 Opposite-Spin Energy      =      -1.9759525516459622 [Eh]
	 Correlation Energy        =      -2.6151144501762840 [Eh]
	 Total Energy              =    -573.1052221532748945 [Eh]

	 ================> DF-SCS-MP2 Energies <==================
	-----------------------------------------------------------
	 SCS Same-Spin Scale       =       0.3333333333333333 [-]
	 SCS Opposite-Spin Scale   =       1.2000000000000000 [-]
	 SCS Same-Spin Energy      =      -0.2130539661767739 [Eh]
	 SCS Opposite-Spin Energy  =      -2.3711430619751543 [Eh]
	 SCS Correlation Energy    =      -2.5841970281519280 [Eh]
	 SCS Total Energy          =    -573.0743047312505496 [Eh]
	-----------------------------------------------------------

  Dipole Moment: [D]
     X:    -1.8589      Y:     0.1705      Z:     0.3631     Total:     1.9016

*** Psi4 exiting successfully. Buy a developer a beer!
