                               Psi4 1.3.2 release

  ==> Input File <==

--------------------------------------------------------------------------
#psi4
#
memory 32 gb

molecule  {
0 1
  N        0.9996340     1.7721850     0.3204360
  N       -1.4634804     0.8510482    -0.6246224
  C        0.4210120    -0.5622280    -0.0768460
  C        1.3959190     0.4607190     0.0923330
  C       -1.0315900    -0.2881510    -0.0320430
  C        0.8423560    -1.8835050    -0.2823050
  C        2.7530010     0.0889630     0.1086070
  C        2.1912380    -2.2332610    -0.2798300
  C        3.1442100    -1.2359490    -0.0781950
  C       -1.9074690    -1.1902190     0.5957330
  C       -3.2772020    -0.9437210     0.5761060
  C        1.9752090     2.8430570     0.2492220
  C       -2.8095250     1.0776250    -0.6159580
  C       -3.7438200     0.2120800    -0.0497060
  H        0.0898220    -2.6479260    -0.4670950
  H        3.5165330     0.8472870     0.2502520
  H        0.1131400     1.9772450    -0.1334260
  H        2.4918570    -3.2637390    -0.4496120
  H        4.2036760    -1.4834020    -0.0698800
  H       -1.5082140    -2.0621420     1.1053590
  H       -3.9675240    -1.6332930     1.0562410
  H        2.5505250     2.8512150    -0.6889090
  H        2.6804910     2.7762290     1.0829750
  H        1.4421210     3.7916170     0.3400310
  H       -3.1269050     2.0013970    -1.0972120
  H       -4.8034740     0.4484120    -0.0854480
units angstrom
no_reorient  #important for SAPT in psi4, default
symmetry c1  #important for SAPT in psi4, default
}

set PROPERTIES_ORIGIN ["COM"]
properties('MP2/aug-cc-pvtz', properties = ['dipole'])
--------------------------------------------------------------------------

    Molecular point group: c1
  Charge       = 0
  Multiplicity = 1
  Basis Set: AUG-CC-PVTZ
    Blend: AUG-CC-PVTZ
  Basis Set: (AUG-CC-PVTZ AUX)
    Blend: AUG-CC-PVTZ-JKFIT

    Orbital Energies [Eh]
    ---------------------

    Doubly Occupied:

       1A    -15.571513     2A    -15.549762     3A    -11.290208
       4A    -11.283958     5A    -11.278614     6A    -11.264381
       7A    -11.248316     8A    -11.243438     9A    -11.242045
      10A    -11.237076    11A    -11.235632    12A    -11.232503
      13A    -11.219685    14A    -11.218075    15A     -1.259987
      16A     -1.227522    17A     -1.131851    18A     -1.089832
      19A     -1.059317    20A     -0.998484    21A     -0.992651
      22A     -0.915386    23A     -0.869579    24A     -0.861621
      25A     -0.803995    26A     -0.795878    27A     -0.720253
      28A     -0.697113    29A     -0.670549    30A     -0.658276
      31A     -0.649079    32A     -0.621848    33A     -0.608086
      34A     -0.602044    35A     -0.589555    36A     -0.576401
      37A     -0.567416    38A     -0.546842    39A     -0.533569
      40A     -0.528242    41A     -0.502697    42A     -0.496761
      43A     -0.489345    44A     -0.425325    45A     -0.417272
      46A     -0.388430    47A     -0.366125    48A     -0.317769
      49A     -0.279316

  @DF-RHF Final Energy:  -570.48785287932719

   => Energetics <=

    Nuclear Repulsion Energy =            818.4011854974073685
    One-Electron Energy =               -2397.0308282306605179
    Two-Electron Energy =                1008.1417898539259568
    Total Energy =                       -570.4878528793271926
  Basis Set: (AUG-CC-PVTZ AUX)
    Blend: AUG-CC-PVTZ-RI
    Molecular point group: c1

    Geometry (in Angstrom), charge = 0, multiplicity = 1:

       Center              X                  Y                   Z               Mass
    ------------   -----------------  -----------------  -----------------  -----------------
         N            1.017799923099     1.791145660746     0.325456389818    14.003074004430
         N           -1.445314476901     0.870008860746    -0.619602010182    14.003074004430
         C            0.439177923099    -0.543267339254    -0.071825610182    12.000000000000
         C            1.414084923099     0.479679660746     0.097353389818    12.000000000000
         C           -1.013424076901    -0.269190339254    -0.027022610182    12.000000000000
         C            0.860521923099    -1.864544339254    -0.277284610182    12.000000000000
         C            2.771166923099     0.107923660746     0.113627389818    12.000000000000
         C            2.209403923099    -2.214300339254    -0.274809610182    12.000000000000
         C            3.162375923099    -1.216988339254    -0.073174610182    12.000000000000
         C           -1.889303076901    -1.171258339254     0.600753389818    12.000000000000
         C           -3.259036076901    -0.924760339254     0.581126389818    12.000000000000
         C            1.993374923099     2.862017660746     0.254242389818    12.000000000000
         C           -2.791359076901     1.096585660746    -0.610937610182    12.000000000000
         C           -3.725654076901     0.231040660746    -0.044685610182    12.000000000000
         H            0.107987923099    -2.628965339254    -0.462074610182     1.007825032230
         H            3.534698923099     0.866247660746     0.255272389818     1.007825032230
         H            0.131305923099     1.996205660746    -0.128405610182     1.007825032230
         H            2.510022923099    -3.244778339254    -0.444591610182     1.007825032230
         H            4.221841923099    -1.464441339254    -0.064859610182     1.007825032230
         H           -1.490048076901    -2.043181339254     1.110379389818     1.007825032230
         H           -3.949358076901    -1.614332339254     1.061261389818     1.007825032230
         H            2.568690923099     2.870175660746    -0.683888610182     1.007825032230
         H            2.698656923099     2.795189660746     1.087995389818     1.007825032230
         H            1.460286923099     3.810577660746     0.345051389818     1.007825032230
         H           -3.108739076901     2.020357660746    -1.092191610182     1.007825032230
         H           -4.785308076901     0.467372660746    -0.080427610182     1.007825032230

  Basis Set: AUG-CC-PVTZ
    Blend: AUG-CC-PVTZ
  Basis Set: (AUG-CC-PVTZ AUX)
    Blend: AUG-CC-PVTZ-JKFIT
	 Reference Energy          =    -570.4878528793271926 [Eh]
	 Singles Energy            =      -0.0000000000000000 [Eh]
	 Same-Spin Energy          =      -0.6397318704787132 [Eh]
	 Opposite-Spin Energy      =      -1.9772569554810551 [Eh]
	 Correlation Energy        =      -2.6169888259597682 [Eh]
	 Total Energy              =    -573.1048417052869581 [Eh]

	 ================> DF-SCS-MP2 Energies <==================
	-----------------------------------------------------------
	 SCS Same-Spin Scale       =       0.3333333333333333 [-]
	 SCS Opposite-Spin Scale   =       1.2000000000000000 [-]
	 SCS Same-Spin Energy      =      -0.2132439568262377 [Eh]
	 SCS Opposite-Spin Energy  =      -2.3727083465772658 [Eh]
	 SCS Correlation Energy    =      -2.5859523034035035 [Eh]
	 SCS Total Energy          =    -573.0738051827306663 [Eh]
	-----------------------------------------------------------

  Dipole Moment: [D]
     X:    -1.8245      Y:     0.1470      Z:     0.3741     Total:     1.8682

*** Psi4 exiting successfully. Buy a developer a beer!
