                               Psi4 1.3.2 release

  ==> Input File <==

--------------------------------------------------------------------------
#psi4
#
memory 32 gb

molecule  {
0 1
  N        0.9996340     1.7721850     0.3204360
  N       -1.4856460     0.8456190    -0.6184330
  C        0.4210120    -0.5622280    -0.0768460
  C        1.3776761     0.4773914     0.0948251
  C       -1.0315900    -0.2881510    -0.0320430
  C        0.8423560    -1.8835050    -0.2823050
  C        2.7530010     0.0889630     0.1086070
  C        2.1912380    -2.2332610    -0.2798300
  C        3.1442100    -1.2359490    -0.0781950
  C       -1.9074690    -1.1902190     0.5957330
  C       -3.2772020    -0.9437210     0.5761060
  C        1.9752090     2.8430570     0.2492220
  C       -2.8095250     1.0776250    -0.6159580
  C       -3.7438200     0.2120800    -0.0497060
  H        0.0898220    -2.6479260    -0.4670950
  H        3.5165330     0.8472870     0.2502520
  H        0.1131400     1.9772450    -0.1334260
  H        2.4918570    -3.2637390    -0.4496120
  H        4.2036760    -1.4834020    -0.0698800
  H       -1.5082140    -2.0621420     1.1053590
  H       -3.9675240    -1.6332930     1.0562410
  H        2.5505250     2.8512150    -0.6889090
  H        2.6804910     2.7762290     1.0829750
  H        1.4421210     3.7916170     0.3400310
  H       -3.1269050     2.0013970    -1.0972120
  H       -4.8034740     0.4484120    -0.0854480
units angstrom
no_reorient  #important for SAPT in psi4, default
symmetry c1  #important for SAPT in psi4, default
}

set PROPERTIES_ORIGIN ["COM"]
properties('MP2/aug-cc-pvtz', properties = ['dipole'])
--------------------------------------------------------------------------

    Molecular point group: c1
  Charge       = 0
  Multiplicity = 1
  Basis Set: AUG-CC-PVTZ
    Blend: AUG-CC-PVTZ
  Basis Set: (AUG-CC-PVTZ AUX)
    Blend: AUG-CC-PVTZ-JKFIT

    Orbital Energies [Eh]
    ---------------------

    Doubly Occupied:

       1A    -15.568310     2A    -15.553357     3A    -11.289059
       4A    -11.281212     5A    -11.280957     6A    -11.262906
       7A    -11.251109     8A    -11.241966     9A    -11.240833
      10A    -11.237010    11A    -11.235220    12A    -11.231714
      13A    -11.221086    14A    -11.216948    15A     -1.263974
      16A     -1.235364    17A     -1.131049    18A     -1.088540
      19A     -1.059728    20A     -0.996284    21A     -0.992877
      22A     -0.918910    23A     -0.869911    24A     -0.859993
      25A     -0.804369    26A     -0.796290    27A     -0.720439
      28A     -0.699337    29A     -0.670548    30A     -0.658533
      31A     -0.651000    32A     -0.623041    33A     -0.610595
      34A     -0.601583    35A     -0.589140    36A     -0.575759
      37A     -0.568781    38A     -0.548448    39A     -0.534110
      40A     -0.530310    41A     -0.503437    42A     -0.498309
      43A     -0.486642    44A     -0.424909    45A     -0.417438
      46A     -0.387911    47A     -0.366817    48A     -0.316536
      49A     -0.276913

  @DF-RHF Final Energy:  -570.48874360073012

   => Energetics <=

    Nuclear Repulsion Energy =            818.6458896180178044
    One-Electron Energy =               -2397.4902419422296589
    Two-Electron Energy =                1008.3556087234816232
    Total Energy =                       -570.4887436007301176
  Basis Set: (AUG-CC-PVTZ AUX)
    Blend: AUG-CC-PVTZ-RI
    Molecular point group: c1

    Geometry (in Angstrom), charge = 0, multiplicity = 1:

       Center              X                  Y                   Z               Mass
    ------------   -----------------  -----------------  -----------------  -----------------
         N            1.020674997504     1.790471878682     0.324823169853    14.003074004430
         N           -1.464605002496     0.863905878682    -0.614045830147    14.003074004430
         C            0.442052997504    -0.543941121318    -0.072458830147    12.000000000000
         C            1.398717097504     0.495678278682     0.099212269853    12.000000000000
         C           -1.010549002496    -0.269864121318    -0.027655830147    12.000000000000
         C            0.863396997504    -1.865218121318    -0.277917830147    12.000000000000
         C            2.774041997504     0.107249878682     0.112994169853    12.000000000000
         C            2.212278997504    -2.214974121318    -0.275442830147    12.000000000000
         C            3.165250997504    -1.217662121318    -0.073807830147    12.000000000000
         C           -1.886428002496    -1.171932121318     0.600120169853    12.000000000000
         C           -3.256161002496    -0.925434121318     0.580493169853    12.000000000000
         C            1.996249997504     2.861343878682     0.253609169853    12.000000000000
         C           -2.788484002496     1.095911878682    -0.611570830147    12.000000000000
         C           -3.722779002496     0.230366878682    -0.045318830147    12.000000000000
         H            0.110862997504    -2.629639121318    -0.462707830147     1.007825032230
         H            3.537573997504     0.865573878682     0.254639169853     1.007825032230
         H            0.134180997504     1.995531878682    -0.129038830147     1.007825032230
         H            2.512897997504    -3.245452121318    -0.445224830147     1.007825032230
         H            4.224716997504    -1.465115121318    -0.065492830147     1.007825032230
         H           -1.487173002496    -2.043855121318     1.109746169853     1.007825032230
         H           -3.946483002496    -1.615006121318     1.060628169853     1.007825032230
         H            2.571565997504     2.869501878682    -0.684521830147     1.007825032230
         H            2.701531997504     2.794515878682     1.087362169853     1.007825032230
         H            1.463161997504     3.809903878682     0.344418169853     1.007825032230
         H           -3.105864002496     2.019683878682    -1.092824830147     1.007825032230
         H           -4.782433002496     0.466698878682    -0.081060830147     1.007825032230

  Basis Set: AUG-CC-PVTZ
    Blend: AUG-CC-PVTZ
  Basis Set: (AUG-CC-PVTZ AUX)
    Blend: AUG-CC-PVTZ-JKFIT
	 Reference Energy          =    -570.4887436007301176 [Eh]
	 Singles Energy            =      -0.0000000000000000 [Eh]
	 Same-Spin Energy          =      -0.6396401300795755 [Eh]
	 Opposite-Spin Energy      =      -1.9766135607261828 [Eh]
	 Correlation Energy        =      -2.6162536908057583 [Eh]
	 Total Energy              =    -573.1049972915358239 [Eh]

	 ================> DF-SCS-MP2 Energies <==================
	-----------------------------------------------------------
	 SCS Same-Spin Scale       =       0.3333333333333333 [-]
	 SCS Opposite-Spin Scale   =       1.2000000000000000 [-]
	 SCS Same-Spin Energy      =      -0.2132133766931918 [Eh]
	 SCS Opposite-Spin Energy  =      -2.3719362728714191 [Eh]
	 SCS Correlation Energy    =      -2.5851496495646109 [Eh]
	 SCS Total Energy          =    -573.0738932502947591 [Eh]
	-----------------------------------------------------------

  Dipole Moment: [D]
     X:    -1.7595      Y:     0.3165      Z:     0.3891     Total:     1.8296

*** Psi4 exiting successfully. Buy a developer a beer!
