                               Psi4 1.3.2 release

  ==> Input File <==

--------------------------------------------------------------------------
#psi4
#
memory 32 gb

molecule  {
0 1
  N        0.9996340     1.7721850     0.3204360
  N       -1.4856460     0.8456190    -0.6184330
  C        0.4210120    -0.5622280    -0.0768460
  C        1.3959190     0.4607190     0.0923330
  C       -1.0315900    -0.2881510    -0.0320430
  C        0.8423560    -1.8835050    -0.2823050
  C        2.7530010     0.0889630     0.1086070
  C        2.1912380    -2.2332610    -0.2798300
  C        3.1442100    -1.2359490    -0.0781950
  C       -1.9074690    -1.1902190     0.5957330
  C       -3.2772020    -0.9437210     0.5761060
  C        1.9752090     2.8430570     0.2492220
  C       -2.9080237     1.0948866    -0.6157739
  C       -3.7438200     0.2120800    -0.0497060
  H        0.0898220    -2.6479260    -0.4670950
  H        3.5165330     0.8472870     0.2502520
  H        0.1131400     1.9772450    -0.1334260
  H        2.4918570    -3.2637390    -0.4496120
  H        4.2036760    -1.4834020    -0.0698800
  H       -1.5082140    -2.0621420     1.1053590
  H       -3.9675240    -1.6332930     1.0562410
  H        2.5505250     2.8512150    -0.6889090
  H        2.6804910     2.7762290     1.0829750
  H        1.4421210     3.7916170     0.3400310
  H       -3.1269050     2.0013970    -1.0972120
  H       -4.8034740     0.4484120    -0.0854480
units angstrom
no_reorient  #important for SAPT in psi4, default
symmetry c1  #important for SAPT in psi4, default
}

set PROPERTIES_ORIGIN ["COM"]
properties('MP2/aug-cc-pvtz', properties = ['dipole'])
--------------------------------------------------------------------------

    Molecular point group: c1
  Charge       = 0
  Multiplicity = 1
  Basis Set: AUG-CC-PVTZ
    Blend: AUG-CC-PVTZ
  Basis Set: (AUG-CC-PVTZ AUX)
    Blend: AUG-CC-PVTZ-JKFIT

    Orbital Energies [Eh]
    ---------------------

    Doubly Occupied:

       1A    -15.571356     2A    -15.549537     3A    -11.289825
       4A    -11.278859     5A    -11.278443     6A    -11.265059
       7A    -11.248116     8A    -11.243831     9A    -11.239301
      10A    -11.237793    11A    -11.235998    12A    -11.233070
      13A    -11.219814    14A    -11.218386    15A     -1.247079
      16A     -1.222928    17A     -1.131738    18A     -1.087773
      19A     -1.059252    20A     -1.000212    21A     -0.996378
      22A     -0.915884    23A     -0.868571    24A     -0.863451
      25A     -0.803163    26A     -0.795736    27A     -0.722406
      28A     -0.695957    29A     -0.668693    30A     -0.661304
      31A     -0.644759    32A     -0.627513    33A     -0.608388
      34A     -0.603161    35A     -0.592746    36A     -0.575022
      37A     -0.567607    38A     -0.541078    39A     -0.532524
      40A     -0.525396    41A     -0.502258    42A     -0.497206
      43A     -0.490708    44A     -0.422095    45A     -0.415111
      46A     -0.387208    47A     -0.362789    48A     -0.321139
      49A     -0.280475

  @DF-RHF Final Energy:  -570.47584048455803

   => Energetics <=

    Nuclear Repulsion Energy =            817.0135768835162935
    One-Electron Energy =               -2394.2846342348116195
    Two-Electron Energy =                1006.7952168667374053
    Total Energy =                       -570.4758404845580344
  Basis Set: (AUG-CC-PVTZ AUX)
    Blend: AUG-CC-PVTZ-RI
    Molecular point group: c1

    Geometry (in Angstrom), charge = 0, multiplicity = 1:

       Center              X                  Y                   Z               Mass
    ------------   -----------------  -----------------  -----------------  -----------------
         N            1.025906226982     1.790433473477     0.324973609792    14.003074004430
         N           -1.459373773018     0.863867473477    -0.613895390208    14.003074004430
         C            0.447284226982    -0.543979526523    -0.072308390208    12.000000000000
         C            1.422191226982     0.478967473477     0.096870609792    12.000000000000
         C           -1.005317773018    -0.269902526523    -0.027505390208    12.000000000000
         C            0.868628226982    -1.865256526523    -0.277767390208    12.000000000000
         C            2.779273226982     0.107211473477     0.113144609792    12.000000000000
         C            2.217510226982    -2.215012526523    -0.275292390208    12.000000000000
         C            3.170482226982    -1.217700526523    -0.073657390208    12.000000000000
         C           -1.881196773018    -1.171970526523     0.600270609792    12.000000000000
         C           -3.250929773018    -0.925472526523     0.580643609792    12.000000000000
         C            2.001481226982     2.861305473477     0.253759609792    12.000000000000
         C           -2.881751473018     1.113135073477    -0.611236290208    12.000000000000
         C           -3.717547773018     0.230328473477    -0.045168390208    12.000000000000
         H            0.116094226982    -2.629677526523    -0.462557390208     1.007825032230
         H            3.542805226982     0.865535473477     0.254789609792     1.007825032230
         H            0.139412226982     1.995493473477    -0.128888390208     1.007825032230
         H            2.518129226982    -3.245490526523    -0.445074390208     1.007825032230
         H            4.229948226982    -1.465153526523    -0.065342390208     1.007825032230
         H           -1.481941773018    -2.043893526523     1.109896609792     1.007825032230
         H           -3.941251773018    -1.615044526523     1.060778609792     1.007825032230
         H            2.576797226982     2.869463473477    -0.684371390208     1.007825032230
         H            2.706763226982     2.794477473477     1.087512609792     1.007825032230
         H            1.468393226982     3.809865473477     0.344568609792     1.007825032230
         H           -3.100632773018     2.019645473477    -1.092674390208     1.007825032230
         H           -4.777201773018     0.466660473477    -0.080910390208     1.007825032230

  Basis Set: AUG-CC-PVTZ
    Blend: AUG-CC-PVTZ
  Basis Set: (AUG-CC-PVTZ AUX)
    Blend: AUG-CC-PVTZ-JKFIT
	 Reference Energy          =    -570.4758404845580344 [Eh]
	 Singles Energy            =      -0.0000000000000000 [Eh]
	 Same-Spin Energy          =      -0.6399012349832750 [Eh]
	 Opposite-Spin Energy      =      -1.9789098202360305 [Eh]
	 Correlation Energy        =      -2.6188110552193056 [Eh]
	 Total Energy              =    -573.0946515397773737 [Eh]

	 ================> DF-SCS-MP2 Energies <==================
	-----------------------------------------------------------
	 SCS Same-Spin Scale       =       0.3333333333333333 [-]
	 SCS Opposite-Spin Scale   =       1.2000000000000000 [-]
	 SCS Same-Spin Energy      =      -0.2133004116610916 [Eh]
	 SCS Opposite-Spin Energy  =      -2.3746917842832365 [Eh]
	 SCS Correlation Energy    =      -2.5879921959443282 [Eh]
	 SCS Total Energy          =    -573.0638326805024008 [Eh]
	-----------------------------------------------------------

  Dipole Moment: [D]
     X:    -1.7817      Y:     0.1635      Z:     0.3668     Total:     1.8264

*** Psi4 exiting successfully. Buy a developer a beer!
