                               Psi4 1.4a3.dev225

  ==> Input File <==

--------------------------------------------------------------------------
#psi4
#
memory 32 gb

molecule  {
0 1
  N        0.9996340     1.7721850     0.3204360
  N       -1.4856460     0.8456190    -0.6184330
  C        0.4210120    -0.5622280    -0.0768460
  C        1.3959190     0.4607190     0.0923330
  C       -0.9824795    -0.2974172    -0.0335577
  C        0.8423560    -1.8835050    -0.2823050
  C        2.7530010     0.0889630     0.1086070
  C        2.1912380    -2.2332610    -0.2798300
  C        3.1442100    -1.2359490    -0.0781950
  C       -1.9074690    -1.1902190     0.5957330
  C       -3.2772020    -0.9437210     0.5761060
  C        1.9752090     2.8430570     0.2492220
  C       -2.8095250     1.0776250    -0.6159580
  C       -3.7438200     0.2120800    -0.0497060
  H        0.0898220    -2.6479260    -0.4670950
  H        3.5165330     0.8472870     0.2502520
  H        0.1131400     1.9772450    -0.1334260
  H        2.4918570    -3.2637390    -0.4496120
  H        4.2036760    -1.4834020    -0.0698800
  H       -1.5082140    -2.0621420     1.1053590
  H       -3.9675240    -1.6332930     1.0562410
  H        2.5505250     2.8512150    -0.6889090
  H        2.6804910     2.7762290     1.0829750
  H        1.4421210     3.7916170     0.3400310
  H       -3.1269050     2.0013970    -1.0972120
  H       -4.8034740     0.4484120    -0.0854480
units angstrom
no_reorient  #important for SAPT in psi4, default
symmetry c1  #important for SAPT in psi4, default
}

set PROPERTIES_ORIGIN ["COM"]
properties('MP2/aug-cc-pvtz', properties = ['dipole'])
--------------------------------------------------------------------------

    Molecular point group: c1
  Charge       = 0
  Multiplicity = 1
  Basis Set: AUG-CC-PVTZ
    Blend: AUG-CC-PVTZ
  Basis Set: (AUG-CC-PVTZ AUX)
    Blend: AUG-CC-PVTZ-JKFIT

    Orbital Energies [Eh]
    ---------------------

    Doubly Occupied:

       1A    -15.567680     2A    -15.552138     3A    -11.291968
       4A    -11.281670     5A    -11.279574     6A    -11.261370
       7A    -11.249761     8A    -11.242947     9A    -11.240767
      10A    -11.240076    11A    -11.238626    12A    -11.231632
      13A    -11.221691    14A    -11.220088    15A     -1.256332
      16A     -1.228459    17A     -1.135964    18A     -1.084454
      19A     -1.064240    20A     -1.000657    21A     -0.992068
      22A     -0.917706    23A     -0.875249    24A     -0.855113
      25A     -0.805175    26A     -0.797713    27A     -0.722456
      28A     -0.697902    29A     -0.671097    30A     -0.660345
      31A     -0.648048    32A     -0.621094    33A     -0.609930
      34A     -0.603784    35A     -0.590683    36A     -0.575968
      37A     -0.569710    38A     -0.544508    39A     -0.533835
      40A     -0.531146    41A     -0.505322    42A     -0.498866
      43A     -0.491971    44A     -0.422922    45A     -0.412846
      46A     -0.385958    47A     -0.368019    48A     -0.315895
      49A     -0.279375

  @DF-RHF Final Energy:  -570.48413907861800

   => Energetics <=

    Nuclear Repulsion Energy =            818.6495521141123390
    One-Electron Energy =               -2397.4777890002719687
    Two-Electron Energy =                1008.3440978075416297
    Total Energy =                       -570.4841390786180000
  Basis Set: (AUG-CC-PVTZ AUX)
    Blend: AUG-CC-PVTZ-RI
    Molecular point group: c1

    Geometry (in Angstrom), charge = 0, multiplicity = 1:

       Center              X                  Y                   Z               Mass
    ------------   -----------------  -----------------  -----------------  -----------------
         N            1.016284771608     1.792162607189     0.325084340887    14.003074004430
         N           -1.468995228392     0.865596607189    -0.613784659113    14.003074004430
         C            0.437662771608    -0.542250392811    -0.072197659113    12.000000000000
         C            1.412569771608     0.480696607189     0.096981340887    12.000000000000
         C           -0.965828728392    -0.277439592811    -0.028909359113    12.000000000000
         C            0.859006771608    -1.863527392811    -0.277656659113    12.000000000000
         C            2.769651771608     0.108940607189     0.113255340887    12.000000000000
         C            2.207888771608    -2.213283392811    -0.275181659113    12.000000000000
         C            3.160860771608    -1.215971392811    -0.073546659113    12.000000000000
         C           -1.890818228392    -1.170241392811     0.600381340887    12.000000000000
         C           -3.260551228392    -0.923743392811     0.580754340887    12.000000000000
         C            1.991859771608     2.863034607189     0.253870340887    12.000000000000
         C           -2.792874228392     1.097602607189    -0.611309659113    12.000000000000
         C           -3.727169228392     0.232057607189    -0.045057659113    12.000000000000
         H            0.106472771608    -2.627948392811    -0.462446659113     1.007825032230
         H            3.533183771608     0.867264607189     0.254900340887     1.007825032230
         H            0.129790771608     1.997222607189    -0.128777659113     1.007825032230
         H            2.508507771608    -3.243761392811    -0.444963659113     1.007825032230
         H            4.220326771608    -1.463424392811    -0.065231659113     1.007825032230
         H           -1.491563228392    -2.042164392811     1.110007340887     1.007825032230
         H           -3.950873228392    -1.613315392811     1.060889340887     1.007825032230
         H            2.567175771608     2.871192607189    -0.684260659113     1.007825032230
         H            2.697141771608     2.796206607189     1.087623340887     1.007825032230
         H            1.458771771608     3.811594607189     0.344679340887     1.007825032230
         H           -3.110254228392     2.021374607189    -1.092563659113     1.007825032230
         H           -4.786823228392     0.468389607189    -0.080799659113     1.007825032230

  Basis Set: AUG-CC-PVTZ
    Blend: AUG-CC-PVTZ
  Basis Set: (AUG-CC-PVTZ AUX)
    Blend: AUG-CC-PVTZ-JKFIT
	 Reference Energy          =    -570.4841390786180000 [Eh]
	 Singles Energy            =      -0.0000000000000000 [Eh]
	 Same-Spin Energy          =      -0.6404940207669877 [Eh]
	 Opposite-Spin Energy      =      -1.9780540457823730 [Eh]
	 Correlation Energy        =      -2.6185480665493608 [Eh]
	 Total Energy              =    -573.1026871451673514 [Eh]

	 ================> DF-SCS-MP2 Energies <==================
	-----------------------------------------------------------
	 SCS Same-Spin Scale       =       0.3333333333333333 [-]
	 SCS Opposite-Spin Scale   =       1.2000000000000000 [-]
	 SCS Same-Spin Energy      =      -0.2134980069223292 [Eh]
	 SCS Opposite-Spin Energy  =      -2.3736648549388475 [Eh]
	 SCS Correlation Energy    =      -2.5871628618611768 [Eh]
	 SCS Total Energy          =    -573.0713019404792021 [Eh]
	-----------------------------------------------------------

  Dipole Moment: [D]
     X:    -1.5131      Y:     0.1433      Z:     0.3593     Total:     1.5618

*** Psi4 exiting successfully. Buy a developer a beer!
