                               Psi4 1.3.2 release

  ==> Input File <==

--------------------------------------------------------------------------
#psi4
#
memory 32 gb

molecule  {
0 1
  N        0.9996340     1.7721850     0.3204360
  N       -1.4411413     0.8563085    -0.6303194
  C        0.4210120    -0.5622280    -0.0768460
  C        1.3959190     0.4607190     0.0923330
  C       -1.0315900    -0.2881510    -0.0320430
  C        0.8423560    -1.8835050    -0.2823050
  C        2.7530010     0.0889630     0.1086070
  C        2.1912380    -2.2332610    -0.2798300
  C        3.1442100    -1.2359490    -0.0781950
  C       -1.9074690    -1.1902190     0.5957330
  C       -3.2772020    -0.9437210     0.5761060
  C        1.9752090     2.8430570     0.2492220
  C       -2.8095250     1.0776250    -0.6159580
  C       -3.7438200     0.2120800    -0.0497060
  H        0.0898220    -2.6479260    -0.4670950
  H        3.5165330     0.8472870     0.2502520
  H        0.1131400     1.9772450    -0.1334260
  H        2.4918570    -3.2637390    -0.4496120
  H        4.2036760    -1.4834020    -0.0698800
  H       -1.5082140    -2.0621420     1.1053590
  H       -3.9675240    -1.6332930     1.0562410
  H        2.5505250     2.8512150    -0.6889090
  H        2.6804910     2.7762290     1.0829750
  H        1.4421210     3.7916170     0.3400310
  H       -3.1269050     2.0013970    -1.0972120
  H       -4.8034740     0.4484120    -0.0854480
units angstrom
no_reorient  #important for SAPT in psi4, default
symmetry c1  #important for SAPT in psi4, default
}

set PROPERTIES_ORIGIN ["COM"]
properties('MP2/aug-cc-pvtz', properties = ['dipole'])
--------------------------------------------------------------------------

    Molecular point group: c1
  Charge       = 0
  Multiplicity = 1
  Basis Set: AUG-CC-PVTZ
    Blend: AUG-CC-PVTZ
  Basis Set: (AUG-CC-PVTZ AUX)
    Blend: AUG-CC-PVTZ-JKFIT

    Orbital Energies [Eh]
    ---------------------

    Doubly Occupied:

       1A    -15.574301     2A    -15.549022     3A    -11.290536
       4A    -11.286445     5A    -11.278271     6A    -11.265504
       7A    -11.247924     8A    -11.244414     9A    -11.242566
      10A    -11.236716    11A    -11.235333    12A    -11.231906
      13A    -11.219401    14A    -11.217781    15A     -1.257114
      16A     -1.226094    17A     -1.131313    18A     -1.090852
      19A     -1.057909    20A     -0.998147    21A     -0.992486
      22A     -0.915180    23A     -0.868108    24A     -0.863014
      25A     -0.802637    26A     -0.795597    27A     -0.719841
      28A     -0.696506    29A     -0.670319    30A     -0.658331
      31A     -0.648233    32A     -0.621761    33A     -0.607552
      34A     -0.601735    35A     -0.589348    36A     -0.576254
      37A     -0.566986    38A     -0.545327    39A     -0.533165
      40A     -0.527565    41A     -0.501718    42A     -0.496123
      43A     -0.489443    44A     -0.427871    45A     -0.417434
      46A     -0.388908    47A     -0.364860    48A     -0.317995
      49A     -0.279132

  @DF-RHF Final Energy:  -570.48500787401804

   => Energetics <=

    Nuclear Repulsion Energy =            818.2329507178474159
    One-Electron Energy =               -2396.7059600402540127
    Two-Electron Energy =                1007.9880014483885589
    Total Energy =                       -570.4850078740180379
  Basis Set: (AUG-CC-PVTZ AUX)
    Blend: AUG-CC-PVTZ-RI
    Molecular point group: c1

    Geometry (in Angstrom), charge = 0, multiplicity = 1:

       Center              X                  Y                   Z               Mass
    ------------   -----------------  -----------------  -----------------  -----------------
         N            1.016100759664     1.790745550204     0.325889716769    14.003074004430
         N           -1.424674540336     0.874869050204    -0.624865683231    14.003074004430
         C            0.437478759664    -0.543667449796    -0.071392283231    12.000000000000
         C            1.412385759664     0.479279550204     0.097786716769    12.000000000000
         C           -1.015123240336    -0.269590449796    -0.026589283231    12.000000000000
         C            0.858822759664    -1.864944449796    -0.276851283231    12.000000000000
         C            2.769467759664     0.107523550204     0.114060716769    12.000000000000
         C            2.207704759664    -2.214700449796    -0.274376283231    12.000000000000
         C            3.160676759664    -1.217388449796    -0.072741283231    12.000000000000
         C           -1.891002240336    -1.171658449796     0.601186716769    12.000000000000
         C           -3.260735240336    -0.925160449796     0.581559716769    12.000000000000
         C            1.991675759664     2.861617550204     0.254675716769    12.000000000000
         C           -2.793058240336     1.096185550204    -0.610504283231    12.000000000000
         C           -3.727353240336     0.230640550204    -0.044252283231    12.000000000000
         H            0.106288759664    -2.629365449796    -0.461641283231     1.007825032230
         H            3.532999759664     0.865847550204     0.255705716769     1.007825032230
         H            0.129606759664     1.995805550204    -0.127972283231     1.007825032230
         H            2.508323759664    -3.245178449796    -0.444158283231     1.007825032230
         H            4.220142759664    -1.464841449796    -0.064426283231     1.007825032230
         H           -1.491747240336    -2.043581449796     1.110812716769     1.007825032230
         H           -3.951057240336    -1.614732449796     1.061694716769     1.007825032230
         H            2.566991759664     2.869775550204    -0.683455283231     1.007825032230
         H            2.696957759664     2.794789550204     1.088428716769     1.007825032230
         H            1.458587759664     3.810177550204     0.345484716769     1.007825032230
         H           -3.110438240336     2.019957550204    -1.091758283231     1.007825032230
         H           -4.787007240336     0.466972550204    -0.079994283231     1.007825032230

  Basis Set: AUG-CC-PVTZ
    Blend: AUG-CC-PVTZ
  Basis Set: (AUG-CC-PVTZ AUX)
    Blend: AUG-CC-PVTZ-JKFIT
	 Reference Energy          =    -570.4850078740180379 [Eh]
	 Singles Energy            =      -0.0000000000000000 [Eh]
	 Same-Spin Energy          =      -0.6400010238831795 [Eh]
	 Opposite-Spin Energy      =      -1.9781419515889280 [Eh]
	 Correlation Energy        =      -2.6181429754721073 [Eh]
	 Total Energy              =    -573.1031508494901345 [Eh]

	 ================> DF-SCS-MP2 Energies <==================
	-----------------------------------------------------------
	 SCS Same-Spin Scale       =       0.3333333333333333 [-]
	 SCS Opposite-Spin Scale   =       1.2000000000000000 [-]
	 SCS Same-Spin Energy      =      -0.2133336746277265 [Eh]
	 SCS Opposite-Spin Energy  =      -2.3737703419067135 [Eh]
	 SCS Correlation Energy    =      -2.5871040165344401 [Eh]
	 SCS Total Energy          =    -573.0721118905524918 [Eh]
	-----------------------------------------------------------

  Dipole Moment: [D]
     X:    -1.8839      Y:     0.1324      Z:     0.3852     Total:     1.9274

*** Psi4 exiting successfully. Buy a developer a beer!
