                               Psi4 1.3.2 release

  ==> Input File <==

--------------------------------------------------------------------------
#psi4
#
memory 32 gb

molecule  {
0 1
  N        0.9996340     1.7721850     0.3204360
  N       -1.4856460     0.8456190    -0.6184330
  C        0.4210120    -0.5622280    -0.0768460
  C        1.4315104     0.4265247     0.0866987
  C       -1.0315900    -0.2881510    -0.0320430
  C        0.8423560    -1.8835050    -0.2823050
  C        2.7530010     0.0889630     0.1086070
  C        2.1912380    -2.2332610    -0.2798300
  C        3.1442100    -1.2359490    -0.0781950
  C       -1.9074690    -1.1902190     0.5957330
  C       -3.2772020    -0.9437210     0.5761060
  C        1.9752090     2.8430570     0.2492220
  C       -2.8095250     1.0776250    -0.6159580
  C       -3.7438200     0.2120800    -0.0497060
  H        0.0898220    -2.6479260    -0.4670950
  H        3.5165330     0.8472870     0.2502520
  H        0.1131400     1.9772450    -0.1334260
  H        2.4918570    -3.2637390    -0.4496120
  H        4.2036760    -1.4834020    -0.0698800
  H       -1.5082140    -2.0621420     1.1053590
  H       -3.9675240    -1.6332930     1.0562410
  H        2.5505250     2.8512150    -0.6889090
  H        2.6804910     2.7762290     1.0829750
  H        1.4421210     3.7916170     0.3400310
  H       -3.1269050     2.0013970    -1.0972120
  H       -4.8034740     0.4484120    -0.0854480
units angstrom
no_reorient  #important for SAPT in psi4, default
symmetry c1  #important for SAPT in psi4, default
}

set PROPERTIES_ORIGIN ["COM"]
properties('MP2/aug-cc-pvtz', properties = ['dipole'])
--------------------------------------------------------------------------

    Molecular point group: c1
  Charge       = 0
  Multiplicity = 1
  Basis Set: AUG-CC-PVTZ
    Blend: AUG-CC-PVTZ
  Basis Set: (AUG-CC-PVTZ AUX)
    Blend: AUG-CC-PVTZ-JKFIT

    Orbital Energies [Eh]
    ---------------------

    Doubly Occupied:

       1A    -15.569229     2A    -15.544997     3A    -11.291591
       4A    -11.281687     5A    -11.274912     6A    -11.263860
       7A    -11.244181     8A    -11.243329     9A    -11.242843
      10A    -11.238299    11A    -11.237297    12A    -11.235812
      13A    -11.221013    14A    -11.217450    15A     -1.262679
      16A     -1.216653    17A     -1.134698    18A     -1.089559
      19A     -1.062618    20A     -1.004404    21A     -0.992789
      22A     -0.908963    23A     -0.873244    24A     -0.860485
      25A     -0.807757    26A     -0.795831    27A     -0.721700
      28A     -0.695024    29A     -0.671434    30A     -0.657709
      31A     -0.647446    32A     -0.620374    33A     -0.608783
      34A     -0.600755    35A     -0.590601    36A     -0.577429
      37A     -0.565902    38A     -0.548105    39A     -0.534427
      40A     -0.525850    41A     -0.505036    42A     -0.496884
      43A     -0.490688    44A     -0.422363    45A     -0.411280
      46A     -0.388440    47A     -0.368313    48A     -0.319773
      49A     -0.284283

  @DF-RHF Final Energy:  -570.48695144817600

   => Energetics <=

    Nuclear Repulsion Energy =            818.5011343462142577
    One-Electron Energy =               -2397.2386127007980576
    Two-Electron Energy =                1008.2505269064077993
    Total Energy =                       -570.4869514481760007
  Basis Set: (AUG-CC-PVTZ AUX)
    Blend: AUG-CC-PVTZ-RI
    Molecular point group: c1

    Geometry (in Angstrom), charge = 0, multiplicity = 1:

       Center              X                  Y                   Z               Mass
    ------------   -----------------  -----------------  -----------------  -----------------
         N            1.017165972897     1.793787469336     0.325352864445    14.003074004430
         N           -1.468114027103     0.867221469336    -0.613516135555    14.003074004430
         C            0.438543972897    -0.540625530664    -0.071929135555    12.000000000000
         C            1.449042372897     0.448127169336     0.091615564445    12.000000000000
         C           -1.014058027103    -0.266548530664    -0.027126135555    12.000000000000
         C            0.859887972897    -1.861902530664    -0.277388135555    12.000000000000
         C            2.770532972897     0.110565469336     0.113523864445    12.000000000000
         C            2.208769972897    -2.211658530664    -0.274913135555    12.000000000000
         C            3.161741972897    -1.214346530664    -0.073278135555    12.000000000000
         C           -1.889937027103    -1.168616530664     0.600649864445    12.000000000000
         C           -3.259670027103    -0.922118530664     0.581022864445    12.000000000000
         C            1.992740972897     2.864659469336     0.254138864445    12.000000000000
         C           -2.791993027103     1.099227469336    -0.611041135555    12.000000000000
         C           -3.726288027103     0.233682469336    -0.044789135555    12.000000000000
         H            0.107353972897    -2.626323530664    -0.462178135555     1.007825032230
         H            3.534064972897     0.868889469336     0.255168864445     1.007825032230
         H            0.130671972897     1.998847469336    -0.128509135555     1.007825032230
         H            2.509388972897    -3.242136530664    -0.444695135555     1.007825032230
         H            4.221207972897    -1.461799530664    -0.064963135555     1.007825032230
         H           -1.490682027103    -2.040539530664     1.110275864445     1.007825032230
         H           -3.949992027103    -1.611690530664     1.061157864445     1.007825032230
         H            2.568056972897     2.872817469336    -0.683992135555     1.007825032230
         H            2.698022972897     2.797831469336     1.087891864445     1.007825032230
         H            1.459652972897     3.813219469336     0.344947864445     1.007825032230
         H           -3.109373027103     2.022999469336    -1.092295135555     1.007825032230
         H           -4.785942027103     0.470014469336    -0.080531135555     1.007825032230

  Basis Set: AUG-CC-PVTZ
    Blend: AUG-CC-PVTZ
  Basis Set: (AUG-CC-PVTZ AUX)
    Blend: AUG-CC-PVTZ-JKFIT
	 Reference Energy          =    -570.4869514481760007 [Eh]
	 Singles Energy            =      -0.0000000000000000 [Eh]
	 Same-Spin Energy          =      -0.6392079897909795 [Eh]
	 Opposite-Spin Energy      =      -1.9763104411198766 [Eh]
	 Correlation Energy        =      -2.6155184309108561 [Eh]
	 Total Energy              =    -573.1024698790868115 [Eh]

	 ================> DF-SCS-MP2 Energies <==================
	-----------------------------------------------------------
	 SCS Same-Spin Scale       =       0.3333333333333333 [-]
	 SCS Opposite-Spin Scale   =       1.2000000000000000 [-]
	 SCS Same-Spin Energy      =      -0.2130693299303265 [Eh]
	 SCS Opposite-Spin Energy  =      -2.3715725293438519 [Eh]
	 SCS Correlation Energy    =      -2.5846418592741784 [Eh]
	 SCS Total Energy          =    -573.0715933074501436 [Eh]
	-----------------------------------------------------------

  Dipole Moment: [D]
     X:    -1.7621      Y:    -0.1376      Z:     0.3087     Total:     1.7942

*** Psi4 exiting successfully. Buy a developer a beer!
