                               Psi4 1.3.2 release

  ==> Input File <==

--------------------------------------------------------------------------
#psi4
#
memory 32 gb

molecule  {
0 1
  N        0.9996340     1.7721850     0.3204360
  N       -1.4856460     0.8456190    -0.6184330
  C        0.4210120    -0.5622280    -0.0768460
  C        1.3959190     0.4607190     0.0923330
  C       -1.0315900    -0.2881510    -0.0320430
  C        0.8423560    -1.8835050    -0.2823050
  C        2.7530010     0.0889630     0.1086070
  C        2.1912380    -2.2332610    -0.2798300
  C        3.1442100    -1.2359490    -0.0781950
  C       -1.9074690    -1.1902190     0.5957330
  C       -3.2772020    -0.9437210     0.5761060
  C        1.9752090     2.8430570     0.2492220
  C       -2.6125275     1.0431018    -0.6163263
  C       -3.7438200     0.2120800    -0.0497060
  H        0.0898220    -2.6479260    -0.4670950
  H        3.5165330     0.8472870     0.2502520
  H        0.1131400     1.9772450    -0.1334260
  H        2.4918570    -3.2637390    -0.4496120
  H        4.2036760    -1.4834020    -0.0698800
  H       -1.5082140    -2.0621420     1.1053590
  H       -3.9675240    -1.6332930     1.0562410
  H        2.5505250     2.8512150    -0.6889090
  H        2.6804910     2.7762290     1.0829750
  H        1.4421210     3.7916170     0.3400310
  H       -3.1269050     2.0013970    -1.0972120
  H       -4.8034740     0.4484120    -0.0854480
units angstrom
no_reorient  #important for SAPT in psi4, default
symmetry c1  #important for SAPT in psi4, default
}

set PROPERTIES_ORIGIN ["COM"]
properties('MP2/aug-cc-pvtz', properties = ['dipole'])
--------------------------------------------------------------------------

    Molecular point group: c1
  Charge       = 0
  Multiplicity = 1
  Basis Set: AUG-CC-PVTZ
    Blend: AUG-CC-PVTZ
  Basis Set: (AUG-CC-PVTZ AUX)
    Blend: AUG-CC-PVTZ-JKFIT

    Orbital Energies [Eh]
    ---------------------

    Doubly Occupied:

       1A    -15.556850     2A    -15.553767     3A    -11.290795
       4A    -11.281718     5A    -11.279733     6A    -11.258000
       7A    -11.250673     8A    -11.248377     9A    -11.240392
      10A    -11.237188    11A    -11.236230    12A    -11.234065
      13A    -11.220982    14A    -11.218981    15A     -1.331956
      16A     -1.234896    17A     -1.135597    18A     -1.099412
      19A     -1.057427    20A     -0.999569    21A     -0.983050
      22A     -0.916020    23A     -0.887534    24A     -0.840535
      25A     -0.812875    26A     -0.796609    27A     -0.721701
      28A     -0.701561    29A     -0.679108    30A     -0.658000
      31A     -0.652280    32A     -0.617569    33A     -0.610177
      34A     -0.600574    35A     -0.585599    36A     -0.580922
      37A     -0.578218    38A     -0.568163    39A     -0.540063
      40A     -0.532400    41A     -0.506512    42A     -0.499426
      43A     -0.483973    44A     -0.422222    45A     -0.411991
      46A     -0.396220    47A     -0.364876    48A     -0.311664
      49A     -0.277149

  @DF-RHF Final Energy:  -570.43332715093163

   => Energetics <=

    Nuclear Repulsion Energy =            822.3906666662068119
    One-Electron Energy =               -2404.6407860037138562
    Two-Electron Energy =                1011.8167921865752987
    Total Energy =                       -570.4333271509316319
  Basis Set: (AUG-CC-PVTZ AUX)
    Blend: AUG-CC-PVTZ-RI
    Molecular point group: c1

    Geometry (in Angstrom), charge = 0, multiplicity = 1:

       Center              X                  Y                   Z               Mass
    ------------   -----------------  -----------------  -----------------  -----------------
         N            1.006645208688     1.793808907679     0.325009616300    14.003074004430
         N           -1.478634791312     0.867242907679    -0.613859383700    14.003074004430
         C            0.428023208688    -0.540604092321    -0.072272383700    12.000000000000
         C            1.402930208688     0.482342907679     0.096906616300    12.000000000000
         C           -1.024578791312    -0.266527092321    -0.027469383700    12.000000000000
         C            0.849367208688    -1.861881092321    -0.277731383700    12.000000000000
         C            2.760012208688     0.110586907679     0.113180616300    12.000000000000
         C            2.198249208688    -2.211637092321    -0.275256383700    12.000000000000
         C            3.151221208688    -1.214325092321    -0.073621383700    12.000000000000
         C           -1.900457791312    -1.168595092321     0.600306616300    12.000000000000
         C           -3.270190791312    -0.922097092321     0.580679616300    12.000000000000
         C            1.982220208688     2.864680907679     0.253795616300    12.000000000000
         C           -2.605516291312     1.064725707679    -0.611752683700    12.000000000000
         C           -3.736808791312     0.233703907679    -0.045132383700    12.000000000000
         H            0.096833208688    -2.626302092321    -0.462521383700     1.007825032230
         H            3.523544208688     0.868910907679     0.254825616300     1.007825032230
         H            0.120151208688     1.998868907679    -0.128852383700     1.007825032230
         H            2.498868208688    -3.242115092321    -0.445038383700     1.007825032230
         H            4.210687208688    -1.461778092321    -0.065306383700     1.007825032230
         H           -1.501202791312    -2.040518092321     1.109932616300     1.007825032230
         H           -3.960512791312    -1.611669092321     1.060814616300     1.007825032230
         H            2.557536208688     2.872838907679    -0.684335383700     1.007825032230
         H            2.687502208688     2.797852907679     1.087548616300     1.007825032230
         H            1.449132208688     3.813240907679     0.344604616300     1.007825032230
         H           -3.119893791312     2.023020907679    -1.092638383700     1.007825032230
         H           -4.796462791312     0.470035907679    -0.080874383700     1.007825032230

  Basis Set: AUG-CC-PVTZ
    Blend: AUG-CC-PVTZ
  Basis Set: (AUG-CC-PVTZ AUX)
    Blend: AUG-CC-PVTZ-JKFIT
	 Reference Energy          =    -570.4333271509316319 [Eh]
	 Singles Energy            =      -0.0000000000000000 [Eh]
	 Same-Spin Energy          =      -0.6373925917773628 [Eh]
	 Opposite-Spin Energy      =      -1.9744381403216480 [Eh]
	 Correlation Energy        =      -2.6118307320990111 [Eh]
	 Total Energy              =    -573.0451578830306971 [Eh]

	 ================> DF-SCS-MP2 Energies <==================
	-----------------------------------------------------------
	 SCS Same-Spin Scale       =       0.3333333333333333 [-]
	 SCS Opposite-Spin Scale   =       1.2000000000000000 [-]
	 SCS Same-Spin Energy      =      -0.2124641972591209 [Eh]
	 SCS Opposite-Spin Energy  =      -2.3693257683859774 [Eh]
	 SCS Correlation Energy    =      -2.5817899656450982 [Eh]
	 SCS Total Energy          =    -573.0151171165766755 [Eh]
	-----------------------------------------------------------

  Dipole Moment: [D]
     X:    -1.4797      Y:     0.1250      Z:     0.3531     Total:     1.5263

*** Psi4 exiting successfully. Buy a developer a beer!
