                               Psi4 1.3.2 release

  ==> Input File <==

--------------------------------------------------------------------------
#psi4
#
memory 32 gb

molecule  {
0 1
  N        0.9996340     1.7721850     0.3204360
  N       -1.4856460     0.8456190    -0.6184330
  C        0.4210120    -0.5622280    -0.0768460
  C        1.3959190     0.4607190     0.0923330
  C       -1.0651049    -0.2044649    -0.0753257
  C        0.8423560    -1.8835050    -0.2823050
  C        2.7530010     0.0889630     0.1086070
  C        2.1912380    -2.2332610    -0.2798300
  C        3.1442100    -1.2359490    -0.0781950
  C       -1.9074690    -1.1902190     0.5957330
  C       -3.2772020    -0.9437210     0.5761060
  C        1.9752090     2.8430570     0.2492220
  C       -2.8095250     1.0776250    -0.6159580
  C       -3.7438200     0.2120800    -0.0497060
  H        0.0898220    -2.6479260    -0.4670950
  H        3.5165330     0.8472870     0.2502520
  H        0.1131400     1.9772450    -0.1334260
  H        2.4918570    -3.2637390    -0.4496120
  H        4.2036760    -1.4834020    -0.0698800
  H       -1.5082140    -2.0621420     1.1053590
  H       -3.9675240    -1.6332930     1.0562410
  H        2.5505250     2.8512150    -0.6889090
  H        2.6804910     2.7762290     1.0829750
  H        1.4421210     3.7916170     0.3400310
  H       -3.1269050     2.0013970    -1.0972120
  H       -4.8034740     0.4484120    -0.0854480
units angstrom
no_reorient  #important for SAPT in psi4, default
symmetry c1  #important for SAPT in psi4, default
}

set PROPERTIES_ORIGIN ["COM"]
properties('MP2/aug-cc-pvtz', properties = ['dipole'])
--------------------------------------------------------------------------

    Molecular point group: c1
  Charge       = 0
  Multiplicity = 1
  Basis Set: AUG-CC-PVTZ
    Blend: AUG-CC-PVTZ
  Basis Set: (AUG-CC-PVTZ AUX)
    Blend: AUG-CC-PVTZ-JKFIT

    Orbital Energies [Eh]
    ---------------------

    Doubly Occupied:

       1A    -15.563752     2A    -15.550430     3A    -11.290221
       4A    -11.281664     5A    -11.276066     6A    -11.261013
       7A    -11.248659     8A    -11.246415     9A    -11.243755
      10A    -11.236907    11A    -11.234245    12A    -11.233689
      13A    -11.218682    14A    -11.217920    15A     -1.291841
      16A     -1.230251    17A     -1.129628    18A     -1.095019
      19A     -1.051991    20A     -0.997881    21A     -0.991680
      22A     -0.914417    23A     -0.875439    24A     -0.857611
      25A     -0.806225    26A     -0.794423    27A     -0.719664
      28A     -0.701013    29A     -0.668390    30A     -0.663737
      31A     -0.650337    32A     -0.619724    33A     -0.607654
      34A     -0.600833    35A     -0.585971    36A     -0.578593
      37A     -0.568578    38A     -0.558768    39A     -0.535691
      40A     -0.526372    41A     -0.506940    42A     -0.497808
      43A     -0.489333    44A     -0.420385    45A     -0.411293
      46A     -0.399523    47A     -0.358309    48A     -0.317984
      49A     -0.279825

  @DF-RHF Final Energy:  -570.48130895995882

   => Energetics <=

    Nuclear Repulsion Energy =            819.0198301003306369
    One-Electron Energy =               -2398.1891815722115098
    Two-Electron Energy =                1008.6880425119220490
    Total Energy =                       -570.4813089599588238
  Basis Set: (AUG-CC-PVTZ AUX)
    Blend: AUG-CC-PVTZ-RI
    Molecular point group: c1

    Geometry (in Angstrom), charge = 0, multiplicity = 1:

       Center              X                  Y                   Z               Mass
    ------------   -----------------  -----------------  -----------------  -----------------
         N            1.021670456232     1.786103795093     0.327806860540    14.003074004430
         N           -1.463609543768     0.859537795093    -0.611062139460    14.003074004430
         C            0.443048456232    -0.548309204907    -0.069475139460    12.000000000000
         C            1.417955456232     0.474637795093     0.099703860540    12.000000000000
         C           -1.043068443768    -0.190546104907    -0.067954839460    12.000000000000
         C            0.864392456232    -1.869586204907    -0.274934139460    12.000000000000
         C            2.775037456232     0.102881795093     0.115977860540    12.000000000000
         C            2.213274456232    -2.219342204907    -0.272459139460    12.000000000000
         C            3.166246456232    -1.222030204907    -0.070824139460    12.000000000000
         C           -1.885432543768    -1.176300204907     0.603103860540    12.000000000000
         C           -3.255165543768    -0.929802204907     0.583476860540    12.000000000000
         C            1.997245456232     2.856975795093     0.256592860540    12.000000000000
         C           -2.787488543768     1.091543795093    -0.608587139460    12.000000000000
         C           -3.721783543768     0.225998795093    -0.042335139460    12.000000000000
         H            0.111858456232    -2.634007204907    -0.459724139460     1.007825032230
         H            3.538569456232     0.861205795093     0.257622860540     1.007825032230
         H            0.135176456232     1.991163795093    -0.126055139460     1.007825032230
         H            2.513893456232    -3.249820204907    -0.442241139460     1.007825032230
         H            4.225712456232    -1.469483204907    -0.062509139460     1.007825032230
         H           -1.486177543768    -2.048223204907     1.112729860540     1.007825032230
         H           -3.945487543768    -1.619374204907     1.063611860540     1.007825032230
         H            2.572561456232     2.865133795093    -0.681538139460     1.007825032230
         H            2.702527456232     2.790147795093     1.090345860540     1.007825032230
         H            1.464157456232     3.805535795093     0.347401860540     1.007825032230
         H           -3.104868543768     2.015315795093    -1.089841139460     1.007825032230
         H           -4.781437543768     0.462330795093    -0.078077139460     1.007825032230

  Basis Set: AUG-CC-PVTZ
    Blend: AUG-CC-PVTZ
  Basis Set: (AUG-CC-PVTZ AUX)
    Blend: AUG-CC-PVTZ-JKFIT
	 Reference Energy          =    -570.4813089599588238 [Eh]
	 Singles Energy            =      -0.0000000000000000 [Eh]
	 Same-Spin Energy          =      -0.6378629266688481 [Eh]
	 Opposite-Spin Energy      =      -1.9742221371983166 [Eh]
	 Correlation Energy        =      -2.6120850638671649 [Eh]
	 Total Energy              =    -573.0933940238260220 [Eh]

	 ================> DF-SCS-MP2 Energies <==================
	-----------------------------------------------------------
	 SCS Same-Spin Scale       =       0.3333333333333333 [-]
	 SCS Opposite-Spin Scale   =       1.2000000000000000 [-]
	 SCS Same-Spin Energy      =      -0.2126209755562827 [Eh]
	 SCS Opposite-Spin Energy  =      -2.3690665646379800 [Eh]
	 SCS Correlation Energy    =      -2.5816875401942627 [Eh]
	 SCS Total Energy          =    -573.0629965001530763 [Eh]
	-----------------------------------------------------------

  Dipole Moment: [D]
     X:    -1.8773      Y:     0.2150      Z:     0.3249     Total:     1.9174

*** Psi4 exiting successfully. Buy a developer a beer!
