                               Psi4 1.4a3.dev225

  ==> Input File <==

--------------------------------------------------------------------------
#psi4
#
memory 32 gb

molecule  {
0 1
  N        0.9996340     1.7721850     0.3204360
  N       -1.4856460     0.8456190    -0.6184330
  C        0.4210120    -0.5622280    -0.0768460
  C        1.3959190     0.4607190     0.0923330
  C       -1.0315900    -0.2881510    -0.0320430
  C        0.8423560    -1.8835050    -0.2823050
  C        2.7530010     0.0889630     0.1086070
  C        2.1912380    -2.2332610    -0.2798300
  C        3.1442100    -1.2359490    -0.0781950
  C       -1.9199340    -1.2030567     0.6046671
  C       -3.2772020    -0.9437210     0.5761060
  C        1.9752090     2.8430570     0.2492220
  C       -2.8095250     1.0776250    -0.6159580
  C       -3.7438200     0.2120800    -0.0497060
  H        0.0898220    -2.6479260    -0.4670950
  H        3.5165330     0.8472870     0.2502520
  H        0.1131400     1.9772450    -0.1334260
  H        2.4918570    -3.2637390    -0.4496120
  H        4.2036760    -1.4834020    -0.0698800
  H       -1.5082140    -2.0621420     1.1053590
  H       -3.9675240    -1.6332930     1.0562410
  H        2.5505250     2.8512150    -0.6889090
  H        2.6804910     2.7762290     1.0829750
  H        1.4421210     3.7916170     0.3400310
  H       -3.1269050     2.0013970    -1.0972120
  H       -4.8034740     0.4484120    -0.0854480
units angstrom
no_reorient  #important for SAPT in psi4, default
symmetry c1  #important for SAPT in psi4, default
}

set PROPERTIES_ORIGIN ["COM"]
properties('MP2/aug-cc-pvtz', properties = ['dipole'])
--------------------------------------------------------------------------

    Molecular point group: c1
  Charge       = 0
  Multiplicity = 1
  Basis Set: AUG-CC-PVTZ
    Blend: AUG-CC-PVTZ
  Basis Set: (AUG-CC-PVTZ AUX)
    Blend: AUG-CC-PVTZ-JKFIT

    Orbital Energies [Eh]
    ---------------------

    Doubly Occupied:

       1A    -15.568610     2A    -15.550799     3A    -11.292700
       4A    -11.280886     5A    -11.279479     6A    -11.261582
       7A    -11.248922     8A    -11.241906     9A    -11.241826
      10A    -11.237991    11A    -11.236417    12A    -11.233645
      13A    -11.220360    14A    -11.218769    15A     -1.262527
      16A     -1.229018    17A     -1.132713    18A     -1.089848
      19A     -1.059477    20A     -0.999200    21A     -0.992625
      22A     -0.915889    23A     -0.872143    24A     -0.858456
      25A     -0.805439    26A     -0.796293    27A     -0.720466
      28A     -0.698355    29A     -0.670785    30A     -0.659074
      31A     -0.650409    32A     -0.621330    33A     -0.608854
      34A     -0.602522    35A     -0.590166    36A     -0.575388
      37A     -0.567752    38A     -0.547775    39A     -0.535452
      40A     -0.529761    41A     -0.504101    42A     -0.498057
      43A     -0.489887    44A     -0.422901    45A     -0.415986
      46A     -0.389514    47A     -0.366212    48A     -0.317137
      49A     -0.279621

  @DF-RHF Final Energy:  -570.48926484421543

   => Energetics <=

    Nuclear Repulsion Energy =            818.2476634739899737
    One-Electron Energy =               -2396.6958100203996764
    Two-Electron Energy =                1007.9588817021941622
    Total Energy =                       -570.4892648442154268
  Basis Set: (AUG-CC-PVTZ AUX)
    Blend: AUG-CC-PVTZ-RI
    Molecular point group: c1

    Geometry (in Angstrom), charge = 0, multiplicity = 1:

       Center              X                  Y                   Z               Mass
    ------------   -----------------  -----------------  -----------------  -----------------
         N            1.020298382720     1.792395404520     0.324403267736    14.003074004430
         N           -1.464981617280     0.865829404520    -0.614465732264    14.003074004430
         C            0.441676382720    -0.542017595480    -0.072878732264    12.000000000000
         C            1.416583382720     0.480929404520     0.096300267736    12.000000000000
         C           -1.010925617280    -0.267940595480    -0.028075732264    12.000000000000
         C            0.863020382720    -1.863294595480    -0.278337732264    12.000000000000
         C            2.773665382720     0.109173404520     0.112574267736    12.000000000000
         C            2.211902382720    -2.213050595480    -0.275862732264    12.000000000000
         C            3.164874382720    -1.215738595480    -0.074227732264    12.000000000000
         C           -1.899269617280    -1.182846295480     0.608634367736    12.000000000000
         C           -3.256537617280    -0.923510595480     0.580073267736    12.000000000000
         C            1.995873382720     2.863267404520     0.253189267736    12.000000000000
         C           -2.788860617280     1.097835404520    -0.611990732264    12.000000000000
         C           -3.723155617280     0.232290404520    -0.045738732264    12.000000000000
         H            0.110486382720    -2.627715595480    -0.463127732264     1.007825032230
         H            3.537197382720     0.867497404520     0.254219267736     1.007825032230
         H            0.133804382720     1.997455404520    -0.129458732264     1.007825032230
         H            2.512521382720    -3.243528595480    -0.445644732264     1.007825032230
         H            4.224340382720    -1.463191595480    -0.065912732264     1.007825032230
         H           -1.487549617280    -2.041931595480     1.109326267736     1.007825032230
         H           -3.946859617280    -1.613082595480     1.060208267736     1.007825032230
         H            2.571189382720     2.871425404520    -0.684941732264     1.007825032230
         H            2.701155382720     2.796439404520     1.086942267736     1.007825032230
         H            1.462785382720     3.811827404520     0.343998267736     1.007825032230
         H           -3.106240617280     2.021607404520    -1.093244732264     1.007825032230
         H           -4.782809617280     0.468622404520    -0.081480732264     1.007825032230

  Basis Set: AUG-CC-PVTZ
    Blend: AUG-CC-PVTZ
  Basis Set: (AUG-CC-PVTZ AUX)
    Blend: AUG-CC-PVTZ-JKFIT
	 Reference Energy          =    -570.4892648442154268 [Eh]
	 Singles Energy            =      -0.0000000000000000 [Eh]
	 Same-Spin Energy          =      -0.6394215054926004 [Eh]
	 Opposite-Spin Energy      =      -1.9764206028536040 [Eh]
	 Correlation Energy        =      -2.6158421083462042 [Eh]
	 Total Energy              =    -573.1051069525616413 [Eh]

	 ================> DF-SCS-MP2 Energies <==================
	-----------------------------------------------------------
	 SCS Same-Spin Scale       =       0.3333333333333333 [-]
	 SCS Opposite-Spin Scale   =       1.2000000000000000 [-]
	 SCS Same-Spin Energy      =      -0.2131405018308668 [Eh]
	 SCS Opposite-Spin Energy  =      -2.3717047234243247 [Eh]
	 SCS Correlation Energy    =      -2.5848452252551914 [Eh]
	 SCS Total Energy          =    -573.0741100694706347 [Eh]
	-----------------------------------------------------------

  Dipole Moment: [D]
     X:    -1.7236      Y:     0.1609      Z:     0.3614     Total:     1.7684

*** Psi4 exiting successfully. Buy a developer a beer!
