                               Psi4 1.3.2 release

  ==> Input File <==

--------------------------------------------------------------------------
#psi4
#
memory 32 gb

molecule  {
0 1
  N        1.0229256     1.7788280     0.3214192
  N       -1.4856460     0.8456190    -0.6184330
  C        0.4210120    -0.5622280    -0.0768460
  C        1.3959190     0.4607190     0.0923330
  C       -1.0315900    -0.2881510    -0.0320430
  C        0.8423560    -1.8835050    -0.2823050
  C        2.7530010     0.0889630     0.1086070
  C        2.1912380    -2.2332610    -0.2798300
  C        3.1442100    -1.2359490    -0.0781950
  C       -1.9074690    -1.1902190     0.5957330
  C       -3.2772020    -0.9437210     0.5761060
  C        1.9752090     2.8430570     0.2492220
  C       -2.8095250     1.0776250    -0.6159580
  C       -3.7438200     0.2120800    -0.0497060
  H        0.0898220    -2.6479260    -0.4670950
  H        3.5165330     0.8472870     0.2502520
  H        0.1131400     1.9772450    -0.1334260
  H        2.4918570    -3.2637390    -0.4496120
  H        4.2036760    -1.4834020    -0.0698800
  H       -1.5082140    -2.0621420     1.1053590
  H       -3.9675240    -1.6332930     1.0562410
  H        2.5505250     2.8512150    -0.6889090
  H        2.6804910     2.7762290     1.0829750
  H        1.4421210     3.7916170     0.3400310
  H       -3.1269050     2.0013970    -1.0972120
  H       -4.8034740     0.4484120    -0.0854480
units angstrom
no_reorient  #important for SAPT in psi4, default
symmetry c1  #important for SAPT in psi4, default
}

set PROPERTIES_ORIGIN ["COM"]
properties('MP2/aug-cc-pvtz', properties = ['dipole'])
--------------------------------------------------------------------------

    Molecular point group: c1
  Charge       = 0
  Multiplicity = 1
  Basis Set: AUG-CC-PVTZ
    Blend: AUG-CC-PVTZ
  Basis Set: (AUG-CC-PVTZ AUX)
    Blend: AUG-CC-PVTZ-JKFIT

    Orbital Energies [Eh]
    ---------------------

    Doubly Occupied:

       1A    -15.569163     2A    -15.550863     3A    -11.290313
       4A    -11.281763     5A    -11.279253     6A    -11.263567
       7A    -11.247168     8A    -11.242709     9A    -11.241772
      10A    -11.237749    11A    -11.235800    12A    -11.233669
      13A    -11.219482    14A    -11.218354    15A     -1.263556
      16A     -1.230726    17A     -1.133122    18A     -1.089243
      19A     -1.060845    20A     -0.999775    21A     -0.993526
      22A     -0.914461    23A     -0.871120    24A     -0.860382
      25A     -0.805856    26A     -0.794696    27A     -0.720689
      28A     -0.696732    29A     -0.671312    30A     -0.658079
      31A     -0.651043    32A     -0.622355    33A     -0.610262
      34A     -0.602772    35A     -0.590096    36A     -0.577193
      37A     -0.570320    38A     -0.548942    39A     -0.533827
      40A     -0.527011    41A     -0.503580    42A     -0.497099
      43A     -0.489324    44A     -0.422433    45A     -0.415500
      46A     -0.388469    47A     -0.367556    48A     -0.317568
      49A     -0.279010

  @DF-RHF Final Energy:  -570.48863988852486

   => Energetics <=

    Nuclear Repulsion Energy =            818.5472583448412252
    One-Electron Energy =               -2397.2915864830015380
    Two-Electron Energy =                1008.2556882496353410
    Total Energy =                       -570.4886398885248582
  Basis Set: (AUG-CC-PVTZ AUX)
    Blend: AUG-CC-PVTZ-RI
    Molecular point group: c1

    Geometry (in Angstrom), charge = 0, multiplicity = 1:

       Center              X                  Y                   Z               Mass
    ------------   -----------------  -----------------  -----------------  -----------------
         N            1.041005876943     1.797696336320     0.325894025330    14.003074004430
         N           -1.467565723057     0.864487336320    -0.613958174670    14.003074004430
         C            0.439092276943    -0.543359663680    -0.072371174670    12.000000000000
         C            1.413999276943     0.479587336320     0.096807825330    12.000000000000
         C           -1.013509723057    -0.269282663680    -0.027568174670    12.000000000000
         C            0.860436276943    -1.864636663680    -0.277830174670    12.000000000000
         C            2.771081276943     0.107831336320     0.113081825330    12.000000000000
         C            2.209318276943    -2.214392663680    -0.275355174670    12.000000000000
         C            3.162290276943    -1.217080663680    -0.073720174670    12.000000000000
         C           -1.889388723057    -1.171350663680     0.600207825330    12.000000000000
         C           -3.259121723057    -0.924852663680     0.580580825330    12.000000000000
         C            1.993289276943     2.861925336320     0.253696825330    12.000000000000
         C           -2.791444723057     1.096493336320    -0.611483174670    12.000000000000
         C           -3.725739723057     0.230948336320    -0.045231174670    12.000000000000
         H            0.107902276943    -2.629057663680    -0.462620174670     1.007825032230
         H            3.534613276943     0.866155336320     0.254726825330     1.007825032230
         H            0.131220276943     1.996113336320    -0.128951174670     1.007825032230
         H            2.509937276943    -3.244870663680    -0.445137174670     1.007825032230
         H            4.221756276943    -1.464533663680    -0.065405174670     1.007825032230
         H           -1.490133723057    -2.043273663680     1.109833825330     1.007825032230
         H           -3.949443723057    -1.614424663680     1.060715825330     1.007825032230
         H            2.568605276943     2.870083336320    -0.684434174670     1.007825032230
         H            2.698571276943     2.795097336320     1.087449825330     1.007825032230
         H            1.460201276943     3.810485336320     0.344505825330     1.007825032230
         H           -3.108824723057     2.020265336320    -1.092737174670     1.007825032230
         H           -4.785393723057     0.467280336320    -0.080973174670     1.007825032230

  Basis Set: AUG-CC-PVTZ
    Blend: AUG-CC-PVTZ
  Basis Set: (AUG-CC-PVTZ AUX)
    Blend: AUG-CC-PVTZ-JKFIT
	 Reference Energy          =    -570.4886398885248582 [Eh]
	 Singles Energy            =      -0.0000000000000000 [Eh]
	 Same-Spin Energy          =      -0.6397080758118836 [Eh]
	 Opposite-Spin Energy      =      -1.9766199906219470 [Eh]
	 Correlation Energy        =      -2.6163280664338306 [Eh]
	 Total Energy              =    -573.1049679549587381 [Eh]

	 ================> DF-SCS-MP2 Energies <==================
	-----------------------------------------------------------
	 SCS Same-Spin Scale       =       0.3333333333333333 [-]
	 SCS Opposite-Spin Scale   =       1.2000000000000000 [-]
	 SCS Same-Spin Energy      =      -0.2132360252706278 [Eh]
	 SCS Opposite-Spin Energy  =      -2.3719439887463363 [Eh]
	 SCS Correlation Energy    =      -2.5851800140169643 [Eh]
	 SCS Total Energy          =    -573.0738199025417998 [Eh]
	-----------------------------------------------------------

  Dipole Moment: [D]
     X:    -1.8238      Y:     0.1425      Z:     0.3705     Total:     1.8665

*** Psi4 exiting successfully. Buy a developer a beer!
