                               Psi4 1.4a3.dev225

  ==> Input File <==

--------------------------------------------------------------------------
#psi4
#
memory 32 gb

molecule  {
0 1
  N        0.9996340     1.7721850     0.3204360
  N       -1.4856460     0.8456190    -0.6184330
  C        0.4210120    -0.5622280    -0.0768460
  C        1.3959190     0.4607190     0.0923330
  C       -1.0315900    -0.2881510    -0.0320430
  C        0.8423560    -1.8835050    -0.2823050
  C        2.7530010     0.0889630     0.1086070
  C        2.1912380    -2.2332610    -0.2798300
  C        3.1442100    -1.2359490    -0.0781950
  C       -1.9074690    -1.1902190     0.5957330
  C       -3.2772020    -0.9437210     0.5761060
  C        1.9752090     2.8430570     0.2492220
  C       -2.7602756     1.0689942    -0.6160501
  C       -3.7438200     0.2120800    -0.0497060
  H        0.0898220    -2.6479260    -0.4670950
  H        3.5165330     0.8472870     0.2502520
  H        0.1131400     1.9772450    -0.1334260
  H        2.4918570    -3.2637390    -0.4496120
  H        4.2036760    -1.4834020    -0.0698800
  H       -1.5082140    -2.0621420     1.1053590
  H       -3.9675240    -1.6332930     1.0562410
  H        2.5505250     2.8512150    -0.6889090
  H        2.6804910     2.7762290     1.0829750
  H        1.4421210     3.7916170     0.3400310
  H       -3.1269050     2.0013970    -1.0972120
  H       -4.8034740     0.4484120    -0.0854480
units angstrom
no_reorient  #important for SAPT in psi4, default
symmetry c1  #important for SAPT in psi4, default
}

set PROPERTIES_ORIGIN ["COM"]
properties('MP2/aug-cc-pvtz', properties = ['dipole'])
--------------------------------------------------------------------------

    Molecular point group: c1
  Charge       = 0
  Multiplicity = 1
  Basis Set: AUG-CC-PVTZ
    Blend: AUG-CC-PVTZ
  Basis Set: (AUG-CC-PVTZ AUX)
    Blend: AUG-CC-PVTZ-JKFIT

    Orbital Energies [Eh]
    ---------------------

    Doubly Occupied:

       1A    -15.566424     2A    -15.551099     3A    -11.289918
       4A    -11.282364     5A    -11.279023     6A    -11.262101
       7A    -11.249076     8A    -11.244076     9A    -11.240705
      10A    -11.237252    11A    -11.235900    12A    -11.233186
      13A    -11.220094    14A    -11.218397    15A     -1.275897
      16A     -1.230733    17A     -1.132912    18A     -1.090864
      19A     -1.060345    20A     -0.998778    21A     -0.990328
      22A     -0.915547    23A     -0.874885    24A     -0.855867
      25A     -0.806947    26A     -0.796264    27A     -0.720262
      28A     -0.698779    29A     -0.673012    30A     -0.657465
      31A     -0.651353    32A     -0.619764    33A     -0.608729
      34A     -0.601797    35A     -0.587424    36A     -0.577706
      37A     -0.568270    38A     -0.553366    39A     -0.535197
      40A     -0.530043    41A     -0.504257    42A     -0.497668
      43A     -0.488045    44A     -0.422509    45A     -0.415238
      46A     -0.392235    47A     -0.367456    48A     -0.315744
      49A     -0.278871

  @DF-RHF Final Energy:  -570.48825024436212

   => Energetics <=

    Nuclear Repulsion Energy =            819.4407507017597254
    One-Electron Energy =               -2399.0496545527244052
    Two-Electron Energy =                1009.1206536066025592
    Total Energy =                       -570.4882502443621206
  Basis Set: (AUG-CC-PVTZ AUX)
    Blend: AUG-CC-PVTZ-RI
    Molecular point group: c1

    Geometry (in Angstrom), charge = 0, multiplicity = 1:

       Center              X                  Y                   Z               Mass
    ------------   -----------------  -----------------  -----------------  -----------------
         N            1.016275717835     1.792121190578     0.324991613046    14.003074004430
         N           -1.469004282165     0.865555190578    -0.613877386954    14.003074004430
         C            0.437653717835    -0.542291809422    -0.072290386954    12.000000000000
         C            1.412560717835     0.480655190578     0.096888613046    12.000000000000
         C           -1.014948282165    -0.268214809422    -0.027487386954    12.000000000000
         C            0.858997717835    -1.863568809422    -0.277749386954    12.000000000000
         C            2.769642717835     0.108899190578     0.113162613046    12.000000000000
         C            2.207879717835    -2.213324809422    -0.275274386954    12.000000000000
         C            3.160851717835    -1.216012809422    -0.073639386954    12.000000000000
         C           -1.890827282165    -1.170282809422     0.600288613046    12.000000000000
         C           -3.260560282165    -0.923784809422     0.580661613046    12.000000000000
         C            1.991850717835     2.862993190578     0.253777613046    12.000000000000
         C           -2.743633882165     1.088930390578    -0.611494486954    12.000000000000
         C           -3.727178282165     0.232016190578    -0.045150386954    12.000000000000
         H            0.106463717835    -2.627989809422    -0.462539386954     1.007825032230
         H            3.533174717835     0.867223190578     0.254807613046     1.007825032230
         H            0.129781717835     1.997181190578    -0.128870386954     1.007825032230
         H            2.508498717835    -3.243802809422    -0.445056386954     1.007825032230
         H            4.220317717835    -1.463465809422    -0.065324386954     1.007825032230
         H           -1.491572282165    -2.042205809422     1.109914613046     1.007825032230
         H           -3.950882282165    -1.613356809422     1.060796613046     1.007825032230
         H            2.567166717835     2.871151190578    -0.684353386954     1.007825032230
         H            2.697132717835     2.796165190578     1.087530613046     1.007825032230
         H            1.458762717835     3.811553190578     0.344586613046     1.007825032230
         H           -3.110263282165     2.021333190578    -1.092656386954     1.007825032230
         H           -4.786832282165     0.468348190578    -0.080892386954     1.007825032230

  Basis Set: AUG-CC-PVTZ
    Blend: AUG-CC-PVTZ
  Basis Set: (AUG-CC-PVTZ AUX)
    Blend: AUG-CC-PVTZ-JKFIT
	 Reference Energy          =    -570.4882502443621206 [Eh]
	 Singles Energy            =      -0.0000000000000000 [Eh]
	 Same-Spin Energy          =      -0.6391035435032989 [Eh]
	 Opposite-Spin Energy      =      -1.9755619105069289 [Eh]
	 Correlation Energy        =      -2.6146654540102277 [Eh]
	 Total Energy              =    -573.1029156983723851 [Eh]

	 ================> DF-SCS-MP2 Energies <==================
	-----------------------------------------------------------
	 SCS Same-Spin Scale       =       0.3333333333333333 [-]
	 SCS Opposite-Spin Scale   =       1.2000000000000000 [-]
	 SCS Same-Spin Energy      =      -0.2130345145010996 [Eh]
	 SCS Opposite-Spin Energy  =      -2.3706742926083146 [Eh]
	 SCS Correlation Energy    =      -2.5837088071094141 [Eh]
	 SCS Total Energy          =    -573.0719590514714810 [Eh]
	-----------------------------------------------------------

  Dipole Moment: [D]
     X:    -1.7329      Y:     0.1615      Z:     0.3579     Total:     1.7768

*** Psi4 exiting successfully. Buy a developer a beer!
