                               Psi4 1.3.2 release

  ==> Input File <==

--------------------------------------------------------------------------
#psi4
#
memory 32 gb

molecule  {
0 1
  N        0.9996340     1.7721850     0.3204360
  N       -1.4856460     0.8456190    -0.6184330
  C        0.4210120    -0.5622280    -0.0768460
  C        1.2574607     0.4229160     0.1154617
  C       -1.0315900    -0.2881510    -0.0320430
  C        0.8423560    -1.8835050    -0.2823050
  C        2.7530010     0.0889630     0.1086070
  C        2.1912380    -2.2332610    -0.2798300
  C        3.1442100    -1.2359490    -0.0781950
  C       -1.9074690    -1.1902190     0.5957330
  C       -3.2772020    -0.9437210     0.5761060
  C        1.9752090     2.8430570     0.2492220
  C       -2.8095250     1.0776250    -0.6159580
  C       -3.7438200     0.2120800    -0.0497060
  H        0.0898220    -2.6479260    -0.4670950
  H        3.5165330     0.8472870     0.2502520
  H        0.1131400     1.9772450    -0.1334260
  H        2.4918570    -3.2637390    -0.4496120
  H        4.2036760    -1.4834020    -0.0698800
  H       -1.5082140    -2.0621420     1.1053590
  H       -3.9675240    -1.6332930     1.0562410
  H        2.5505250     2.8512150    -0.6889090
  H        2.6804910     2.7762290     1.0829750
  H        1.4421210     3.7916170     0.3400310
  H       -3.1269050     2.0013970    -1.0972120
  H       -4.8034740     0.4484120    -0.0854480
units angstrom
no_reorient  #important for SAPT in psi4, default
symmetry c1  #important for SAPT in psi4, default
}

set PROPERTIES_ORIGIN ["COM"]
properties('MP2/aug-cc-pvtz', properties = ['dipole'])
--------------------------------------------------------------------------

    Molecular point group: c1
  Charge       = 0
  Multiplicity = 1
  Basis Set: AUG-CC-PVTZ
    Blend: AUG-CC-PVTZ
  Basis Set: (AUG-CC-PVTZ AUX)
    Blend: AUG-CC-PVTZ-JKFIT

    Orbital Energies [Eh]
    ---------------------

    Doubly Occupied:

       1A    -15.568133     2A    -15.549787     3A    -11.287879
       4A    -11.281089     5A    -11.278318     6A    -11.262875
       7A    -11.252960     8A    -11.241888     9A    -11.240512
      10A    -11.237876    11A    -11.233276    12A    -11.231617
      13A    -11.219577    14A    -11.219065    15A     -1.264369
      16A     -1.226983    17A     -1.135669    18A     -1.088552
      19A     -1.061910    20A     -1.004134    21A     -0.987314
      22A     -0.917728    23A     -0.866542    24A     -0.861100
      25A     -0.816825    26A     -0.790592    27A     -0.720083
      28A     -0.693632    29A     -0.672465    30A     -0.656556
      31A     -0.652777    32A     -0.622601    33A     -0.609952
      34A     -0.598118    35A     -0.588830    36A     -0.576939
      37A     -0.571215    38A     -0.547248    39A     -0.532917
      40A     -0.530094    41A     -0.507875    42A     -0.503236
      43A     -0.476976    44A     -0.419749    45A     -0.415784
      46A     -0.386859    47A     -0.366596    48A     -0.317012
      49A     -0.280908

  @DF-RHF Final Energy:  -570.46548336341607

   => Energetics <=

    Nuclear Repulsion Energy =            819.6371878967975135
    One-Electron Energy =               -2399.4553605242672347
    Two-Electron Energy =                1009.3526892640536516
    Total Energy =                       -570.4654833634160696
  Basis Set: (AUG-CC-PVTZ AUX)
    Blend: AUG-CC-PVTZ-RI
    Molecular point group: c1

    Geometry (in Angstrom), charge = 0, multiplicity = 1:

       Center              X                  Y                   Z               Mass
    ------------   -----------------  -----------------  -----------------  -----------------
         N            1.028510871598     1.794022691436     0.323478036040    14.003074004430
         N           -1.456769128402     0.867456691436    -0.615390963960    14.003074004430
         C            0.449888871598    -0.540390308564    -0.073803963960    12.000000000000
         C            1.286337571598     0.444753691436     0.118503736040    12.000000000000
         C           -1.002713128402    -0.266313308564    -0.029000963960    12.000000000000
         C            0.871232871598    -1.861667308564    -0.279262963960    12.000000000000
         C            2.781877871598     0.110800691436     0.111649036040    12.000000000000
         C            2.220114871598    -2.211423308564    -0.276787963960    12.000000000000
         C            3.173086871598    -1.214111308564    -0.075152963960    12.000000000000
         C           -1.878592128402    -1.168381308564     0.598775036040    12.000000000000
         C           -3.248325128402    -0.921883308564     0.579148036040    12.000000000000
         C            2.004085871598     2.864894691436     0.252264036040    12.000000000000
         C           -2.780648128402     1.099462691436    -0.612915963960    12.000000000000
         C           -3.714943128402     0.233917691436    -0.046663963960    12.000000000000
         H            0.118698871598    -2.626088308564    -0.464052963960     1.007825032230
         H            3.545409871598     0.869124691436     0.253294036040     1.007825032230
         H            0.142016871598     1.999082691436    -0.130383963960     1.007825032230
         H            2.520733871598    -3.241901308564    -0.446569963960     1.007825032230
         H            4.232552871598    -1.461564308564    -0.066837963960     1.007825032230
         H           -1.479337128402    -2.040304308564     1.108401036040     1.007825032230
         H           -3.938647128402    -1.611455308564     1.059283036040     1.007825032230
         H            2.579401871598     2.873052691436    -0.685866963960     1.007825032230
         H            2.709367871598     2.798066691436     1.086017036040     1.007825032230
         H            1.470997871598     3.813454691436     0.343073036040     1.007825032230
         H           -3.098028128402     2.023234691436    -1.094169963960     1.007825032230
         H           -4.774597128402     0.470249691436    -0.082405963960     1.007825032230

  Basis Set: AUG-CC-PVTZ
    Blend: AUG-CC-PVTZ
  Basis Set: (AUG-CC-PVTZ AUX)
    Blend: AUG-CC-PVTZ-JKFIT
	 Reference Energy          =    -570.4654833634160696 [Eh]
	 Singles Energy            =      -0.0000000000000000 [Eh]
	 Same-Spin Energy          =      -0.6390875433187795 [Eh]
	 Opposite-Spin Energy      =      -1.9775873369183365 [Eh]
	 Correlation Energy        =      -2.6166748802371158 [Eh]
	 Total Energy              =    -573.0821582436532253 [Eh]

	 ================> DF-SCS-MP2 Energies <==================
	-----------------------------------------------------------
	 SCS Same-Spin Scale       =       0.3333333333333333 [-]
	 SCS Opposite-Spin Scale   =       1.2000000000000000 [-]
	 SCS Same-Spin Energy      =      -0.2130291811062598 [Eh]
	 SCS Opposite-Spin Energy  =      -2.3731048043020038 [Eh]
	 SCS Correlation Energy    =      -2.5861339854082637 [Eh]
	 SCS Total Energy          =    -573.0516173488243794 [Eh]
	-----------------------------------------------------------

  Dipole Moment: [D]
     X:    -1.6785      Y:     0.2326      Z:     0.3719     Total:     1.7348

*** Psi4 exiting successfully. Buy a developer a beer!
