                               Psi4 1.4a3.dev225

  ==> Input File <==

--------------------------------------------------------------------------
#psi4
#
memory 32 gb

molecule  {
0 1
  N        0.9996340     1.7721850     0.3204360
  N       -1.4856460     0.8456190    -0.6184330
  C        0.4210120    -0.5622280    -0.0768460
  C        1.3959190     0.4607190     0.0923330
  C       -1.0315900    -0.2881510    -0.0320430
  C        0.8423560    -1.8835050    -0.2823050
  C        2.7530010     0.0889630     0.1086070
  C        2.1912380    -2.2332610    -0.2798300
  C        3.1442100    -1.2359490    -0.0781950
  C       -1.8950040    -1.1773813     0.5867989
  C       -3.2772020    -0.9437210     0.5761060
  C        1.9752090     2.8430570     0.2492220
  C       -2.8095250     1.0776250    -0.6159580
  C       -3.7438200     0.2120800    -0.0497060
  H        0.0898220    -2.6479260    -0.4670950
  H        3.5165330     0.8472870     0.2502520
  H        0.1131400     1.9772450    -0.1334260
  H        2.4918570    -3.2637390    -0.4496120
  H        4.2036760    -1.4834020    -0.0698800
  H       -1.5082140    -2.0621420     1.1053590
  H       -3.9675240    -1.6332930     1.0562410
  H        2.5505250     2.8512150    -0.6889090
  H        2.6804910     2.7762290     1.0829750
  H        1.4421210     3.7916170     0.3400310
  H       -3.1269050     2.0013970    -1.0972120
  H       -4.8034740     0.4484120    -0.0854480
units angstrom
no_reorient  #important for SAPT in psi4, default
symmetry c1  #important for SAPT in psi4, default
}

set PROPERTIES_ORIGIN ["COM"]
properties('MP2/aug-cc-pvtz', properties = ['dipole'])
--------------------------------------------------------------------------

    Molecular point group: c1
  Charge       = 0
  Multiplicity = 1
  Basis Set: AUG-CC-PVTZ
    Blend: AUG-CC-PVTZ
  Basis Set: (AUG-CC-PVTZ AUX)
    Blend: AUG-CC-PVTZ-JKFIT

    Orbital Energies [Eh]
    ---------------------

    Doubly Occupied:

       1A    -15.568665     2A    -15.550186     3A    -11.286992
       4A    -11.281912     5A    -11.278411     6A    -11.264914
       7A    -11.248491     8A    -11.243018     9A    -11.241202
      10A    -11.236855    11A    -11.235421    12A    -11.232567
      13A    -11.219571    14A    -11.217958    15A     -1.263996
      16A     -1.228637    17A     -1.132074    18A     -1.087969
      19A     -1.061934    20A     -0.998446    21A     -0.993048
      22A     -0.915323    23A     -0.869920    24A     -0.862041
      25A     -0.805312    26A     -0.795937    27A     -0.720940
      28A     -0.697245    29A     -0.671093    30A     -0.657410
      31A     -0.649279    32A     -0.622540    33A     -0.608382
      34A     -0.602214    35A     -0.589412    36A     -0.577561
      37A     -0.567808    38A     -0.549219    39A     -0.532896
      40A     -0.527456    41A     -0.503180    42A     -0.496668
      43A     -0.488646    44A     -0.423477    45A     -0.416602
      46A     -0.386770    47A     -0.368475    48A     -0.317928
      49A     -0.279337

  @DF-RHF Final Energy:  -570.48924079606888

   => Energetics <=

    Nuclear Repulsion Energy =            818.9271198886332286
    One-Electron Energy =               -2398.0820433344892990
    Two-Electron Energy =                1008.6656826497872999
    Total Energy =                       -570.4892407960688843
  Basis Set: (AUG-CC-PVTZ AUX)
    Blend: AUG-CC-PVTZ-RI
    Molecular point group: c1

    Geometry (in Angstrom), charge = 0, multiplicity = 1:

       Center              X                  Y                   Z               Mass
    ------------   -----------------  -----------------  -----------------  -----------------
         N            1.018673396726     1.790721831902     0.325567951841    14.003074004430
         N           -1.466606603274     0.864155831902    -0.613301048159    14.003074004430
         C            0.440051396726    -0.543691168098    -0.071714048159    12.000000000000
         C            1.414958396726     0.479255831902     0.097464951841    12.000000000000
         C           -1.012550603274    -0.269614168098    -0.026911048159    12.000000000000
         C            0.861395396726    -1.864968168098    -0.277173048159    12.000000000000
         C            2.772040396726     0.107499831902     0.113738951841    12.000000000000
         C            2.210277396726    -2.214724168098    -0.274698048159    12.000000000000
         C            3.163249396726    -1.217412168098    -0.073063048159    12.000000000000
         C           -1.875964603274    -1.158844468098     0.591930851841    12.000000000000
         C           -3.258162603274    -0.925184168098     0.581237951841    12.000000000000
         C            1.994248396726     2.861593831902     0.254353951841    12.000000000000
         C           -2.790485603274     1.096161831902    -0.610826048159    12.000000000000
         C           -3.724780603274     0.230616831902    -0.044574048159    12.000000000000
         H            0.108861396726    -2.629389168098    -0.461963048159     1.007825032230
         H            3.535572396726     0.865823831902     0.255383951841     1.007825032230
         H            0.132179396726     1.995781831902    -0.128294048159     1.007825032230
         H            2.510896396726    -3.245202168098    -0.444480048159     1.007825032230
         H            4.222715396726    -1.464865168098    -0.064748048159     1.007825032230
         H           -1.489174603274    -2.043605168098     1.110490951841     1.007825032230
         H           -3.948484603274    -1.614756168098     1.061372951841     1.007825032230
         H            2.569564396726     2.869751831902    -0.683777048159     1.007825032230
         H            2.699530396726     2.794765831902     1.088106951841     1.007825032230
         H            1.461160396726     3.810153831902     0.345162951841     1.007825032230
         H           -3.107865603274     2.019933831902    -1.092080048159     1.007825032230
         H           -4.784434603274     0.466948831902    -0.080316048159     1.007825032230

  Basis Set: AUG-CC-PVTZ
    Blend: AUG-CC-PVTZ
  Basis Set: (AUG-CC-PVTZ AUX)
    Blend: AUG-CC-PVTZ-JKFIT
	 Reference Energy          =    -570.4892407960688843 [Eh]
	 Singles Energy            =      -0.0000000000000000 [Eh]
	 Same-Spin Energy          =      -0.6395294055311973 [Eh]
	 Opposite-Spin Energy      =      -1.9765055723597587 [Eh]
	 Correlation Energy        =      -2.6160349778909557 [Eh]
	 Total Energy              =    -573.1052757739598746 [Eh]

	 ================> DF-SCS-MP2 Energies <==================
	-----------------------------------------------------------
	 SCS Same-Spin Scale       =       0.3333333333333333 [-]
	 SCS Opposite-Spin Scale   =       1.2000000000000000 [-]
	 SCS Same-Spin Energy      =      -0.2131764685103991 [Eh]
	 SCS Opposite-Spin Energy  =      -2.3718066868317105 [Eh]
	 SCS Correlation Energy    =      -2.5849831553421097 [Eh]
	 SCS Total Energy          =    -573.0742239514109997 [Eh]
	-----------------------------------------------------------

  Dipole Moment: [D]
     X:    -1.8017      Y:     0.1646      Z:     0.3618     Total:     1.8451

*** Psi4 exiting successfully. Buy a developer a beer!
