                               Psi4 1.3.2 release

  ==> Input File <==

--------------------------------------------------------------------------
#psi4
#
memory 32 gb

molecule  {
0 1
  N        0.9996340     1.7721850     0.3204360
  N       -1.4856460     0.8456190    -0.6184330
  C        0.4210120    -0.5622280    -0.0768460
  C        1.3959190     0.4607190     0.0923330
  C       -1.0315900    -0.2881510    -0.0320430
  C        0.8423560    -1.8835050    -0.2823050
  C        2.7530010     0.0889630     0.1086070
  C        2.1912380    -2.2332610    -0.2798300
  C        3.1442100    -1.2359490    -0.0781950
  C       -1.7828193    -1.0618422     0.5063918
  C       -3.2772020    -0.9437210     0.5761060
  C        1.9752090     2.8430570     0.2492220
  C       -2.8095250     1.0776250    -0.6159580
  C       -3.7438200     0.2120800    -0.0497060
  H        0.0898220    -2.6479260    -0.4670950
  H        3.5165330     0.8472870     0.2502520
  H        0.1131400     1.9772450    -0.1334260
  H        2.4918570    -3.2637390    -0.4496120
  H        4.2036760    -1.4834020    -0.0698800
  H       -1.5082140    -2.0621420     1.1053590
  H       -3.9675240    -1.6332930     1.0562410
  H        2.5505250     2.8512150    -0.6889090
  H        2.6804910     2.7762290     1.0829750
  H        1.4421210     3.7916170     0.3400310
  H       -3.1269050     2.0013970    -1.0972120
  H       -4.8034740     0.4484120    -0.0854480
units angstrom
no_reorient  #important for SAPT in psi4, default
symmetry c1  #important for SAPT in psi4, default
}

set PROPERTIES_ORIGIN ["COM"]
properties('MP2/aug-cc-pvtz', properties = ['dipole'])
--------------------------------------------------------------------------

    Molecular point group: c1
  Charge       = 0
  Multiplicity = 1
  Basis Set: AUG-CC-PVTZ
    Blend: AUG-CC-PVTZ
  Basis Set: (AUG-CC-PVTZ AUX)
    Blend: AUG-CC-PVTZ-JKFIT

    Orbital Energies [Eh]
    ---------------------

    Doubly Occupied:

       1A    -15.568553     2A    -15.547503     3A    -11.287505
       4A    -11.278823     5A    -11.273675     6A    -11.255138
       7A    -11.248183     8A    -11.246622     9A    -11.235393
      10A    -11.231845    11A    -11.231022    12A    -11.227868
      13A    -11.216072    14A    -11.214380    15A     -1.273923
      16A     -1.226828    17A     -1.130436    18A     -1.082429
      19A     -1.077437    20A     -0.997228    21A     -0.993706
      22A     -0.913154    23A     -0.880981    24A     -0.857654
      25A     -0.803255    26A     -0.792924    27A     -0.722846
      28A     -0.692655    29A     -0.679681    30A     -0.651456
      31A     -0.642599    32A     -0.626523    33A     -0.606817
      34A     -0.601064    35A     -0.586980    36A     -0.582716
      37A     -0.565645    38A     -0.559572    39A     -0.529929
      40A     -0.511568    41A     -0.499061    42A     -0.489482
      43A     -0.468471    44A     -0.425579    45A     -0.415460
      46A     -0.390486    47A     -0.372925    48A     -0.320671
      49A     -0.277927

  @DF-RHF Final Energy:  -570.42835282433361

   => Energetics <=

    Nuclear Repulsion Energy =            822.3468083532542323
    One-Electron Energy =               -2404.9250262006926278
    Two-Electron Energy =                1012.1498650231046668
    Total Energy =                       -570.4283528243336150
  Basis Set: (AUG-CC-PVTZ AUX)
    Blend: AUG-CC-PVTZ-RI
    Molecular point group: c1

    Geometry (in Angstrom), charge = 0, multiplicity = 1:

       Center              X                  Y                   Z               Mass
    ------------   -----------------  -----------------  -----------------  -----------------
         N            1.011360979311     1.783190768157     0.330809043347    14.003074004430
         N           -1.473919020689     0.856624768157    -0.608059956653    14.003074004430
         C            0.432738979311    -0.551222231843    -0.066472956653    12.000000000000
         C            1.407645979311     0.471724768157     0.102706043347    12.000000000000
         C           -1.019863020689    -0.277145231843    -0.021669956653    12.000000000000
         C            0.854082979311    -1.872499231843    -0.271931956653    12.000000000000
         C            2.764727979311     0.099968768157     0.118980043347    12.000000000000
         C            2.202964979311    -2.222255231843    -0.269456956653    12.000000000000
         C            3.155936979311    -1.224943231843    -0.067821956653    12.000000000000
         C           -1.771092320689    -1.050836431843     0.516764843347    12.000000000000
         C           -3.265475020689    -0.932715231843     0.586479043347    12.000000000000
         C            1.986935979311     2.854062768157     0.259595043347    12.000000000000
         C           -2.797798020689     1.088630768157    -0.605584956653    12.000000000000
         C           -3.732093020689     0.223085768157    -0.039332956653    12.000000000000
         H            0.101548979311    -2.636920231843    -0.456721956653     1.007825032230
         H            3.528259979311     0.858292768157     0.260625043347     1.007825032230
         H            0.124866979311     1.988250768157    -0.123052956653     1.007825032230
         H            2.503583979311    -3.252733231843    -0.439238956653     1.007825032230
         H            4.215402979311    -1.472396231843    -0.059506956653     1.007825032230
         H           -1.496487020689    -2.051136231843     1.115732043347     1.007825032230
         H           -3.955797020689    -1.622287231843     1.066614043347     1.007825032230
         H            2.562251979311     2.862220768157    -0.678535956653     1.007825032230
         H            2.692217979311     2.787234768157     1.093348043347     1.007825032230
         H            1.453847979311     3.802622768157     0.350404043347     1.007825032230
         H           -3.115178020689     2.012402768157    -1.086838956653     1.007825032230
         H           -4.791747020689     0.459417768157    -0.075074956653     1.007825032230

  Basis Set: AUG-CC-PVTZ
    Blend: AUG-CC-PVTZ
  Basis Set: (AUG-CC-PVTZ AUX)
    Blend: AUG-CC-PVTZ-JKFIT
	 Reference Energy          =    -570.4283528243336150 [Eh]
	 Singles Energy            =      -0.0000000000000000 [Eh]
	 Same-Spin Energy          =      -0.6394533896256288 [Eh]
	 Opposite-Spin Energy      =      -1.9786938820895172 [Eh]
	 Correlation Energy        =      -2.6181472717151459 [Eh]
	 Total Energy              =    -573.0465000960488169 [Eh]

	 ================> DF-SCS-MP2 Energies <==================
	-----------------------------------------------------------
	 SCS Same-Spin Scale       =       0.3333333333333333 [-]
	 SCS Opposite-Spin Scale   =       1.2000000000000000 [-]
	 SCS Same-Spin Energy      =      -0.2131511298752096 [Eh]
	 SCS Opposite-Spin Energy  =      -2.3744326585074207 [Eh]
	 SCS Correlation Energy    =      -2.5875837883826303 [Eh]
	 SCS Total Energy          =    -573.0159366127162457 [Eh]
	-----------------------------------------------------------

  Dipole Moment: [D]
     X:    -2.1969      Y:     0.2422      Z:     0.3320     Total:     2.2350

*** Psi4 exiting successfully. Buy a developer a beer!
