                               Psi4 1.3.2 release

  ==> Input File <==

--------------------------------------------------------------------------
#psi4
#
memory 32 gb

molecule  {
0 1
  N        0.9996340     1.7721850     0.3204360
  N       -1.3961377     0.8656037    -0.6414768
  C        0.4210120    -0.5622280    -0.0768460
  C        1.3959190     0.4607190     0.0923330
  C       -1.0315900    -0.2881510    -0.0320430
  C        0.8423560    -1.8835050    -0.2823050
  C        2.7530010     0.0889630     0.1086070
  C        2.1912380    -2.2332610    -0.2798300
  C        3.1442100    -1.2359490    -0.0781950
  C       -1.9074690    -1.1902190     0.5957330
  C       -3.2772020    -0.9437210     0.5761060
  C        1.9752090     2.8430570     0.2492220
  C       -2.8095250     1.0776250    -0.6159580
  C       -3.7438200     0.2120800    -0.0497060
  H        0.0898220    -2.6479260    -0.4670950
  H        3.5165330     0.8472870     0.2502520
  H        0.1131400     1.9772450    -0.1334260
  H        2.4918570    -3.2637390    -0.4496120
  H        4.2036760    -1.4834020    -0.0698800
  H       -1.5082140    -2.0621420     1.1053590
  H       -3.9675240    -1.6332930     1.0562410
  H        2.5505250     2.8512150    -0.6889090
  H        2.6804910     2.7762290     1.0829750
  H        1.4421210     3.7916170     0.3400310
  H       -3.1269050     2.0013970    -1.0972120
  H       -4.8034740     0.4484120    -0.0854480
units angstrom
no_reorient  #important for SAPT in psi4, default
symmetry c1  #important for SAPT in psi4, default
}

set PROPERTIES_ORIGIN ["COM"]
properties('MP2/aug-cc-pvtz', properties = ['dipole'])
--------------------------------------------------------------------------

    Molecular point group: c1
  Charge       = 0
  Multiplicity = 1
  Basis Set: AUG-CC-PVTZ
    Blend: AUG-CC-PVTZ
  Basis Set: (AUG-CC-PVTZ AUX)
    Blend: AUG-CC-PVTZ-JKFIT

    Orbital Energies [Eh]
    ---------------------

    Doubly Occupied:

       1A    -15.579617     2A    -15.547554     3A    -11.291301
       4A    -11.291114     5A    -11.277570     6A    -11.267704
       7A    -11.247155     8A    -11.246329     9A    -11.243642
      10A    -11.235971    11A    -11.234713    12A    -11.230747
      13A    -11.218838    14A    -11.217192    15A     -1.252467
      16A     -1.222931    17A     -1.130254    18A     -1.093082
      19A     -1.054940    20A     -0.997478    21A     -0.992190
      22A     -0.914820    23A     -0.865844    24A     -0.865055
      25A     -0.800093    26A     -0.794935    27A     -0.719158
      28A     -0.695513    29A     -0.669792    30A     -0.658583
      31A     -0.646469    32A     -0.621610    33A     -0.606499
      34A     -0.601158    35A     -0.589045    36A     -0.575776
      37A     -0.566160    38A     -0.542559    39A     -0.532393
      40A     -0.526106    41A     -0.499707    42A     -0.494892
      43A     -0.489840    44A     -0.432512    45A     -0.417020
      46A     -0.390218    47A     -0.362151    48A     -0.318419
      49A     -0.278727

  @DF-RHF Final Energy:  -570.47672275072341

   => Energetics <=

    Nuclear Repulsion Energy =            817.9376397840826485
    One-Electron Energy =               -2396.1330374257677249
    Two-Electron Energy =                1007.7186748909616654
    Total Energy =                       -570.4767227507234111
  Basis Set: (AUG-CC-PVTZ AUX)
    Blend: AUG-CC-PVTZ-RI
    Molecular point group: c1

    Geometry (in Angstrom), charge = 0, multiplicity = 1:

       Center              X                  Y                   Z               Mass
    ------------   -----------------  -----------------  -----------------  -----------------
         N            1.012677682122     1.790038535867     0.326738374329    14.003074004430
         N           -1.383094017878     0.883457235867    -0.635174425671    14.003074004430
         C            0.434055682122    -0.544374464133    -0.070543625671    12.000000000000
         C            1.408962682122     0.478572535867     0.098635374329    12.000000000000
         C           -1.018546317878    -0.270297464133    -0.025740625671    12.000000000000
         C            0.855399682122    -1.865651464133    -0.276002625671    12.000000000000
         C            2.766044682122     0.106816535867     0.114909374329    12.000000000000
         C            2.204281682122    -2.215407464133    -0.273527625671    12.000000000000
         C            3.157253682122    -1.218095464133    -0.071892625671    12.000000000000
         C           -1.894425317878    -1.172365464133     0.602035374329    12.000000000000
         C           -3.264158317878    -0.925867464133     0.582408374329    12.000000000000
         C            1.988252682122     2.860910535867     0.255524374329    12.000000000000
         C           -2.796481317878     1.095478535867    -0.609655625671    12.000000000000
         C           -3.730776317878     0.229933535867    -0.043403625671    12.000000000000
         H            0.102865682122    -2.630072464133    -0.460792625671     1.007825032230
         H            3.529576682122     0.865140535867     0.256554374329     1.007825032230
         H            0.126183682122     1.995098535867    -0.127123625671     1.007825032230
         H            2.504900682122    -3.245885464133    -0.443309625671     1.007825032230
         H            4.216719682122    -1.465548464133    -0.063577625671     1.007825032230
         H           -1.495170317878    -2.044288464133     1.111661374329     1.007825032230
         H           -3.954480317878    -1.615439464133     1.062543374329     1.007825032230
         H            2.563568682122     2.869068535867    -0.682606625671     1.007825032230
         H            2.693534682122     2.794082535867     1.089277374329     1.007825032230
         H            1.455164682122     3.809470535867     0.346333374329     1.007825032230
         H           -3.113861317878     2.019250535867    -1.090909625671     1.007825032230
         H           -4.790430317878     0.466265535867    -0.079145625671     1.007825032230

  Basis Set: AUG-CC-PVTZ
    Blend: AUG-CC-PVTZ
  Basis Set: (AUG-CC-PVTZ AUX)
    Blend: AUG-CC-PVTZ-JKFIT
	 Reference Energy          =    -570.4767227507234111 [Eh]
	 Singles Energy            =      -0.0000000000000000 [Eh]
	 Same-Spin Energy          =      -0.6405908823431844 [Eh]
	 Opposite-Spin Energy      =      -1.9801186864026887 [Eh]
	 Correlation Energy        =      -2.6207095687458732 [Eh]
	 Total Energy              =    -573.0974323194692488 [Eh]

	 ================> DF-SCS-MP2 Energies <==================
	-----------------------------------------------------------
	 SCS Same-Spin Scale       =       0.3333333333333333 [-]
	 SCS Opposite-Spin Scale   =       1.2000000000000000 [-]
	 SCS Same-Spin Energy      =      -0.2135302941143948 [Eh]
	 SCS Opposite-Spin Energy  =      -2.3761424236832265 [Eh]
	 SCS Correlation Energy    =      -2.5896727177976211 [Eh]
	 SCS Total Energy          =    -573.0663954685210228 [Eh]
	-----------------------------------------------------------

  Dipole Moment: [D]
     X:    -1.9947      Y:     0.1061      Z:     0.4053     Total:     2.0382

*** Psi4 exiting successfully. Buy a developer a beer!
