                               Psi4 1.3.2 release

  ==> Input File <==

--------------------------------------------------------------------------
#psi4
#
memory 32 gb

molecule  {
0 1
  N        0.9996340     1.7721850     0.3204360
  N       -1.4856460     0.8456190    -0.6184330
  C        0.4210120    -0.5622280    -0.0768460
  C        1.3212177     0.5253285     0.1029766
  C       -1.0315900    -0.2881510    -0.0320430
  C        0.8423560    -1.8835050    -0.2823050
  C        2.7530010     0.0889630     0.1086070
  C        2.1912380    -2.2332610    -0.2798300
  C        3.1442100    -1.2359490    -0.0781950
  C       -1.9074690    -1.1902190     0.5957330
  C       -3.2772020    -0.9437210     0.5761060
  C        1.9752090     2.8430570     0.2492220
  C       -2.8095250     1.0776250    -0.6159580
  C       -3.7438200     0.2120800    -0.0497060
  H        0.0898220    -2.6479260    -0.4670950
  H        3.5165330     0.8472870     0.2502520
  H        0.1131400     1.9772450    -0.1334260
  H        2.4918570    -3.2637390    -0.4496120
  H        4.2036760    -1.4834020    -0.0698800
  H       -1.5082140    -2.0621420     1.1053590
  H       -3.9675240    -1.6332930     1.0562410
  H        2.5505250     2.8512150    -0.6889090
  H        2.6804910     2.7762290     1.0829750
  H        1.4421210     3.7916170     0.3400310
  H       -3.1269050     2.0013970    -1.0972120
  H       -4.8034740     0.4484120    -0.0854480
units angstrom
no_reorient  #important for SAPT in psi4, default
symmetry c1  #important for SAPT in psi4, default
}

set PROPERTIES_ORIGIN ["COM"]
properties('MP2/aug-cc-pvtz', properties = ['dipole'])
--------------------------------------------------------------------------

    Molecular point group: c1
  Charge       = 0
  Multiplicity = 1
  Basis Set: AUG-CC-PVTZ
    Blend: AUG-CC-PVTZ
  Basis Set: (AUG-CC-PVTZ AUX)
    Blend: AUG-CC-PVTZ-JKFIT

    Orbital Energies [Eh]
    ---------------------

    Doubly Occupied:

       1A    -15.567170     2A    -15.562358     3A    -11.286763
       4A    -11.286369     5A    -11.280619     6A    -11.261777
       7A    -11.258803     8A    -11.240335     9A    -11.238524
      10A    -11.235787    11A    -11.233010    12A    -11.227455
      13A    -11.223733    14A    -11.212373    15A     -1.273085
      16A     -1.250970    17A     -1.126678    18A     -1.087324
      19A     -1.057207    20A     -0.994752    21A     -0.988786
      22A     -0.928089    23A     -0.866733    24A     -0.858853
      25A     -0.802216    26A     -0.796887    27A     -0.721087
      28A     -0.703331    29A     -0.670929    30A     -0.658991
      31A     -0.654059    32A     -0.627100    33A     -0.618760
      34A     -0.598983    35A     -0.587110    36A     -0.572617
      37A     -0.570661    38A     -0.547780    39A     -0.538497
      40A     -0.530711    41A     -0.503522    42A     -0.500264
      43A     -0.476795    44A     -0.433085    45A     -0.416141
      46A     -0.387248    47A     -0.365442    48A     -0.313970
      49A     -0.268889

  @DF-RHF Final Energy:  -570.47632883178596

   => Energetics <=

    Nuclear Repulsion Energy =            818.9062742343709260
    One-Electron Energy =               -2397.9399565349108343
    Two-Electron Energy =                1008.5573534687540587
    Total Energy =                       -570.4763288317859633
  Basis Set: (AUG-CC-PVTZ AUX)
    Blend: AUG-CC-PVTZ-RI
    Molecular point group: c1

    Geometry (in Angstrom), charge = 0, multiplicity = 1:

       Center              X                  Y                   Z               Mass
    ------------   -----------------  -----------------  -----------------  -----------------
         N            1.024355066064     1.787347245065     0.324291839194    14.003074004430
         N           -1.460924933936     0.860781245065    -0.614577160806    14.003074004430
         C            0.445733066064    -0.547065754935    -0.072990160806    12.000000000000
         C            1.345938766064     0.540490745065     0.106832439194    12.000000000000
         C           -1.006868933936    -0.272988754935    -0.028187160806    12.000000000000
         C            0.867077066064    -1.868342754935    -0.278449160806    12.000000000000
         C            2.777722066064     0.104125245065     0.112462839194    12.000000000000
         C            2.215959066064    -2.218098754935    -0.275974160806    12.000000000000
         C            3.168931066064    -1.220786754935    -0.074339160806    12.000000000000
         C           -1.882747933936    -1.175056754935     0.599588839194    12.000000000000
         C           -3.252480933936    -0.928558754935     0.579961839194    12.000000000000
         C            1.999930066064     2.858219245065     0.253077839194    12.000000000000
         C           -2.784803933936     1.092787245065    -0.612102160806    12.000000000000
         C           -3.719098933936     0.227242245065    -0.045850160806    12.000000000000
         H            0.114543066064    -2.632763754935    -0.463239160806     1.007825032230
         H            3.541254066064     0.862449245065     0.254107839194     1.007825032230
         H            0.137861066064     1.992407245065    -0.129570160806     1.007825032230
         H            2.516578066064    -3.248576754935    -0.445756160806     1.007825032230
         H            4.228397066064    -1.468239754935    -0.066024160806     1.007825032230
         H           -1.483492933936    -2.046979754935     1.109214839194     1.007825032230
         H           -3.942802933936    -1.618130754935     1.060096839194     1.007825032230
         H            2.575246066064     2.866377245065    -0.685053160806     1.007825032230
         H            2.705212066064     2.791391245065     1.086830839194     1.007825032230
         H            1.466842066064     3.806779245065     0.343886839194     1.007825032230
         H           -3.102183933936     2.016559245065    -1.093356160806     1.007825032230
         H           -4.778752933936     0.463574245065    -0.081592160806     1.007825032230

  Basis Set: AUG-CC-PVTZ
    Blend: AUG-CC-PVTZ
  Basis Set: (AUG-CC-PVTZ AUX)
    Blend: AUG-CC-PVTZ-JKFIT
	 Reference Energy          =    -570.4763288317859633 [Eh]
	 Singles Energy            =      -0.0000000000000000 [Eh]
	 Same-Spin Energy          =      -0.6401675791582589 [Eh]
	 Opposite-Spin Energy      =      -1.9774678480667816 [Eh]
	 Correlation Energy        =      -2.6176354272250406 [Eh]
	 Total Energy              =    -573.0939642590110452 [Eh]

	 ================> DF-SCS-MP2 Energies <==================
	-----------------------------------------------------------
	 SCS Same-Spin Scale       =       0.3333333333333333 [-]
	 SCS Opposite-Spin Scale   =       1.2000000000000000 [-]
	 SCS Same-Spin Energy      =      -0.2133891930527530 [Eh]
	 SCS Opposite-Spin Energy  =      -2.3729614176801377 [Eh]
	 SCS Correlation Energy    =      -2.5863506107328909 [Eh]
	 SCS Total Energy          =    -573.0626794425188564 [Eh]
	-----------------------------------------------------------

  Dipole Moment: [D]
     X:    -1.7397      Y:     0.7909      Z:     0.4723     Total:     1.9685

*** Psi4 exiting successfully. Buy a developer a beer!
