                               Psi4 1.3.2 release

  ==> Input File <==

--------------------------------------------------------------------------
#psi4
#
memory 32 gb

molecule  {
0 1
  N        0.9996340     1.7721850     0.3204360
  N       -1.5295555     0.8337264    -0.6055202
  C        0.4210120    -0.5622280    -0.0768460
  C        1.3959190     0.4607190     0.0923330
  C       -1.0315900    -0.2881510    -0.0320430
  C        0.8423560    -1.8835050    -0.2823050
  C        2.7530010     0.0889630     0.1086070
  C        2.1912380    -2.2332610    -0.2798300
  C        3.1442100    -1.2359490    -0.0781950
  C       -1.9074690    -1.1902190     0.5957330
  C       -3.2772020    -0.9437210     0.5761060
  C        1.9752090     2.8430570     0.2492220
  C       -2.8095250     1.0776250    -0.6159580
  C       -3.7438200     0.2120800    -0.0497060
  H        0.0898220    -2.6479260    -0.4670950
  H        3.5165330     0.8472870     0.2502520
  H        0.1131400     1.9772450    -0.1334260
  H        2.4918570    -3.2637390    -0.4496120
  H        4.2036760    -1.4834020    -0.0698800
  H       -1.5082140    -2.0621420     1.1053590
  H       -3.9675240    -1.6332930     1.0562410
  H        2.5505250     2.8512150    -0.6889090
  H        2.6804910     2.7762290     1.0829750
  H        1.4421210     3.7916170     0.3400310
  H       -3.1269050     2.0013970    -1.0972120
  H       -4.8034740     0.4484120    -0.0854480
units angstrom
no_reorient  #important for SAPT in psi4, default
symmetry c1  #important for SAPT in psi4, default
}

set PROPERTIES_ORIGIN ["COM"]
properties('MP2/aug-cc-pvtz', properties = ['dipole'])
--------------------------------------------------------------------------

    Molecular point group: c1
  Charge       = 0
  Multiplicity = 1
  Basis Set: AUG-CC-PVTZ
    Blend: AUG-CC-PVTZ
  Basis Set: (AUG-CC-PVTZ AUX)
    Blend: AUG-CC-PVTZ-JKFIT

    Orbital Energies [Eh]
    ---------------------

    Doubly Occupied:

       1A    -15.562673     2A    -15.551963     3A    -11.289473
       4A    -11.279602     5A    -11.276018     6A    -11.260927
       7A    -11.249504     8A    -11.240590     9A    -11.240458
      10A    -11.238105    11A    -11.236480    12A    -11.234352
      13A    -11.220538    14A    -11.218947    15A     -1.270818
      16A     -1.231122    17A     -1.133476    18A     -1.087420
      19A     -1.062936    20A     -0.999496    21A     -0.993233
      22A     -0.916089    23A     -0.873839    24A     -0.857419
      25A     -0.808203    26A     -0.796608    27A     -0.721769
      28A     -0.699374    29A     -0.671156    30A     -0.658547
      31A     -0.651208    32A     -0.622157    33A     -0.609695
      34A     -0.603073    35A     -0.590354    36A     -0.576449
      37A     -0.568755    38A     -0.552026    39A     -0.534734
      40A     -0.530062    41A     -0.505465    42A     -0.498702
      43A     -0.489393    44A     -0.421629    45A     -0.410868
      46A     -0.388008    47A     -0.369201    48A     -0.317056
      49A     -0.279775

  @DF-RHF Final Energy:  -570.49034965272710

   => Energetics <=

    Nuclear Repulsion Energy =            818.9918399900519717
    One-Electron Energy =               -2398.1648941117746290
    Two-Electron Energy =                1008.6827044689954391
    Total Energy =                       -570.4903496527271045
  Basis Set: (AUG-CC-PVTZ AUX)
    Blend: AUG-CC-PVTZ-RI
    Molecular point group: c1

    Geometry (in Angstrom), charge = 0, multiplicity = 1:

       Center              X                  Y                   Z               Mass
    ------------   -----------------  -----------------  -----------------  -----------------
         N            1.022825747498     1.792463196778     0.324003432458    14.003074004430
         N           -1.506363752502     0.854004596778    -0.601952767542    14.003074004430
         C            0.444203747498    -0.541949803222    -0.073278567542    12.000000000000
         C            1.419110747498     0.480997196778     0.095900432458    12.000000000000
         C           -1.008398252502    -0.267872803222    -0.028475567542    12.000000000000
         C            0.865547747498    -1.863226803222    -0.278737567542    12.000000000000
         C            2.776192747498     0.109241196778     0.112174432458    12.000000000000
         C            2.214429747498    -2.212982803222    -0.276262567542    12.000000000000
         C            3.167401747498    -1.215670803222    -0.074627567542    12.000000000000
         C           -1.884277252502    -1.169940803222     0.599300432458    12.000000000000
         C           -3.254010252502    -0.923442803222     0.579673432458    12.000000000000
         C            1.998400747498     2.863335196778     0.252789432458    12.000000000000
         C           -2.786333252502     1.097903196778    -0.612390567542    12.000000000000
         C           -3.720628252502     0.232358196778    -0.046138567542    12.000000000000
         H            0.113013747498    -2.627647803222    -0.463527567542     1.007825032230
         H            3.539724747498     0.867565196778     0.253819432458     1.007825032230
         H            0.136331747498     1.997523196778    -0.129858567542     1.007825032230
         H            2.515048747498    -3.243460803222    -0.446044567542     1.007825032230
         H            4.226867747498    -1.463123803222    -0.066312567542     1.007825032230
         H           -1.485022252502    -2.041863803222     1.108926432458     1.007825032230
         H           -3.944332252502    -1.613014803222     1.059808432458     1.007825032230
         H            2.573716747498     2.871493196778    -0.685341567542     1.007825032230
         H            2.703682747498     2.796507196778     1.086542432458     1.007825032230
         H            1.465312747498     3.811895196778     0.343598432458     1.007825032230
         H           -3.103713252502     2.021675196778    -1.093644567542     1.007825032230
         H           -4.780282252502     0.468690196778    -0.081880567542     1.007825032230

  Basis Set: AUG-CC-PVTZ
    Blend: AUG-CC-PVTZ
  Basis Set: (AUG-CC-PVTZ AUX)
    Blend: AUG-CC-PVTZ-JKFIT
	 Reference Energy          =    -570.4903496527271045 [Eh]
	 Singles Energy            =      -0.0000000000000000 [Eh]
	 Same-Spin Energy          =      -0.6390320219846846 [Eh]
	 Opposite-Spin Energy      =      -1.9750375000062190 [Eh]
	 Correlation Energy        =      -2.6140695219909036 [Eh]
	 Total Energy              =    -573.1044191747180321 [Eh]

	 ================> DF-SCS-MP2 Energies <==================
	-----------------------------------------------------------
	 SCS Same-Spin Scale       =       0.3333333333333333 [-]
	 SCS Opposite-Spin Scale   =       1.2000000000000000 [-]
	 SCS Same-Spin Energy      =      -0.2130106739948948 [Eh]
	 SCS Opposite-Spin Energy  =      -2.3700450000074627 [Eh]
	 SCS Correlation Energy    =      -2.5830556740023574 [Eh]
	 SCS Total Energy          =    -573.0734053267294712 [Eh]
	-----------------------------------------------------------

  Dipole Moment: [D]
     X:    -1.6280      Y:     0.1947      Z:     0.3353     Total:     1.6736

*** Psi4 exiting successfully. Buy a developer a beer!
