                               Psi4 1.3.2 release

  ==> Input File <==

--------------------------------------------------------------------------
#psi4
#
memory 32 gb

molecule  {
0 1
  N        0.9996340     1.7721850     0.3204360
  N       -1.4856460     0.8456190    -0.6184330
  C        0.4210120    -0.5622280    -0.0768460
  C        1.3959190     0.4607190     0.0923330
  C       -0.9012182    -0.2459405    -0.0685271
  C        0.8423560    -1.8835050    -0.2823050
  C        2.7530010     0.0889630     0.1086070
  C        2.1912380    -2.2332610    -0.2798300
  C        3.1442100    -1.2359490    -0.0781950
  C       -1.9074690    -1.1902190     0.5957330
  C       -3.2772020    -0.9437210     0.5761060
  C        1.9752090     2.8430570     0.2492220
  C       -2.8095250     1.0776250    -0.6159580
  C       -3.7438200     0.2120800    -0.0497060
  H        0.0898220    -2.6479260    -0.4670950
  H        3.5165330     0.8472870     0.2502520
  H        0.1131400     1.9772450    -0.1334260
  H        2.4918570    -3.2637390    -0.4496120
  H        4.2036760    -1.4834020    -0.0698800
  H       -1.5082140    -2.0621420     1.1053590
  H       -3.9675240    -1.6332930     1.0562410
  H        2.5505250     2.8512150    -0.6889090
  H        2.6804910     2.7762290     1.0829750
  H        1.4421210     3.7916170     0.3400310
  H       -3.1269050     2.0013970    -1.0972120
  H       -4.8034740     0.4484120    -0.0854480
units angstrom
no_reorient  #important for SAPT in psi4, default
symmetry c1  #important for SAPT in psi4, default
}

set PROPERTIES_ORIGIN ["COM"]
properties('MP2/aug-cc-pvtz', properties = ['dipole'])
--------------------------------------------------------------------------

    Molecular point group: c1
  Charge       = 0
  Multiplicity = 1
  Basis Set: AUG-CC-PVTZ
    Blend: AUG-CC-PVTZ
  Basis Set: (AUG-CC-PVTZ AUX)
    Blend: AUG-CC-PVTZ-JKFIT

    Orbital Energies [Eh]
    ---------------------

    Doubly Occupied:

       1A    -15.562789     2A    -15.555907     3A    -11.296612
       4A    -11.285611     5A    -11.275931     6A    -11.255396
       7A    -11.252170     8A    -11.247758     9A    -11.245996
      10A    -11.243598    11A    -11.237450    12A    -11.229050
      13A    -11.224681    14A    -11.223877    15A     -1.258539
      16A     -1.229769    17A     -1.142092    18A     -1.082331
      19A     -1.066489    20A     -1.004578    21A     -0.987765
      22A     -0.921531    23A     -0.883881    24A     -0.847284
      25A     -0.807141    26A     -0.797742    27A     -0.726198
      28A     -0.700009    29A     -0.670911    30A     -0.668233
      31A     -0.646371    32A     -0.621201    33A     -0.611290
      34A     -0.604014    35A     -0.587525    36A     -0.575553
      37A     -0.572712    38A     -0.543255    39A     -0.535487
      40A     -0.532594    41A     -0.511560    42A     -0.500759
      43A     -0.495790    44A     -0.425217    45A     -0.401064
      46A     -0.388130    47A     -0.363277    48A     -0.313197
      49A     -0.278171

  @DF-RHF Final Energy:  -570.46112271635286

   => Energetics <=

    Nuclear Repulsion Energy =            819.1661752094638587
    One-Electron Energy =               -2398.3776248232497892
    Two-Electron Energy =                1008.7503268974331831
    Total Energy =                       -570.4611227163528611
  Basis Set: (AUG-CC-PVTZ AUX)
    Blend: AUG-CC-PVTZ-RI
    Molecular point group: c1

    Geometry (in Angstrom), charge = 0, multiplicity = 1:

       Center              X                  Y                   Z               Mass
    ------------   -----------------  -----------------  -----------------  -----------------
         N            1.010988001680     1.788807255545     0.327363714541    14.003074004430
         N           -1.474291998320     0.862241255545    -0.611505285459    14.003074004430
         C            0.432366001680    -0.545605744455    -0.069918285459    12.000000000000
         C            1.407273001680     0.477341255545     0.099260714541    12.000000000000
         C           -0.889864198320    -0.229318244455    -0.061599385459    12.000000000000
         C            0.853710001680    -1.866882744455    -0.275377285459    12.000000000000
         C            2.764355001680     0.105585255545     0.115534714541    12.000000000000
         C            2.202592001680    -2.216638744455    -0.272902285459    12.000000000000
         C            3.155564001680    -1.219326744455    -0.071267285459    12.000000000000
         C           -1.896114998320    -1.173596744455     0.602660714541    12.000000000000
         C           -3.265847998320    -0.927098744455     0.583033714541    12.000000000000
         C            1.986563001680     2.859679255545     0.256149714541    12.000000000000
         C           -2.798170998320     1.094247255545    -0.609030285459    12.000000000000
         C           -3.732465998320     0.228702255545    -0.042778285459    12.000000000000
         H            0.101176001680    -2.631303744455    -0.460167285459     1.007825032230
         H            3.527887001680     0.863909255545     0.257179714541     1.007825032230
         H            0.124494001680     1.993867255545    -0.126498285459     1.007825032230
         H            2.503211001680    -3.247116744455    -0.442684285459     1.007825032230
         H            4.215030001680    -1.466779744455    -0.062952285459     1.007825032230
         H           -1.496859998320    -2.045519744455     1.112286714541     1.007825032230
         H           -3.956169998320    -1.616670744455     1.063168714541     1.007825032230
         H            2.561879001680     2.867837255545    -0.681981285459     1.007825032230
         H            2.691845001680     2.792851255545     1.089902714541     1.007825032230
         H            1.453475001680     3.808239255545     0.346958714541     1.007825032230
         H           -3.115550998320     2.018019255545    -1.090284285459     1.007825032230
         H           -4.792119998320     0.465034255545    -0.078520285459     1.007825032230

  Basis Set: AUG-CC-PVTZ
    Blend: AUG-CC-PVTZ
  Basis Set: (AUG-CC-PVTZ AUX)
    Blend: AUG-CC-PVTZ-JKFIT
	 Reference Energy          =    -570.4611227163528611 [Eh]
	 Singles Energy            =      -0.0000000000000000 [Eh]
	 Same-Spin Energy          =      -0.6417986018645624 [Eh]
	 Opposite-Spin Energy      =      -1.9802861798300628 [Eh]
	 Correlation Energy        =      -2.6220847816946251 [Eh]
	 Total Energy              =    -573.0832074980474999 [Eh]

	 ================> DF-SCS-MP2 Energies <==================
	-----------------------------------------------------------
	 SCS Same-Spin Scale       =       0.3333333333333333 [-]
	 SCS Opposite-Spin Scale   =       1.2000000000000000 [-]
	 SCS Same-Spin Energy      =      -0.2139328672881874 [Eh]
	 SCS Opposite-Spin Energy  =      -2.3763434157960752 [Eh]
	 SCS Correlation Energy    =      -2.5902762830842625 [Eh]
	 SCS Total Energy          =    -573.0513989994370831 [Eh]
	-----------------------------------------------------------

  Dipole Moment: [D]
     X:    -1.0503      Y:     0.1406      Z:     0.3304     Total:     1.1100

*** Psi4 exiting successfully. Buy a developer a beer!
