                               Psi4 1.3.2 release

  ==> Input File <==

--------------------------------------------------------------------------
#psi4
#
memory 32 gb

molecule  {
0 1
  N        0.9996340     1.7721850     0.3204360
  N       -1.4856460     0.8456190    -0.6184330
  C        0.4210120    -0.5622280    -0.0768460
  C        1.3212217     0.5254888     0.1019848
  C       -1.0315900    -0.2881510    -0.0320430
  C        0.8423560    -1.8835050    -0.2823050
  C        2.7530010     0.0889630     0.1086070
  C        2.1912380    -2.2332610    -0.2798300
  C        3.1442100    -1.2359490    -0.0781950
  C       -1.9074690    -1.1902190     0.5957330
  C       -3.2772020    -0.9437210     0.5761060
  C        1.9752090     2.8430570     0.2492220
  C       -2.8095250     1.0776250    -0.6159580
  C       -3.7438200     0.2120800    -0.0497060
  H        0.0898220    -2.6479260    -0.4670950
  H        3.5165330     0.8472870     0.2502520
  H        0.1131400     1.9772450    -0.1334260
  H        2.4918570    -3.2637390    -0.4496120
  H        4.2036760    -1.4834020    -0.0698800
  H       -1.5082140    -2.0621420     1.1053590
  H       -3.9675240    -1.6332930     1.0562410
  H        2.5505250     2.8512150    -0.6889090
  H        2.6804910     2.7762290     1.0829750
  H        1.4421210     3.7916170     0.3400310
  H       -3.1269050     2.0013970    -1.0972120
  H       -4.8034740     0.4484120    -0.0854480
units angstrom
no_reorient  #important for SAPT in psi4, default
symmetry c1  #important for SAPT in psi4, default
}

set PROPERTIES_ORIGIN ["COM"]
properties('MP2/aug-cc-pvtz', properties = ['dipole'])
--------------------------------------------------------------------------

    Molecular point group: c1
  Charge       = 0
  Multiplicity = 1
  Basis Set: AUG-CC-PVTZ
    Blend: AUG-CC-PVTZ
  Basis Set: (AUG-CC-PVTZ AUX)
    Blend: AUG-CC-PVTZ-JKFIT

    Orbital Energies [Eh]
    ---------------------

    Doubly Occupied:

       1A    -15.567168     2A    -15.562361     3A    -11.286761
       4A    -11.286369     5A    -11.280619     6A    -11.261776
       7A    -11.258799     8A    -11.240332     9A    -11.238522
      10A    -11.235787    11A    -11.233012    12A    -11.227460
      13A    -11.223742    14A    -11.212381    15A     -1.273093
      16A     -1.250973    17A     -1.126679    18A     -1.087323
      19A     -1.057208    20A     -0.994749    21A     -0.988784
      22A     -0.928091    23A     -0.866731    24A     -0.858853
      25A     -0.802212    26A     -0.796883    27A     -0.721075
      28A     -0.703321    29A     -0.670932    30A     -0.658989
      31A     -0.654057    32A     -0.627102    33A     -0.618763
      34A     -0.598984    35A     -0.587111    36A     -0.572612
      37A     -0.570655    38A     -0.547776    39A     -0.538494
      40A     -0.530713    41A     -0.503528    42A     -0.500253
      43A     -0.476787    44A     -0.433105    45A     -0.416138
      46A     -0.387250    47A     -0.365451    48A     -0.313963
      49A     -0.268896

  @DF-RHF Final Energy:  -570.47630808059569

   => Energetics <=

    Nuclear Repulsion Energy =            818.9065502175824349
    One-Electron Energy =               -2397.9404774003087368
    Two-Electron Energy =                1008.5576191021306158
    Total Energy =                       -570.4763080805956861
  Basis Set: (AUG-CC-PVTZ AUX)
    Blend: AUG-CC-PVTZ-RI
    Molecular point group: c1

    Geometry (in Angstrom), charge = 0, multiplicity = 1:

       Center              X                  Y                   Z               Mass
    ------------   -----------------  -----------------  -----------------  -----------------
         N            1.024354805336     1.787336796399     0.324356486651    14.003074004430
         N           -1.460925194664     0.860770796399    -0.614512513349    14.003074004430
         C            0.445732805336    -0.547076203601    -0.072925513349    12.000000000000
         C            1.345942505336     0.540640596399     0.105905286651    12.000000000000
         C           -1.006869194664    -0.272999203601    -0.028122513349    12.000000000000
         C            0.867076805336    -1.868353203601    -0.278384513349    12.000000000000
         C            2.777721805336     0.104114796399     0.112527486651    12.000000000000
         C            2.215958805336    -2.218109203601    -0.275909513349    12.000000000000
         C            3.168930805336    -1.220797203601    -0.074274513349    12.000000000000
         C           -1.882748194664    -1.175067203601     0.599653486651    12.000000000000
         C           -3.252481194664    -0.928569203601     0.580026486651    12.000000000000
         C            1.999929805336     2.858208796399     0.253142486651    12.000000000000
         C           -2.784804194664     1.092776796399    -0.612037513349    12.000000000000
         C           -3.719099194664     0.227231796399    -0.045785513349    12.000000000000
         H            0.114542805336    -2.632774203601    -0.463174513349     1.007825032230
         H            3.541253805336     0.862438796399     0.254172486651     1.007825032230
         H            0.137860805336     1.992396796399    -0.129505513349     1.007825032230
         H            2.516577805336    -3.248587203601    -0.445691513349     1.007825032230
         H            4.228396805336    -1.468250203601    -0.065959513349     1.007825032230
         H           -1.483493194664    -2.046990203601     1.109279486651     1.007825032230
         H           -3.942803194664    -1.618141203601     1.060161486651     1.007825032230
         H            2.575245805336     2.866366796399    -0.684988513349     1.007825032230
         H            2.705211805336     2.791380796399     1.086895486651     1.007825032230
         H            1.466841805336     3.806768796399     0.343951486651     1.007825032230
         H           -3.102184194664     2.016548796399    -1.093291513349     1.007825032230
         H           -4.778753194664     0.463563796399    -0.081527513349     1.007825032230

  Basis Set: AUG-CC-PVTZ
    Blend: AUG-CC-PVTZ
  Basis Set: (AUG-CC-PVTZ AUX)
    Blend: AUG-CC-PVTZ-JKFIT
	 Reference Energy          =    -570.4763080805956861 [Eh]
	 Singles Energy            =      -0.0000000000000000 [Eh]
	 Same-Spin Energy          =      -0.6401692054576033 [Eh]
	 Opposite-Spin Energy      =      -1.9774709718099248 [Eh]
	 Correlation Energy        =      -2.6176401772675280 [Eh]
	 Total Energy              =    -573.0939482578631896 [Eh]

	 ================> DF-SCS-MP2 Energies <==================
	-----------------------------------------------------------
	 SCS Same-Spin Scale       =       0.3333333333333333 [-]
	 SCS Opposite-Spin Scale   =       1.2000000000000000 [-]
	 SCS Same-Spin Energy      =      -0.2133897351525344 [Eh]
	 SCS Opposite-Spin Energy  =      -2.3729651661719098 [Eh]
	 SCS Correlation Energy    =      -2.5863549013244440 [Eh]
	 SCS Total Energy          =    -573.0626629819200843 [Eh]
	-----------------------------------------------------------

  Dipole Moment: [D]
     X:    -1.7393      Y:     0.7906      Z:     0.4720     Total:     1.9680

*** Psi4 exiting successfully. Buy a developer a beer!
