                               Psi4 1.3.2 release

  ==> Input File <==

--------------------------------------------------------------------------
#psi4
#
memory 32 gb

molecule  {
0 1
  N        0.9764631     1.7651425     0.3193833
  N       -1.4856460     0.8456190    -0.6184330
  C        0.4210120    -0.5622280    -0.0768460
  C        1.3959190     0.4607190     0.0923330
  C       -1.0315900    -0.2881510    -0.0320430
  C        0.8423560    -1.8835050    -0.2823050
  C        2.7530010     0.0889630     0.1086070
  C        2.1912380    -2.2332610    -0.2798300
  C        3.1442100    -1.2359490    -0.0781950
  C       -1.9074690    -1.1902190     0.5957330
  C       -3.2772020    -0.9437210     0.5761060
  C        1.9752090     2.8430570     0.2492220
  C       -2.8095250     1.0776250    -0.6159580
  C       -3.7438200     0.2120800    -0.0497060
  H        0.0898220    -2.6479260    -0.4670950
  H        3.5165330     0.8472870     0.2502520
  H        0.1131400     1.9772450    -0.1334260
  H        2.4918570    -3.2637390    -0.4496120
  H        4.2036760    -1.4834020    -0.0698800
  H       -1.5082140    -2.0621420     1.1053590
  H       -3.9675240    -1.6332930     1.0562410
  H        2.5505250     2.8512150    -0.6889090
  H        2.6804910     2.7762290     1.0829750
  H        1.4421210     3.7916170     0.3400310
  H       -3.1269050     2.0013970    -1.0972120
  H       -4.8034740     0.4484120    -0.0854480
units angstrom
no_reorient  #important for SAPT in psi4, default
symmetry c1  #important for SAPT in psi4, default
}

set PROPERTIES_ORIGIN ["COM"]
properties('MP2/aug-cc-pvtz', properties = ['dipole'])
--------------------------------------------------------------------------

    Molecular point group: c1
  Charge       = 0
  Multiplicity = 1
  Basis Set: AUG-CC-PVTZ
    Blend: AUG-CC-PVTZ
  Basis Set: (AUG-CC-PVTZ AUX)
    Blend: AUG-CC-PVTZ-JKFIT

    Orbital Energies [Eh]
    ---------------------

    Doubly Occupied:

       1A    -15.568134     2A    -15.550095     3A    -11.289539
       4A    -11.281012     5A    -11.278739     6A    -11.262928
       7A    -11.250228     8A    -11.242205     9A    -11.241317
      10A    -11.237116    11A    -11.236053    12A    -11.232579
      13A    -11.220483    14A    -11.218401    15A     -1.262959
      16A     -1.227208    17A     -1.131745    18A     -1.088570
      19A     -1.060448    20A     -0.998162    21A     -0.991991
      22A     -0.916772    23A     -0.870943    24A     -0.860052
      25A     -0.804942    26A     -0.797678    27A     -0.720817
      28A     -0.698938    29A     -0.670260    30A     -0.658598
      31A     -0.648677    32A     -0.621742    33A     -0.607154
      34A     -0.601800    35A     -0.589522    36A     -0.575947
      37A     -0.565346    38A     -0.547840    39A     -0.534294
      40A     -0.530275    41A     -0.503753    42A     -0.497788
      43A     -0.488898    44A     -0.423959    45A     -0.417036
      46A     -0.387734    47A     -0.367041    48A     -0.317512
      49A     -0.279944

  @DF-RHF Final Energy:  -570.48930039644631

   => Energetics <=

    Nuclear Repulsion Energy =            818.6337035369449495
    One-Electron Energy =               -2397.4956645107640725
    Two-Electron Energy =                1008.3726605773728124
    Total Energy =                       -570.4893003964463105
  Basis Set: (AUG-CC-PVTZ AUX)
    Blend: AUG-CC-PVTZ-RI
    Molecular point group: c1

    Geometry (in Angstrom), charge = 0, multiplicity = 1:

       Center              X                  Y                   Z               Mass
    ------------   -----------------  -----------------  -----------------  -----------------
         N            0.998077421783     1.785051786993     0.324012980577    14.003074004430
         N           -1.464031678217     0.865528286993    -0.613803319423    14.003074004430
         C            0.442626321783    -0.542318713007    -0.072216319423    12.000000000000
         C            1.417533321783     0.480628286993     0.096962680577    12.000000000000
         C           -1.009975678217    -0.268241713007    -0.027413319423    12.000000000000
         C            0.863970321783    -1.863595713007    -0.277675319423    12.000000000000
         C            2.774615321783     0.108872286993     0.113236680577    12.000000000000
         C            2.212852321783    -2.213351713007    -0.275200319423    12.000000000000
         C            3.165824321783    -1.216039713007    -0.073565319423    12.000000000000
         C           -1.885854678217    -1.170309713007     0.600362680577    12.000000000000
         C           -3.255587678217    -0.923811713007     0.580735680577    12.000000000000
         C            1.996823321783     2.862966286993     0.253851680577    12.000000000000
         C           -2.787910678217     1.097534286993    -0.611328319423    12.000000000000
         C           -3.722205678217     0.231989286993    -0.045076319423    12.000000000000
         H            0.111436321783    -2.628016713007    -0.462465319423     1.007825032230
         H            3.538147321783     0.867196286993     0.254881680577     1.007825032230
         H            0.134754321783     1.997154286993    -0.128796319423     1.007825032230
         H            2.513471321783    -3.243829713007    -0.444982319423     1.007825032230
         H            4.225290321783    -1.463492713007    -0.065250319423     1.007825032230
         H           -1.486599678217    -2.042232713007     1.109988680577     1.007825032230
         H           -3.945909678217    -1.613383713007     1.060870680577     1.007825032230
         H            2.572139321783     2.871124286993    -0.684279319423     1.007825032230
         H            2.702105321783     2.796138286993     1.087604680577     1.007825032230
         H            1.463735321783     3.811526286993     0.344660680577     1.007825032230
         H           -3.105290678217     2.021306286993    -1.092582319423     1.007825032230
         H           -4.781859678217     0.468321286993    -0.080818319423     1.007825032230

  Basis Set: AUG-CC-PVTZ
    Blend: AUG-CC-PVTZ
  Basis Set: (AUG-CC-PVTZ AUX)
    Blend: AUG-CC-PVTZ-JKFIT
	 Reference Energy          =    -570.4893003964463105 [Eh]
	 Singles Energy            =      -0.0000000000000000 [Eh]
	 Same-Spin Energy          =      -0.6392987094471975 [Eh]
	 Opposite-Spin Energy      =      -1.9763687778275585 [Eh]
	 Correlation Energy        =      -2.6156674872747558 [Eh]
	 Total Energy              =    -573.1049678837210877 [Eh]

	 ================> DF-SCS-MP2 Energies <==================
	-----------------------------------------------------------
	 SCS Same-Spin Scale       =       0.3333333333333333 [-]
	 SCS Opposite-Spin Scale   =       1.2000000000000000 [-]
	 SCS Same-Spin Energy      =      -0.2130995698157325 [Eh]
	 SCS Opposite-Spin Energy  =      -2.3716425333930702 [Eh]
	 SCS Correlation Energy    =      -2.5847421032088027 [Eh]
	 SCS Total Energy          =    -573.0740424996550928 [Eh]
	-----------------------------------------------------------

  Dipole Moment: [D]
     X:    -1.7021      Y:     0.1801      Z:     0.3534     Total:     1.7477

*** Psi4 exiting successfully. Buy a developer a beer!
