                               Psi4 1.3.2 release

  ==> Input File <==

--------------------------------------------------------------------------
#psi4
#
memory 32 gb

molecule  {
0 1
  N        0.9996340     1.7721850     0.3204360
  N       -1.5729422     0.8201107    -0.5925324
  C        0.4210120    -0.5622280    -0.0768460
  C        1.3959190     0.4607190     0.0923330
  C       -1.0315900    -0.2881510    -0.0320430
  C        0.8423560    -1.8835050    -0.2823050
  C        2.7530010     0.0889630     0.1086070
  C        2.1912380    -2.2332610    -0.2798300
  C        3.1442100    -1.2359490    -0.0781950
  C       -1.9074690    -1.1902190     0.5957330
  C       -3.2772020    -0.9437210     0.5761060
  C        1.9752090     2.8430570     0.2492220
  C       -2.8095250     1.0776250    -0.6159580
  C       -3.7438200     0.2120800    -0.0497060
  H        0.0898220    -2.6479260    -0.4670950
  H        3.5165330     0.8472870     0.2502520
  H        0.1131400     1.9772450    -0.1334260
  H        2.4918570    -3.2637390    -0.4496120
  H        4.2036760    -1.4834020    -0.0698800
  H       -1.5082140    -2.0621420     1.1053590
  H       -3.9675240    -1.6332930     1.0562410
  H        2.5505250     2.8512150    -0.6889090
  H        2.6804910     2.7762290     1.0829750
  H        1.4421210     3.7916170     0.3400310
  H       -3.1269050     2.0013970    -1.0972120
  H       -4.8034740     0.4484120    -0.0854480
units angstrom
no_reorient  #important for SAPT in psi4, default
symmetry c1  #important for SAPT in psi4, default
}

set PROPERTIES_ORIGIN ["COM"]
properties('MP2/aug-cc-pvtz', properties = ['dipole'])
--------------------------------------------------------------------------

    Molecular point group: c1
  Charge       = 0
  Multiplicity = 1
  Basis Set: AUG-CC-PVTZ
    Blend: AUG-CC-PVTZ
  Basis Set: (AUG-CC-PVTZ AUX)
    Blend: AUG-CC-PVTZ-JKFIT

    Orbital Energies [Eh]
    ---------------------

    Doubly Occupied:

       1A    -15.556444     2A    -15.553450     3A    -11.289191
       4A    -11.280231     5A    -11.270442     6A    -11.258553
       7A    -11.250324     8A    -11.239728     9A    -11.238753
      10A    -11.238458    11A    -11.237005    12A    -11.235615
      13A    -11.221112    14A    -11.219521    15A     -1.279710
      16A     -1.233055    17A     -1.134564    18A     -1.086642
      19A     -1.064521    20A     -1.000171    21A     -0.993709
      22A     -0.916628    23A     -0.876471    24A     -0.854652
      25A     -0.810991    26A     -0.797032    27A     -0.723025
      28A     -0.701229    29A     -0.671540    30A     -0.659275
      31A     -0.652045    32A     -0.622406    33A     -0.610779
      34A     -0.603861    35A     -0.590972    36A     -0.576169
      37A     -0.569701    38A     -0.556107    39A     -0.535375
      40A     -0.531124    41A     -0.507147    42A     -0.500004
      43A     -0.489624    44A     -0.421925    45A     -0.402535
      46A     -0.388760    47A     -0.370333    48A     -0.316588
      49A     -0.280026

  @DF-RHF Final Energy:  -570.48627474174373

   => Energetics <=

    Nuclear Repulsion Energy =            819.4502376781035764
    One-Electron Energy =               -2399.0379799584452485
    Two-Electron Energy =                1009.1014675385979444
    Total Energy =                       -570.4862747417437276
  Basis Set: (AUG-CC-PVTZ AUX)
    Blend: AUG-CC-PVTZ-RI
    Molecular point group: c1

    Geometry (in Angstrom), charge = 0, multiplicity = 1:

       Center              X                  Y                   Z               Mass
    ------------   -----------------  -----------------  -----------------  -----------------
         N            1.026125839900     1.793498838302     0.323015550455    14.003074004430
         N           -1.546450360100     0.841424538302    -0.589952849545    14.003074004430
         C            0.447503839900    -0.540914161698    -0.074266449545    12.000000000000
         C            1.422410839900     0.482032838302     0.094912550455    12.000000000000
         C           -1.005098160100    -0.266837161698    -0.029463449545    12.000000000000
         C            0.868847839900    -1.862191161698    -0.279725449545    12.000000000000
         C            2.779492839900     0.110276838302     0.111186550455    12.000000000000
         C            2.217729839900    -2.211947161698    -0.277250449545    12.000000000000
         C            3.170701839900    -1.214635161698    -0.075615449545    12.000000000000
         C           -1.880977160100    -1.168905161698     0.598312550455    12.000000000000
         C           -3.250710160100    -0.922407161698     0.578685550455    12.000000000000
         C            2.001700839900     2.864370838302     0.251801550455    12.000000000000
         C           -2.783033160100     1.098938838302    -0.613378449545    12.000000000000
         C           -3.717328160100     0.233393838302    -0.047126449545    12.000000000000
         H            0.116313839900    -2.626612161698    -0.464515449545     1.007825032230
         H            3.543024839900     0.868600838302     0.252831550455     1.007825032230
         H            0.139631839900     1.998558838302    -0.130846449545     1.007825032230
         H            2.518348839900    -3.242425161698    -0.447032449545     1.007825032230
         H            4.230167839900    -1.462088161698    -0.067300449545     1.007825032230
         H           -1.481722160100    -2.040828161698     1.107938550455     1.007825032230
         H           -3.941032160100    -1.611979161698     1.058820550455     1.007825032230
         H            2.577016839900     2.872528838302    -0.686329449545     1.007825032230
         H            2.706982839900     2.797542838302     1.085554550455     1.007825032230
         H            1.468612839900     3.812930838302     0.342610550455     1.007825032230
         H           -3.100413160100     2.022710838302    -1.094632449545     1.007825032230
         H           -4.776982160100     0.469725838302    -0.082868449545     1.007825032230

  Basis Set: AUG-CC-PVTZ
    Blend: AUG-CC-PVTZ
  Basis Set: (AUG-CC-PVTZ AUX)
    Blend: AUG-CC-PVTZ-JKFIT
	 Reference Energy          =    -570.4862747417437276 [Eh]
	 Singles Energy            =      -0.0000000000000000 [Eh]
	 Same-Spin Energy          =      -0.6386550264757556 [Eh]
	 Opposite-Spin Energy      =      -1.9739229704006500 [Eh]
	 Correlation Energy        =      -2.6125779968764054 [Eh]
	 Total Energy              =    -573.0988527386201667 [Eh]

	 ================> DF-SCS-MP2 Energies <==================
	-----------------------------------------------------------
	 SCS Same-Spin Scale       =       0.3333333333333333 [-]
	 SCS Opposite-Spin Scale   =       1.2000000000000000 [-]
	 SCS Same-Spin Energy      =      -0.2128850088252519 [Eh]
	 SCS Opposite-Spin Energy  =      -2.3687075644807800 [Eh]
	 SCS Correlation Energy    =      -2.5815925733060316 [Eh]
	 SCS Total Energy          =    -573.0678673150497389 [Eh]
	-----------------------------------------------------------

  Dipole Moment: [D]
     X:    -1.4785      Y:     0.2289      Z:     0.3069     Total:     1.5272

*** Psi4 exiting successfully. Buy a developer a beer!
