                               Psi4 1.3.2 release

  ==> Input File <==

--------------------------------------------------------------------------
#psi4
#
memory 32 gb

molecule  {
0 1
  N        0.9996340     1.7721850     0.3204360
  N       -1.4856460     0.8456190    -0.6184330
  C        0.4210120    -0.5622280    -0.0768460
  C        1.4315084     0.4264445     0.0871949
  C       -1.0315900    -0.2881510    -0.0320430
  C        0.8423560    -1.8835050    -0.2823050
  C        2.7530010     0.0889630     0.1086070
  C        2.1912380    -2.2332610    -0.2798300
  C        3.1442100    -1.2359490    -0.0781950
  C       -1.9074690    -1.1902190     0.5957330
  C       -3.2772020    -0.9437210     0.5761060
  C        1.9752090     2.8430570     0.2492220
  C       -2.8095250     1.0776250    -0.6159580
  C       -3.7438200     0.2120800    -0.0497060
  H        0.0898220    -2.6479260    -0.4670950
  H        3.5165330     0.8472870     0.2502520
  H        0.1131400     1.9772450    -0.1334260
  H        2.4918570    -3.2637390    -0.4496120
  H        4.2036760    -1.4834020    -0.0698800
  H       -1.5082140    -2.0621420     1.1053590
  H       -3.9675240    -1.6332930     1.0562410
  H        2.5505250     2.8512150    -0.6889090
  H        2.6804910     2.7762290     1.0829750
  H        1.4421210     3.7916170     0.3400310
  H       -3.1269050     2.0013970    -1.0972120
  H       -4.8034740     0.4484120    -0.0854480
units angstrom
no_reorient  #important for SAPT in psi4, default
symmetry c1  #important for SAPT in psi4, default
}

set PROPERTIES_ORIGIN ["COM"]
properties('MP2/aug-cc-pvtz', properties = ['dipole'])
--------------------------------------------------------------------------

    Molecular point group: c1
  Charge       = 0
  Multiplicity = 1
  Basis Set: AUG-CC-PVTZ
    Blend: AUG-CC-PVTZ
  Basis Set: (AUG-CC-PVTZ AUX)
    Blend: AUG-CC-PVTZ-JKFIT

    Orbital Energies [Eh]
    ---------------------

    Doubly Occupied:

       1A    -15.569231     2A    -15.544991     3A    -11.291592
       4A    -11.281688     5A    -11.274914     6A    -11.263861
       7A    -11.244181     8A    -11.243330     9A    -11.242845
      10A    -11.238299    11A    -11.237297    12A    -11.235811
      13A    -11.221011    14A    -11.217445    15A     -1.262679
      16A     -1.216649    17A     -1.134697    18A     -1.089559
      19A     -1.062619    20A     -1.004407    21A     -0.992789
      22A     -0.908961    23A     -0.873245    24A     -0.860485
      25A     -0.807760    26A     -0.795832    27A     -0.721701
      28A     -0.695030    29A     -0.671434    30A     -0.657711
      31A     -0.647448    32A     -0.620379    33A     -0.608780
      34A     -0.600753    35A     -0.590600    36A     -0.577432
      37A     -0.565901    38A     -0.548106    39A     -0.534427
      40A     -0.525851    41A     -0.505034    42A     -0.496892
      43A     -0.490692    44A     -0.422360    45A     -0.411273
      46A     -0.388440    47A     -0.368310    48A     -0.319776
      49A     -0.284281

  @DF-RHF Final Energy:  -570.48695335596017

   => Energetics <=

    Nuclear Repulsion Energy =            818.5011287504673874
    One-Electron Energy =               -2397.2385900427511842
    Two-Electron Energy =                1008.2505079363236291
    Total Energy =                       -570.4869533559601678
  Basis Set: (AUG-CC-PVTZ AUX)
    Blend: AUG-CC-PVTZ-RI
    Molecular point group: c1

    Geometry (in Angstrom), charge = 0, multiplicity = 1:

       Center              X                  Y                   Z               Mass
    ------------   -----------------  -----------------  -----------------  -----------------
         N            1.017166103261     1.793792696929     0.325320521161    14.003074004430
         N           -1.468113896739     0.867226696929    -0.613548478839    14.003074004430
         C            0.438544103261    -0.540620303071    -0.071961478839    12.000000000000
         C            1.449040503261     0.448052196929     0.092079421161    12.000000000000
         C           -1.014057896739    -0.266543303071    -0.027158478839    12.000000000000
         C            0.859888103261    -1.861897303071    -0.277420478839    12.000000000000
         C            2.770533103261     0.110570696929     0.113491521161    12.000000000000
         C            2.208770103261    -2.211653303071    -0.274945478839    12.000000000000
         C            3.161742103261    -1.214341303071    -0.073310478839    12.000000000000
         C           -1.889936896739    -1.168611303071     0.600617521161    12.000000000000
         C           -3.259669896739    -0.922113303071     0.580990521161    12.000000000000
         C            1.992741103261     2.864664696929     0.254106521161    12.000000000000
         C           -2.791992896739     1.099232696929    -0.611073478839    12.000000000000
         C           -3.726287896739     0.233687696929    -0.044821478839    12.000000000000
         H            0.107354103261    -2.626318303071    -0.462210478839     1.007825032230
         H            3.534065103261     0.868894696929     0.255136521161     1.007825032230
         H            0.130672103261     1.998852696929    -0.128541478839     1.007825032230
         H            2.509389103261    -3.242131303071    -0.444727478839     1.007825032230
         H            4.221208103261    -1.461794303071    -0.064995478839     1.007825032230
         H           -1.490681896739    -2.040534303071     1.110243521161     1.007825032230
         H           -3.949991896739    -1.611685303071     1.061125521161     1.007825032230
         H            2.568057103261     2.872822696929    -0.684024478839     1.007825032230
         H            2.698023103261     2.797836696929     1.087859521161     1.007825032230
         H            1.459653103261     3.813224696929     0.344915521161     1.007825032230
         H           -3.109372896739     2.023004696929    -1.092327478839     1.007825032230
         H           -4.785941896739     0.470019696929    -0.080563478839     1.007825032230

  Basis Set: AUG-CC-PVTZ
    Blend: AUG-CC-PVTZ
  Basis Set: (AUG-CC-PVTZ AUX)
    Blend: AUG-CC-PVTZ-JKFIT
	 Reference Energy          =    -570.4869533559601678 [Eh]
	 Singles Energy            =      -0.0000000000000000 [Eh]
	 Same-Spin Energy          =      -0.6392075100197268 [Eh]
	 Opposite-Spin Energy      =      -1.9763096213205347 [Eh]
	 Correlation Energy        =      -2.6155171313402614 [Eh]
	 Total Energy              =    -573.1024704873004794 [Eh]

	 ================> DF-SCS-MP2 Energies <==================
	-----------------------------------------------------------
	 SCS Same-Spin Scale       =       0.3333333333333333 [-]
	 SCS Opposite-Spin Scale   =       1.2000000000000000 [-]
	 SCS Same-Spin Energy      =      -0.2130691700065756 [Eh]
	 SCS Opposite-Spin Energy  =      -2.3715715455846413 [Eh]
	 SCS Correlation Energy    =      -2.5846407155912168 [Eh]
	 SCS Total Energy          =    -573.0715940715514307 [Eh]
	-----------------------------------------------------------

  Dipole Moment: [D]
     X:    -1.7622      Y:    -0.1376      Z:     0.3088     Total:     1.7944

*** Psi4 exiting successfully. Buy a developer a beer!
