                               Psi4 1.3.2 release

  ==> Input File <==

--------------------------------------------------------------------------
#psi4
#
memory 32 gb

molecule  {
0 1
  N        0.9996340     1.7721850     0.3204360
  N       -1.4856460     0.8456190    -0.6184330
  C        0.4210120    -0.5622280    -0.0768460
  C        1.3731037     0.4534075     0.0960208
  C       -1.0315900    -0.2881510    -0.0320430
  C        0.8423560    -1.8835050    -0.2823050
  C        2.7530010     0.0889630     0.1086070
  C        2.1912380    -2.2332610    -0.2798300
  C        3.1442100    -1.2359490    -0.0781950
  C       -1.9074690    -1.1902190     0.5957330
  C       -3.2772020    -0.9437210     0.5761060
  C        1.9752090     2.8430570     0.2492220
  C       -2.8095250     1.0776250    -0.6159580
  C       -3.7438200     0.2120800    -0.0497060
  H        0.0898220    -2.6479260    -0.4670950
  H        3.5165330     0.8472870     0.2502520
  H        0.1131400     1.9772450    -0.1334260
  H        2.4918570    -3.2637390    -0.4496120
  H        4.2036760    -1.4834020    -0.0698800
  H       -1.5082140    -2.0621420     1.1053590
  H       -3.9675240    -1.6332930     1.0562410
  H        2.5505250     2.8512150    -0.6889090
  H        2.6804910     2.7762290     1.0829750
  H        1.4421210     3.7916170     0.3400310
  H       -3.1269050     2.0013970    -1.0972120
  H       -4.8034740     0.4484120    -0.0854480
units angstrom
no_reorient  #important for SAPT in psi4, default
symmetry c1  #important for SAPT in psi4, default
}

set PROPERTIES_ORIGIN ["COM"]
properties('MP2/aug-cc-pvtz', properties = ['dipole'])
--------------------------------------------------------------------------

    Molecular point group: c1
  Charge       = 0
  Multiplicity = 1
  Basis Set: AUG-CC-PVTZ
    Blend: AUG-CC-PVTZ
  Basis Set: (AUG-CC-PVTZ AUX)
    Blend: AUG-CC-PVTZ-JKFIT

    Orbital Energies [Eh]
    ---------------------

    Doubly Occupied:

       1A    -15.568557     2A    -15.550443     3A    -11.289593
       4A    -11.281334     5A    -11.279166     6A    -11.263184
       7A    -11.249433     8A    -11.242362     9A    -11.241378
      10A    -11.237531    11A    -11.235486    12A    -11.230892
      13A    -11.222203    14A    -11.218354    15A     -1.263378
      16A     -1.228546    17A     -1.132709    18A     -1.088842
      19A     -1.060653    20A     -0.996784    21A     -0.994590
      22A     -0.915880    23A     -0.870194    24A     -0.860335
      25A     -0.806277    26A     -0.796585    27A     -0.720642
      28A     -0.696911    29A     -0.671064    30A     -0.657880
      31A     -0.650539    32A     -0.621417    33A     -0.608653
      34A     -0.601494    35A     -0.590089    36A     -0.576807
      37A     -0.568491    38A     -0.548318    39A     -0.533789
      40A     -0.529191    41A     -0.503777    42A     -0.497967
      43A     -0.489343    44A     -0.422613    45A     -0.416491
      46A     -0.387889    47A     -0.367113    48A     -0.317055
      49A     -0.279771

  @DF-RHF Final Energy:  -570.48915126505415

   => Energetics <=

    Nuclear Repulsion Energy =            818.7478956723167585
    One-Electron Energy =               -2397.7101122323806521
    Two-Electron Energy =                1008.4730652950098602
    Total Energy =                       -570.4891512650541472
  Basis Set: (AUG-CC-PVTZ AUX)
    Blend: AUG-CC-PVTZ-RI
    Molecular point group: c1

    Geometry (in Angstrom), charge = 0, multiplicity = 1:

       Center              X                  Y                   Z               Mass
    ------------   -----------------  -----------------  -----------------  -----------------
         N            1.020973035448     1.792035196033     0.324745231796    14.003074004430
         N           -1.464306964552     0.865469196033    -0.614123768204    14.003074004430
         C            0.442351035448    -0.542377803967    -0.072536768204    12.000000000000
         C            1.394442735448     0.473257696033     0.100330031796    12.000000000000
         C           -1.010250964552    -0.268300803967    -0.027733768204    12.000000000000
         C            0.863695035448    -1.863654803967    -0.277995768204    12.000000000000
         C            2.774340035448     0.108813196033     0.112916231796    12.000000000000
         C            2.212577035448    -2.213410803967    -0.275520768204    12.000000000000
         C            3.165549035448    -1.216098803967    -0.073885768204    12.000000000000
         C           -1.886129964552    -1.170368803967     0.600042231796    12.000000000000
         C           -3.255862964552    -0.923870803967     0.580415231796    12.000000000000
         C            1.996548035448     2.862907196033     0.253531231796    12.000000000000
         C           -2.788185964552     1.097475196033    -0.611648768204    12.000000000000
         C           -3.722480964552     0.231930196033    -0.045396768204    12.000000000000
         H            0.111161035448    -2.628075803967    -0.462785768204     1.007825032230
         H            3.537872035448     0.867137196033     0.254561231796     1.007825032230
         H            0.134479035448     1.997095196033    -0.129116768204     1.007825032230
         H            2.513196035448    -3.243888803967    -0.445302768204     1.007825032230
         H            4.225015035448    -1.463551803967    -0.065570768204     1.007825032230
         H           -1.486874964552    -2.042291803967     1.109668231796     1.007825032230
         H           -3.946184964552    -1.613442803967     1.060550231796     1.007825032230
         H            2.571864035448     2.871065196033    -0.684599768204     1.007825032230
         H            2.701830035448     2.796079196033     1.087284231796     1.007825032230
         H            1.463460035448     3.811467196033     0.344340231796     1.007825032230
         H           -3.105565964552     2.021247196033    -1.092902768204     1.007825032230
         H           -4.782134964552     0.468262196033    -0.081138768204     1.007825032230

  Basis Set: AUG-CC-PVTZ
    Blend: AUG-CC-PVTZ
  Basis Set: (AUG-CC-PVTZ AUX)
    Blend: AUG-CC-PVTZ-JKFIT
	 Reference Energy          =    -570.4891512650541472 [Eh]
	 Singles Energy            =      -0.0000000000000000 [Eh]
	 Same-Spin Energy          =      -0.6394593854042069 [Eh]
	 Opposite-Spin Energy      =      -1.9764712672439984 [Eh]
	 Correlation Energy        =      -2.6159306526482053 [Eh]
	 Total Energy              =    -573.1050819177023641 [Eh]

	 ================> DF-SCS-MP2 Energies <==================
	-----------------------------------------------------------
	 SCS Same-Spin Scale       =       0.3333333333333333 [-]
	 SCS Opposite-Spin Scale   =       1.2000000000000000 [-]
	 SCS Same-Spin Energy      =      -0.2131531284680689 [Eh]
	 SCS Opposite-Spin Energy  =      -2.3717655206927981 [Eh]
	 SCS Correlation Energy    =      -2.5849186491608669 [Eh]
	 SCS Total Energy          =    -573.0740699142149879 [Eh]
	-----------------------------------------------------------

  Dipole Moment: [D]
     X:    -1.7497      Y:     0.1778      Z:     0.3644     Total:     1.7961

*** Psi4 exiting successfully. Buy a developer a beer!
