                               Psi4 1.3.2 release

  ==> Input File <==

--------------------------------------------------------------------------
#psi4
#
memory 32 gb

molecule  {
0 1
  N        0.9996340     1.7721850     0.3204360
  N       -1.6155016     0.8058567    -0.5776150
  C        0.4210120    -0.5622280    -0.0768460
  C        1.3959190     0.4607190     0.0923330
  C       -1.0315900    -0.2881510    -0.0320430
  C        0.8423560    -1.8835050    -0.2823050
  C        2.7530010     0.0889630     0.1086070
  C        2.1912380    -2.2332610    -0.2798300
  C        3.1442100    -1.2359490    -0.0781950
  C       -1.9074690    -1.1902190     0.5957330
  C       -3.2772020    -0.9437210     0.5761060
  C        1.9752090     2.8430570     0.2492220
  C       -2.8095250     1.0776250    -0.6159580
  C       -3.7438200     0.2120800    -0.0497060
  H        0.0898220    -2.6479260    -0.4670950
  H        3.5165330     0.8472870     0.2502520
  H        0.1131400     1.9772450    -0.1334260
  H        2.4918570    -3.2637390    -0.4496120
  H        4.2036760    -1.4834020    -0.0698800
  H       -1.5082140    -2.0621420     1.1053590
  H       -3.9675240    -1.6332930     1.0562410
  H        2.5505250     2.8512150    -0.6889090
  H        2.6804910     2.7762290     1.0829750
  H        1.4421210     3.7916170     0.3400310
  H       -3.1269050     2.0013970    -1.0972120
  H       -4.8034740     0.4484120    -0.0854480
units angstrom
no_reorient  #important for SAPT in psi4, default
symmetry c1  #important for SAPT in psi4, default
}

set PROPERTIES_ORIGIN ["COM"]
properties('MP2/aug-cc-pvtz', properties = ['dipole'])
--------------------------------------------------------------------------

    Molecular point group: c1
  Charge       = 0
  Multiplicity = 1
  Basis Set: AUG-CC-PVTZ
    Blend: AUG-CC-PVTZ
  Basis Set: (AUG-CC-PVTZ AUX)
    Blend: AUG-CC-PVTZ-JKFIT

    Orbital Energies [Eh]
    ---------------------

    Doubly Occupied:

       1A    -15.554922     2A    -15.550070     3A    -11.289102
       4A    -11.280838     5A    -11.264798     6A    -11.256126
       7A    -11.251151     8A    -11.239383     9A    -11.238989
      10A    -11.237502    11A    -11.236893    12A    -11.236453
      13A    -11.221688    14A    -11.220094    15A     -1.289688
      16A     -1.234712    17A     -1.135650    18A     -1.086779
      19A     -1.065183    20A     -1.000845    21A     -0.994265
      22A     -0.917214    23A     -0.878856    24A     -0.851978
      25A     -0.813657    26A     -0.797417    27A     -0.724484
      28A     -0.703367    29A     -0.671955    30A     -0.660468
      31A     -0.652317    32A     -0.622661    33A     -0.611858
      34A     -0.604723    35A     -0.591607    36A     -0.575726
      37A     -0.570716    38A     -0.560713    39A     -0.535836
      40A     -0.532082    41A     -0.508702    42A     -0.501282
      43A     -0.489963    44A     -0.422589    45A     -0.393590
      46A     -0.389830    47A     -0.370659    48A     -0.316137
      49A     -0.280225

  @DF-RHF Final Energy:  -570.47698594815279

   => Energetics <=

    Nuclear Repulsion Energy =            819.9623536618428261
    One-Electron Energy =               -2400.0071938462447179
    Two-Electron Energy =                1009.5678542362491044
    Total Energy =                       -570.4769859481527874
  Basis Set: (AUG-CC-PVTZ AUX)
    Blend: AUG-CC-PVTZ-RI
    Molecular point group: c1

    Geometry (in Angstrom), charge = 0, multiplicity = 1:

       Center              X                  Y                   Z               Mass
    ------------   -----------------  -----------------  -----------------  -----------------
         N            1.029363005957     1.794583030395     0.321880898629    14.003074004430
         N           -1.585772594043     0.828254730395    -0.576170101371    14.003074004430
         C            0.450741005957    -0.539829969605    -0.075401101371    12.000000000000
         C            1.425648005957     0.483117030395     0.093777898629    12.000000000000
         C           -1.001860994043    -0.265752969605    -0.030598101371    12.000000000000
         C            0.872085005957    -1.861106969605    -0.280860101371    12.000000000000
         C            2.782730005957     0.111361030395     0.110051898629    12.000000000000
         C            2.220967005957    -2.210862969605    -0.278385101371    12.000000000000
         C            3.173939005957    -1.213550969605    -0.076750101371    12.000000000000
         C           -1.877739994043    -1.167820969605     0.597177898629    12.000000000000
         C           -3.247472994043    -0.921322969605     0.577550898629    12.000000000000
         C            2.004938005957     2.865455030395     0.250666898629    12.000000000000
         C           -2.779795994043     1.100023030395    -0.614513101371    12.000000000000
         C           -3.714090994043     0.234478030395    -0.048261101371    12.000000000000
         H            0.119551005957    -2.625527969605    -0.465650101371     1.007825032230
         H            3.546262005957     0.869685030395     0.251696898629     1.007825032230
         H            0.142869005957     1.999643030395    -0.131981101371     1.007825032230
         H            2.521586005957    -3.241340969605    -0.448167101371     1.007825032230
         H            4.233405005957    -1.461003969605    -0.068435101371     1.007825032230
         H           -1.478484994043    -2.039743969605     1.106803898629     1.007825032230
         H           -3.937794994043    -1.610894969605     1.057685898629     1.007825032230
         H            2.580254005957     2.873613030395    -0.687464101371     1.007825032230
         H            2.710220005957     2.798627030395     1.084419898629     1.007825032230
         H            1.471850005957     3.814015030395     0.341475898629     1.007825032230
         H           -3.097175994043     2.023795030395    -1.095767101371     1.007825032230
         H           -4.773744994043     0.470810030395    -0.084003101371     1.007825032230

  Basis Set: AUG-CC-PVTZ
    Blend: AUG-CC-PVTZ
  Basis Set: (AUG-CC-PVTZ AUX)
    Blend: AUG-CC-PVTZ-JKFIT
	 Reference Energy          =    -570.4769859481527874 [Eh]
	 Singles Energy            =      -0.0000000000000000 [Eh]
	 Same-Spin Energy          =      -0.6383616987694627 [Eh]
	 Opposite-Spin Energy      =      -1.9731074919666605 [Eh]
	 Correlation Energy        =      -2.6114691907361234 [Eh]
	 Total Energy              =    -573.0884551388888895 [Eh]

	 ================> DF-SCS-MP2 Energies <==================
	-----------------------------------------------------------
	 SCS Same-Spin Scale       =       0.3333333333333333 [-]
	 SCS Opposite-Spin Scale   =       1.2000000000000000 [-]
	 SCS Same-Spin Energy      =      -0.2127872329231542 [Eh]
	 SCS Opposite-Spin Energy  =      -2.3677289903599923 [Eh]
	 SCS Correlation Energy    =      -2.5805162232831464 [Eh]
	 SCS Total Energy          =    -573.0575021714358854 [Eh]
	-----------------------------------------------------------

  Dipole Moment: [D]
     X:    -1.3124      Y:     0.2627      Z:     0.2751     Total:     1.3664

*** Psi4 exiting successfully. Buy a developer a beer!
