                               Psi4 1.3.2 release

  ==> Input File <==

--------------------------------------------------------------------------
#psi4
#
memory 32 gb

molecule  {
0 1
  N        0.9996340     1.7721850     0.3204360
  N       -1.4856460     0.8456190    -0.6184330
  C        0.4210120    -0.5622280    -0.0768460
  C        1.3959190     0.4607190     0.0923330
  C       -0.8351479    -0.3252157    -0.0381019
  C        0.8423560    -1.8835050    -0.2823050
  C        2.7530010     0.0889630     0.1086070
  C        2.1912380    -2.2332610    -0.2798300
  C        3.1442100    -1.2359490    -0.0781950
  C       -1.9074690    -1.1902190     0.5957330
  C       -3.2772020    -0.9437210     0.5761060
  C        1.9752090     2.8430570     0.2492220
  C       -2.8095250     1.0776250    -0.6159580
  C       -3.7438200     0.2120800    -0.0497060
  H        0.0898220    -2.6479260    -0.4670950
  H        3.5165330     0.8472870     0.2502520
  H        0.1131400     1.9772450    -0.1334260
  H        2.4918570    -3.2637390    -0.4496120
  H        4.2036760    -1.4834020    -0.0698800
  H       -1.5082140    -2.0621420     1.1053590
  H       -3.9675240    -1.6332930     1.0562410
  H        2.5505250     2.8512150    -0.6889090
  H        2.6804910     2.7762290     1.0829750
  H        1.4421210     3.7916170     0.3400310
  H       -3.1269050     2.0013970    -1.0972120
  H       -4.8034740     0.4484120    -0.0854480
units angstrom
no_reorient  #important for SAPT in psi4, default
symmetry c1  #important for SAPT in psi4, default
}

set PROPERTIES_ORIGIN ["COM"]
properties('MP2/aug-cc-pvtz', properties = ['dipole'])
--------------------------------------------------------------------------

    Molecular point group: c1
  Charge       = 0
  Multiplicity = 1
  Basis Set: AUG-CC-PVTZ
    Blend: AUG-CC-PVTZ
  Basis Set: (AUG-CC-PVTZ AUX)
    Blend: AUG-CC-PVTZ-JKFIT

    Orbital Energies [Eh]
    ---------------------

    Doubly Occupied:

       1A    -15.562187     2A    -15.558806     3A    -11.296554
       4A    -11.292304     5A    -11.273183     6A    -11.254666
       7A    -11.253889     8A    -11.250143     9A    -11.249051
      10A    -11.245771    11A    -11.232798    12A    -11.228195
      13A    -11.226638    14A    -11.223948    15A     -1.251615
      16A     -1.216064    17A     -1.150517    18A     -1.084851
      19A     -1.068556    20A     -1.008307    21A     -0.984098
      22A     -0.925848    23A     -0.890961    24A     -0.840270
      25A     -0.805577    26A     -0.797964    27A     -0.732008
      28A     -0.698503    29A     -0.674115    30A     -0.669761
      31A     -0.639630    32A     -0.622352    33A     -0.613060
      34A     -0.605925    35A     -0.591338    36A     -0.577739
      37A     -0.570212    38A     -0.539253    39A     -0.537341
      40A     -0.530506    41A     -0.508082    42A     -0.500752
      43A     -0.498226    44A     -0.427676    45A     -0.398538
      46A     -0.378630    47A     -0.367495    48A     -0.312937
      49A     -0.273032

  @DF-RHF Final Energy:  -570.42148673896622

   => Energetics <=

    Nuclear Repulsion Energy =            819.1687544085928039
    One-Electron Energy =               -2398.3007422217265230
    Two-Electron Energy =                1008.7105010741674960
    Total Energy =                       -570.4214867389662231
  Basis Set: (AUG-CC-PVTZ AUX)
    Blend: AUG-CC-PVTZ-RI
    Molecular point group: c1

    Geometry (in Angstrom), charge = 0, multiplicity = 1:

       Center              X                  Y                   Z               Mass
    ------------   -----------------  -----------------  -----------------  -----------------
         N            1.006681410743     1.793974567603     0.325380540700    14.003074004430
         N           -1.478598589257     0.867408567603    -0.613488459300    14.003074004430
         C            0.428059410743    -0.540438432397    -0.071901459300    12.000000000000
         C            1.402966410743     0.482508567603     0.097277540700    12.000000000000
         C           -0.828100489257    -0.303426132397    -0.033157359300    12.000000000000
         C            0.849403410743    -1.861715432397    -0.277360459300    12.000000000000
         C            2.760048410743     0.110752567603     0.113551540700    12.000000000000
         C            2.198285410743    -2.211471432397    -0.274885459300    12.000000000000
         C            3.151257410743    -1.214159432397    -0.073250459300    12.000000000000
         C           -1.900421589257    -1.168429432397     0.600677540700    12.000000000000
         C           -3.270154589257    -0.921931432397     0.581050540700    12.000000000000
         C            1.982256410743     2.864846567603     0.254166540700    12.000000000000
         C           -2.802477589257     1.099414567603    -0.611013459300    12.000000000000
         C           -3.736772589257     0.233869567603    -0.044761459300    12.000000000000
         H            0.096869410743    -2.626136432397    -0.462150459300     1.007825032230
         H            3.523580410743     0.869076567603     0.255196540700     1.007825032230
         H            0.120187410743     1.999034567603    -0.128481459300     1.007825032230
         H            2.498904410743    -3.241949432397    -0.444667459300     1.007825032230
         H            4.210723410743    -1.461612432397    -0.064935459300     1.007825032230
         H           -1.501166589257    -2.040352432397     1.110303540700     1.007825032230
         H           -3.960476589257    -1.611503432397     1.061185540700     1.007825032230
         H            2.557572410743     2.873004567603    -0.683964459300     1.007825032230
         H            2.687538410743     2.798018567603     1.087919540700     1.007825032230
         H            1.449168410743     3.813406567603     0.344975540700     1.007825032230
         H           -3.119857589257     2.023186567603    -1.092267459300     1.007825032230
         H           -4.796426589257     0.470201567603    -0.080503459300     1.007825032230

  Basis Set: AUG-CC-PVTZ
    Blend: AUG-CC-PVTZ
  Basis Set: (AUG-CC-PVTZ AUX)
    Blend: AUG-CC-PVTZ-JKFIT
	 Reference Energy          =    -570.4214867389662231 [Eh]
	 Singles Energy            =      -0.0000000000000000 [Eh]
	 Same-Spin Energy          =      -0.6452576112252766 [Eh]
	 Opposite-Spin Energy      =      -1.9859811921023622 [Eh]
	 Correlation Energy        =      -2.6312388033276388 [Eh]
	 Total Energy              =    -573.0527255422938424 [Eh]

	 ================> DF-SCS-MP2 Energies <==================
	-----------------------------------------------------------
	 SCS Same-Spin Scale       =       0.3333333333333333 [-]
	 SCS Opposite-Spin Scale   =       1.2000000000000000 [-]
	 SCS Same-Spin Energy      =      -0.2150858704084255 [Eh]
	 SCS Opposite-Spin Energy  =      -2.3831774305228346 [Eh]
	 SCS Correlation Energy    =      -2.5982633009312601 [Eh]
	 SCS Total Energy          =    -573.0197500398975308 [Eh]
	-----------------------------------------------------------

  Dipole Moment: [D]
     X:    -0.7054      Y:     0.1052      Z:     0.3586     Total:     0.7983

*** Psi4 exiting successfully. Buy a developer a beer!
