                               Psi4 1.3.2 release

  ==> Input File <==

--------------------------------------------------------------------------
#psi4
#
memory 32 gb

molecule  {
0 1
  N        0.9996340     1.7721850     0.3204360
  N       -1.4856460     0.8456190    -0.6184330
  C        0.4210120    -0.5622280    -0.0768460
  C        1.4411806     0.4765381     0.0851670
  C       -1.0315900    -0.2881510    -0.0320430
  C        0.8423560    -1.8835050    -0.2823050
  C        2.7530010     0.0889630     0.1086070
  C        2.1912380    -2.2332610    -0.2798300
  C        3.1442100    -1.2359490    -0.0781950
  C       -1.9074690    -1.1902190     0.5957330
  C       -3.2772020    -0.9437210     0.5761060
  C        1.9752090     2.8430570     0.2492220
  C       -2.8095250     1.0776250    -0.6159580
  C       -3.7438200     0.2120800    -0.0497060
  H        0.0898220    -2.6479260    -0.4670950
  H        3.5165330     0.8472870     0.2502520
  H        0.1131400     1.9772450    -0.1334260
  H        2.4918570    -3.2637390    -0.4496120
  H        4.2036760    -1.4834020    -0.0698800
  H       -1.5082140    -2.0621420     1.1053590
  H       -3.9675240    -1.6332930     1.0562410
  H        2.5505250     2.8512150    -0.6889090
  H        2.6804910     2.7762290     1.0829750
  H        1.4421210     3.7916170     0.3400310
  H       -3.1269050     2.0013970    -1.0972120
  H       -4.8034740     0.4484120    -0.0854480
units angstrom
no_reorient  #important for SAPT in psi4, default
symmetry c1  #important for SAPT in psi4, default
}

set PROPERTIES_ORIGIN ["COM"]
properties('MP2/aug-cc-pvtz', properties = ['dipole'])
--------------------------------------------------------------------------

    Molecular point group: c1
  Charge       = 0
  Multiplicity = 1
  Basis Set: AUG-CC-PVTZ
    Blend: AUG-CC-PVTZ
  Basis Set: (AUG-CC-PVTZ AUX)
    Blend: AUG-CC-PVTZ-JKFIT

    Orbital Energies [Eh]
    ---------------------

    Doubly Occupied:

       1A    -15.568795     2A    -15.550523     3A    -11.290523
       4A    -11.281472     5A    -11.278115     6A    -11.263346
       7A    -11.247264     8A    -11.242614     9A    -11.241829
      10A    -11.237834    11A    -11.236739    12A    -11.236586
      13A    -11.218663    14A    -11.215351    15A     -1.262976
      16A     -1.229380    17A     -1.132026    18A     -1.089012
      19A     -1.060837    20A     -1.003405    21A     -0.989169
      22A     -0.915102    23A     -0.872722    24A     -0.860031
      25A     -0.805907    26A     -0.792644    27A     -0.720796
      28A     -0.699806    29A     -0.670170    30A     -0.659197
      31A     -0.648333    32A     -0.623734    33A     -0.608822
      34A     -0.603530    35A     -0.589167    36A     -0.575716
      37A     -0.566526    38A     -0.548621    39A     -0.534341
      40A     -0.528158    41A     -0.503983    42A     -0.498606
      43A     -0.484870    44A     -0.424083    45A     -0.416137
      46A     -0.388519    47A     -0.367719    48A     -0.318965
      49A     -0.278878

  @DF-RHF Final Energy:  -570.48678268879019

   => Energetics <=

    Nuclear Repulsion Energy =            818.2723853936007572
    One-Electron Energy =               -2396.7552543360939126
    Two-Electron Energy =                1007.9960862537028561
    Total Energy =                       -570.4867826887901856
  Basis Set: (AUG-CC-PVTZ AUX)
    Blend: AUG-CC-PVTZ-RI
    Molecular point group: c1

    Geometry (in Angstrom), charge = 0, multiplicity = 1:

       Center              X                  Y                   Z               Mass
    ------------   -----------------  -----------------  -----------------  -----------------
         N            1.016535650412     1.790527498439     0.325452703636    14.003074004430
         N           -1.468744349588     0.863961498439    -0.613416296364    14.003074004430
         C            0.437913650412    -0.543885501561    -0.071829296364    12.000000000000
         C            1.458082250412     0.494880598439     0.090183703636    12.000000000000
         C           -1.014688349588    -0.269808501561    -0.027026296364    12.000000000000
         C            0.859257650412    -1.865162501561    -0.277288296364    12.000000000000
         C            2.769902650412     0.107305498439     0.113623703636    12.000000000000
         C            2.208139650412    -2.214918501561    -0.274813296364    12.000000000000
         C            3.161111650412    -1.217606501561    -0.073178296364    12.000000000000
         C           -1.890567349588    -1.171876501561     0.600749703636    12.000000000000
         C           -3.260300349588    -0.925378501561     0.581122703636    12.000000000000
         C            1.992110650412     2.861399498439     0.254238703636    12.000000000000
         C           -2.792623349588     1.095967498439    -0.610941296364    12.000000000000
         C           -3.726918349588     0.230422498439    -0.044689296364    12.000000000000
         H            0.106723650412    -2.629583501561    -0.462078296364     1.007825032230
         H            3.533434650412     0.865629498439     0.255268703636     1.007825032230
         H            0.130041650412     1.995587498439    -0.128409296364     1.007825032230
         H            2.508758650412    -3.245396501561    -0.444595296364     1.007825032230
         H            4.220577650412    -1.465059501561    -0.064863296364     1.007825032230
         H           -1.491312349588    -2.043799501561     1.110375703636     1.007825032230
         H           -3.950622349588    -1.614950501561     1.061257703636     1.007825032230
         H            2.567426650412     2.869557498439    -0.683892296364     1.007825032230
         H            2.697392650412     2.794571498439     1.087991703636     1.007825032230
         H            1.459022650412     3.809959498439     0.345047703636     1.007825032230
         H           -3.110003349588     2.019739498439    -1.092195296364     1.007825032230
         H           -4.786572349588     0.466754498439    -0.080431296364     1.007825032230

  Basis Set: AUG-CC-PVTZ
    Blend: AUG-CC-PVTZ
  Basis Set: (AUG-CC-PVTZ AUX)
    Blend: AUG-CC-PVTZ-JKFIT
	 Reference Energy          =    -570.4867826887901856 [Eh]
	 Singles Energy            =      -0.0000000000000000 [Eh]
	 Same-Spin Energy          =      -0.6394569456312276 [Eh]
	 Opposite-Spin Energy      =      -1.9765892035001102 [Eh]
	 Correlation Energy        =      -2.6160461491313378 [Eh]
	 Total Energy              =    -573.1028288379214928 [Eh]

	 ================> DF-SCS-MP2 Energies <==================
	-----------------------------------------------------------
	 SCS Same-Spin Scale       =       0.3333333333333333 [-]
	 SCS Opposite-Spin Scale   =       1.2000000000000000 [-]
	 SCS Same-Spin Energy      =      -0.2131523152104092 [Eh]
	 SCS Opposite-Spin Energy  =      -2.3719070442001322 [Eh]
	 SCS Correlation Energy    =      -2.5850593594105415 [Eh]
	 SCS Total Energy          =    -573.0718420482007787 [Eh]
	-----------------------------------------------------------

  Dipole Moment: [D]
     X:    -1.7826      Y:     0.1275      Z:     0.3560     Total:     1.8222

*** Psi4 exiting successfully. Buy a developer a beer!
