                               Psi4 1.3.2 release

  ==> Input File <==

--------------------------------------------------------------------------
#psi4
#
memory 32 gb

molecule  {
0 1
  N        0.9996340     1.7721850     0.3204360
  N       -1.4856460     0.8456190    -0.6184330
  C        0.4210120    -0.5622280    -0.0768460
  C        1.4658706     0.3911258     0.0808651
  C       -1.0315900    -0.2881510    -0.0320430
  C        0.8423560    -1.8835050    -0.2823050
  C        2.7530010     0.0889630     0.1086070
  C        2.1912380    -2.2332610    -0.2798300
  C        3.1442100    -1.2359490    -0.0781950
  C       -1.9074690    -1.1902190     0.5957330
  C       -3.2772020    -0.9437210     0.5761060
  C        1.9752090     2.8430570     0.2492220
  C       -2.8095250     1.0776250    -0.6159580
  C       -3.7438200     0.2120800    -0.0497060
  H        0.0898220    -2.6479260    -0.4670950
  H        3.5165330     0.8472870     0.2502520
  H        0.1131400     1.9772450    -0.1334260
  H        2.4918570    -3.2637390    -0.4496120
  H        4.2036760    -1.4834020    -0.0698800
  H       -1.5082140    -2.0621420     1.1053590
  H       -3.9675240    -1.6332930     1.0562410
  H        2.5505250     2.8512150    -0.6889090
  H        2.6804910     2.7762290     1.0829750
  H        1.4421210     3.7916170     0.3400310
  H       -3.1269050     2.0013970    -1.0972120
  H       -4.8034740     0.4484120    -0.0854480
units angstrom
no_reorient  #important for SAPT in psi4, default
symmetry c1  #important for SAPT in psi4, default
}

set PROPERTIES_ORIGIN ["COM"]
properties('MP2/aug-cc-pvtz', properties = ['dipole'])
--------------------------------------------------------------------------

    Molecular point group: c1
  Charge       = 0
  Multiplicity = 1
  Basis Set: AUG-CC-PVTZ
    Blend: AUG-CC-PVTZ
  Basis Set: (AUG-CC-PVTZ AUX)
    Blend: AUG-CC-PVTZ-JKFIT

    Orbital Energies [Eh]
    ---------------------

    Doubly Occupied:

       1A    -15.569711     2A    -15.539755     3A    -11.293182
       4A    -11.281933     5A    -11.270975     6A    -11.264396
       7A    -11.244085     8A    -11.244001     9A    -11.240025
      10A    -11.239419    11A    -11.238664    12A    -11.238183
      13A    -11.223383    14A    -11.214633    15A     -1.262593
      16A     -1.206844    17A     -1.136149    18A     -1.090118
      19A     -1.064841    20A     -1.010233    21A     -0.992903
      22A     -0.902530    23A     -0.875353    24A     -0.860514
      25A     -0.810463    26A     -0.795500    27A     -0.723056
      28A     -0.693071    29A     -0.672314    30A     -0.657205
      31A     -0.644900    32A     -0.619879    33A     -0.611603
      34A     -0.597448    35A     -0.590124    36A     -0.577904
      37A     -0.564189    38A     -0.547218    39A     -0.534996
      40A     -0.523723    41A     -0.507552    42A     -0.500435
      43A     -0.484198    44A     -0.422608    45A     -0.405153
      46A     -0.388697    47A     -0.369444    48A     -0.322299
      49A     -0.288456

  @DF-RHF Final Energy:  -570.47774288791891

   => Energetics <=

    Nuclear Repulsion Energy =            818.4710793832177842
    One-Electron Energy =               -2397.1839258942227389
    Two-Electron Energy =                1008.2351036230860473
    Total Energy =                       -570.4777428879189074
  Basis Set: (AUG-CC-PVTZ AUX)
    Blend: AUG-CC-PVTZ-RI
    Molecular point group: c1

    Geometry (in Angstrom), charge = 0, multiplicity = 1:

       Center              X                  Y                   Z               Mass
    ------------   -----------------  -----------------  -----------------  -----------------
         N            1.014926308086     1.796094838637     0.325733109863    14.003074004430
         N           -1.470353691914     0.869528838637    -0.613135890137    14.003074004430
         C            0.436304308086    -0.538318161363    -0.071548890137    12.000000000000
         C            1.481162908086     0.415035638637     0.086162209863    12.000000000000
         C           -1.016297691914    -0.264241161363    -0.026745890137    12.000000000000
         C            0.857648308086    -1.859595161363    -0.277007890137    12.000000000000
         C            2.768293308086     0.112872838637     0.113904109863    12.000000000000
         C            2.206530308086    -2.209351161363    -0.274532890137    12.000000000000
         C            3.159502308086    -1.212039161363    -0.072897890137    12.000000000000
         C           -1.892176691914    -1.166309161363     0.601030109863    12.000000000000
         C           -3.261909691914    -0.919811161363     0.581403109863    12.000000000000
         C            1.990501308086     2.866966838637     0.254519109863    12.000000000000
         C           -2.794232691914     1.101534838637    -0.610660890137    12.000000000000
         C           -3.728527691914     0.235989838637    -0.044408890137    12.000000000000
         H            0.105114308086    -2.624016161363    -0.461797890137     1.007825032230
         H            3.531825308086     0.871196838637     0.255549109863     1.007825032230
         H            0.128432308086     2.001154838637    -0.128128890137     1.007825032230
         H            2.507149308086    -3.239829161363    -0.444314890137     1.007825032230
         H            4.218968308086    -1.459492161363    -0.064582890137     1.007825032230
         H           -1.492921691914    -2.038232161363     1.110656109863     1.007825032230
         H           -3.952231691914    -1.609383161363     1.061538109863     1.007825032230
         H            2.565817308086     2.875124838637    -0.683611890137     1.007825032230
         H            2.695783308086     2.800138838637     1.088272109863     1.007825032230
         H            1.457413308086     3.815526838637     0.345328109863     1.007825032230
         H           -3.111612691914     2.025306838637    -1.091914890137     1.007825032230
         H           -4.788181691914     0.472321838637    -0.080150890137     1.007825032230

  Basis Set: AUG-CC-PVTZ
    Blend: AUG-CC-PVTZ
  Basis Set: (AUG-CC-PVTZ AUX)
    Blend: AUG-CC-PVTZ-JKFIT
	 Reference Energy          =    -570.4777428879189074 [Eh]
	 Singles Energy            =      -0.0000000000000000 [Eh]
	 Same-Spin Energy          =      -0.6390252835886235 [Eh]
	 Opposite-Spin Energy      =      -1.9764815573796066 [Eh]
	 Correlation Energy        =      -2.6155068409682301 [Eh]
	 Total Energy              =    -573.0932497288871446 [Eh]

	 ================> DF-SCS-MP2 Energies <==================
	-----------------------------------------------------------
	 SCS Same-Spin Scale       =       0.3333333333333333 [-]
	 SCS Opposite-Spin Scale   =       1.2000000000000000 [-]
	 SCS Same-Spin Energy      =      -0.2130084278628745 [Eh]
	 SCS Opposite-Spin Energy  =      -2.3717778688555278 [Eh]
	 SCS Correlation Energy    =      -2.5847862967184021 [Eh]
	 SCS Total Energy          =    -573.0625291846373557 [Eh]
	-----------------------------------------------------------

  Dipole Moment: [D]
     X:    -1.7548      Y:    -0.4233      Z:     0.2578     Total:     1.8235

*** Psi4 exiting successfully. Buy a developer a beer!
