                               Psi4 1.4a3.dev225

  ==> Input File <==

--------------------------------------------------------------------------
#psi4
#
memory 32 gb

molecule  {
0 1
  N        0.9996340     1.7721850     0.3204360
  N       -1.4856460     0.8456190    -0.6184330
  C        0.4210120    -0.5622280    -0.0768460
  C        1.3959190     0.4607190     0.0923330
  C       -1.0315900    -0.2881510    -0.0320430
  C        0.8423560    -1.8835050    -0.2823050
  C        2.7530010     0.0889630     0.1086070
  C        2.1912380    -2.2332610    -0.2798300
  C        3.1442100    -1.2359490    -0.0781950
  C       -1.9074690    -1.1902190     0.5957330
  C       -3.2772020    -0.9437210     0.5761060
  C        1.9752090     2.8430570     0.2492220
  C       -2.8587744     1.0862558    -0.6158659
  C       -3.7438200     0.2120800    -0.0497060
  H        0.0898220    -2.6479260    -0.4670950
  H        3.5165330     0.8472870     0.2502520
  H        0.1131400     1.9772450    -0.1334260
  H        2.4918570    -3.2637390    -0.4496120
  H        4.2036760    -1.4834020    -0.0698800
  H       -1.5082140    -2.0621420     1.1053590
  H       -3.9675240    -1.6332930     1.0562410
  H        2.5505250     2.8512150    -0.6889090
  H        2.6804910     2.7762290     1.0829750
  H        1.4421210     3.7916170     0.3400310
  H       -3.1269050     2.0013970    -1.0972120
  H       -4.8034740     0.4484120    -0.0854480
units angstrom
no_reorient  #important for SAPT in psi4, default
symmetry c1  #important for SAPT in psi4, default
}

set PROPERTIES_ORIGIN ["COM"]
properties('MP2/aug-cc-pvtz', properties = ['dipole'])
--------------------------------------------------------------------------

    Molecular point group: c1
  Charge       = 0
  Multiplicity = 1
  Basis Set: AUG-CC-PVTZ
    Blend: AUG-CC-PVTZ
  Basis Set: (AUG-CC-PVTZ AUX)
    Blend: AUG-CC-PVTZ-JKFIT

    Orbital Energies [Eh]
    ---------------------

    Doubly Occupied:

       1A    -15.570288     2A    -15.549984     3A    -11.289917
       4A    -11.280002     5A    -11.278905     6A    -11.264235
       7A    -11.248394     8A    -11.242604     9A    -11.240831
      10A    -11.237620    11A    -11.235965    12A    -11.233085
      13A    -11.219884    14A    -11.218373    15A     -1.253687
      16A     -1.226282    17A     -1.132009    18A     -1.087833
      19A     -1.060285    20A     -0.999182    21A     -0.994997
      22A     -0.915727    23A     -0.867857    24A     -0.863793
      25A     -0.804107    26A     -0.795965    27A     -0.721455
      28A     -0.696843    29A     -0.669104    30A     -0.659683
      31A     -0.647573    32A     -0.624710    33A     -0.608541
      34A     -0.602849    35A     -0.591565    36A     -0.575620
      37A     -0.567679    38A     -0.544427    39A     -0.533101
      40A     -0.527317    41A     -0.503015    42A     -0.497264
      43A     -0.490210    44A     -0.423044    45A     -0.416260
      46A     -0.386476    47A     -0.365666    48A     -0.319376
      49A     -0.280029

  @DF-RHF Final Energy:  -570.48527222724704

   => Energetics <=

    Nuclear Repulsion Energy =            817.7778363830771013
    One-Electron Energy =               -2395.7989866059824635
    Two-Electron Energy =                1007.5358779956583248
    Total Energy =                       -570.4852722272470373
  Basis Set: (AUG-CC-PVTZ AUX)
    Blend: AUG-CC-PVTZ-RI
    Molecular point group: c1

    Geometry (in Angstrom), charge = 0, multiplicity = 1:

       Center              X                  Y                   Z               Mass
    ------------   -----------------  -----------------  -----------------  -----------------
         N            1.022696061611     1.790996045844     0.324979606531    14.003074004430
         N           -1.462583938389     0.864430045844    -0.613889393469    14.003074004430
         C            0.444074061611    -0.543416954156    -0.072302393469    12.000000000000
         C            1.418981061611     0.479530045844     0.096876606531    12.000000000000
         C           -1.008527938389    -0.269339954156    -0.027499393469    12.000000000000
         C            0.865418061611    -1.864693954156    -0.277761393469    12.000000000000
         C            2.776063061611     0.107774045844     0.113150606531    12.000000000000
         C            2.214300061611    -2.214449954156    -0.275286393469    12.000000000000
         C            3.167272061611    -1.217137954156    -0.073651393469    12.000000000000
         C           -1.884406938389    -1.171407954156     0.600276606531    12.000000000000
         C           -3.254139938389    -0.924909954156     0.580649606531    12.000000000000
         C            1.998271061611     2.861868045844     0.253765606531    12.000000000000
         C           -2.835712338389     1.105066845844    -0.611322293469    12.000000000000
         C           -3.720757938389     0.230891045844    -0.045162393469    12.000000000000
         H            0.112884061611    -2.629114954156    -0.462551393469     1.007825032230
         H            3.539595061611     0.866098045844     0.254795606531     1.007825032230
         H            0.136202061611     1.996056045844    -0.128882393469     1.007825032230
         H            2.514919061611    -3.244927954156    -0.445068393469     1.007825032230
         H            4.226738061611    -1.464590954156    -0.065336393469     1.007825032230
         H           -1.485151938389    -2.043330954156     1.109902606531     1.007825032230
         H           -3.944461938389    -1.614481954156     1.060784606531     1.007825032230
         H            2.573587061611     2.870026045844    -0.684365393469     1.007825032230
         H            2.703553061611     2.795040045844     1.087518606531     1.007825032230
         H            1.465183061611     3.810428045844     0.344574606531     1.007825032230
         H           -3.103842938389     2.020208045844    -1.092668393469     1.007825032230
         H           -4.780411938389     0.467223045844    -0.080904393469     1.007825032230

  Basis Set: AUG-CC-PVTZ
    Blend: AUG-CC-PVTZ
  Basis Set: (AUG-CC-PVTZ AUX)
    Blend: AUG-CC-PVTZ-JKFIT
	 Reference Energy          =    -570.4852722272470373 [Eh]
	 Singles Energy            =      -0.0000000000000000 [Eh]
	 Same-Spin Energy          =      -0.6397352363007165 [Eh]
	 Opposite-Spin Energy      =      -1.9775652116525804 [Eh]
	 Correlation Energy        =      -2.6173004479532969 [Eh]
	 Total Energy              =    -573.1025726752003493 [Eh]

	 ================> DF-SCS-MP2 Energies <==================
	-----------------------------------------------------------
	 SCS Same-Spin Scale       =       0.3333333333333333 [-]
	 SCS Opposite-Spin Scale   =       1.2000000000000000 [-]
	 SCS Same-Spin Energy      =      -0.2132450787669055 [Eh]
	 SCS Opposite-Spin Energy  =      -2.3730782539830964 [Eh]
	 SCS Correlation Energy    =      -2.5863233327500019 [Eh]
	 SCS Total Energy          =    -573.0715955599970357 [Eh]
	-----------------------------------------------------------

  Dipole Moment: [D]
     X:    -1.7764      Y:     0.1625      Z:     0.3650     Total:     1.8208

*** Psi4 exiting successfully. Buy a developer a beer!
