                               Psi4 1.4a3.dev225

  ==> Input File <==

--------------------------------------------------------------------------
#psi4
#
memory 32 gb

molecule  {
0 1
  N        0.9996340     1.7721850     0.3204360
  N       -1.4856460     0.8456190    -0.6184330
  C        0.4210120    -0.5622280    -0.0768460
  C        1.3959190     0.4607190     0.0923330
  C       -1.0248870    -0.3048882    -0.0233865
  C        0.8423560    -1.8835050    -0.2823050
  C        2.7530010     0.0889630     0.1086070
  C        2.1912380    -2.2332610    -0.2798300
  C        3.1442100    -1.2359490    -0.0781950
  C       -1.9074690    -1.1902190     0.5957330
  C       -3.2772020    -0.9437210     0.5761060
  C        1.9752090     2.8430570     0.2492220
  C       -2.8095250     1.0776250    -0.6159580
  C       -3.7438200     0.2120800    -0.0497060
  H        0.0898220    -2.6479260    -0.4670950
  H        3.5165330     0.8472870     0.2502520
  H        0.1131400     1.9772450    -0.1334260
  H        2.4918570    -3.2637390    -0.4496120
  H        4.2036760    -1.4834020    -0.0698800
  H       -1.5082140    -2.0621420     1.1053590
  H       -3.9675240    -1.6332930     1.0562410
  H        2.5505250     2.8512150    -0.6889090
  H        2.6804910     2.7762290     1.0829750
  H        1.4421210     3.7916170     0.3400310
  H       -3.1269050     2.0013970    -1.0972120
  H       -4.8034740     0.4484120    -0.0854480
units angstrom
no_reorient  #important for SAPT in psi4, default
symmetry c1  #important for SAPT in psi4, default
}

set PROPERTIES_ORIGIN ["COM"]
properties('MP2/aug-cc-pvtz', properties = ['dipole'])
--------------------------------------------------------------------------

    Molecular point group: c1
  Charge       = 0
  Multiplicity = 1
  Basis Set: AUG-CC-PVTZ
    Blend: AUG-CC-PVTZ
  Basis Set: (AUG-CC-PVTZ AUX)
    Blend: AUG-CC-PVTZ-JKFIT

    Orbital Energies [Eh]
    ---------------------

    Doubly Occupied:

       1A    -15.569352     2A    -15.550536     3A    -11.289598
       4A    -11.281309     5A    -11.279525     6A    -11.263605
       7A    -11.248732     8A    -11.242307     9A    -11.240499
      10A    -11.237508    11A    -11.236247    12A    -11.232901
      13A    -11.220217    14A    -11.218438    15A     -1.258929
      16A     -1.228273    17A     -1.132973    18A     -1.087848
      19A     -1.062235    20A     -0.999003    21A     -0.993114
      22A     -0.915877    23A     -0.871163    24A     -0.859909
      25A     -0.804870    26A     -0.796500    27A     -0.721097
      28A     -0.697212    29A     -0.671347    30A     -0.657542
      31A     -0.649224    32A     -0.622419    33A     -0.608853
      34A     -0.602630    35A     -0.590516    36A     -0.576246
      37A     -0.567839    38A     -0.546834    39A     -0.533579
      40A     -0.529350    41A     -0.503069    42A     -0.497216
      43A     -0.489313    44A     -0.423563    45A     -0.416483
      46A     -0.386066    47A     -0.369180    48A     -0.317417
      49A     -0.279390

  @DF-RHF Final Energy:  -570.48835014135693

   => Energetics <=

    Nuclear Repulsion Energy =            818.5164986175793729
    One-Electron Energy =               -2397.2539939332650647
    Two-Electron Energy =                1008.2491451743287598
    Total Energy =                       -570.4883501413569320
  Basis Set: (AUG-CC-PVTZ AUX)
    Blend: AUG-CC-PVTZ-RI
    Molecular point group: c1

    Geometry (in Angstrom), charge = 0, multiplicity = 1:

       Center              X                  Y                   Z               Mass
    ------------   -----------------  -----------------  -----------------  -----------------
         N            1.019048975118     1.792649581531     0.324421362245    14.003074004430
         N           -1.466231024882     0.866083581531    -0.614447637755    14.003074004430
         C            0.440426975118    -0.541763418469    -0.072860637755    12.000000000000
         C            1.415333975118     0.481183581531     0.096318362245    12.000000000000
         C           -1.005472024882    -0.284423618469    -0.019401137755    12.000000000000
         C            0.861770975118    -1.863040418469    -0.278319637755    12.000000000000
         C            2.772415975118     0.109427581531     0.112592362245    12.000000000000
         C            2.210652975118    -2.212796418469    -0.275844637755    12.000000000000
         C            3.163624975118    -1.215484418469    -0.074209637755    12.000000000000
         C           -1.888054024882    -1.169754418469     0.599718362245    12.000000000000
         C           -3.257787024882    -0.923256418469     0.580091362245    12.000000000000
         C            1.994623975118     2.863521581531     0.253207362245    12.000000000000
         C           -2.790110024882     1.098089581531    -0.611972637755    12.000000000000
         C           -3.724405024882     0.232544581531    -0.045720637755    12.000000000000
         H            0.109236975118    -2.627461418469    -0.463109637755     1.007825032230
         H            3.535947975118     0.867751581531     0.254237362245     1.007825032230
         H            0.132554975118     1.997709581531    -0.129440637755     1.007825032230
         H            2.511271975118    -3.243274418469    -0.445626637755     1.007825032230
         H            4.223090975118    -1.462937418469    -0.065894637755     1.007825032230
         H           -1.488799024882    -2.041677418469     1.109344362245     1.007825032230
         H           -3.948109024882    -1.612828418469     1.060226362245     1.007825032230
         H            2.569939975118     2.871679581531    -0.684923637755     1.007825032230
         H            2.699905975118     2.796693581531     1.086960362245     1.007825032230
         H            1.461535975118     3.812081581531     0.344016362245     1.007825032230
         H           -3.107490024882     2.021861581531    -1.093226637755     1.007825032230
         H           -4.784059024882     0.468876581531    -0.081462637755     1.007825032230

  Basis Set: AUG-CC-PVTZ
    Blend: AUG-CC-PVTZ
  Basis Set: (AUG-CC-PVTZ AUX)
    Blend: AUG-CC-PVTZ-JKFIT
	 Reference Energy          =    -570.4883501413569320 [Eh]
	 Singles Energy            =      -0.0000000000000000 [Eh]
	 Same-Spin Energy          =      -0.6397666417999912 [Eh]
	 Opposite-Spin Energy      =      -1.9770223908043993 [Eh]
	 Correlation Energy        =      -2.6167890326043906 [Eh]
	 Total Energy              =    -573.1051391739613337 [Eh]

	 ================> DF-SCS-MP2 Energies <==================
	-----------------------------------------------------------
	 SCS Same-Spin Scale       =       0.3333333333333333 [-]
	 SCS Opposite-Spin Scale   =       1.2000000000000000 [-]
	 SCS Same-Spin Energy      =      -0.2132555472666637 [Eh]
	 SCS Opposite-Spin Energy  =      -2.3724268689652792 [Eh]
	 SCS Correlation Energy    =      -2.5856824162319429 [Eh]
	 SCS Total Energy          =    -573.0740325575889074 [Eh]
	-----------------------------------------------------------

  Dipole Moment: [D]
     X:    -1.7353      Y:     0.1572      Z:     0.3660     Total:     1.7804

*** Psi4 exiting successfully. Buy a developer a beer!
