                               Psi4 1.3.2 release

  ==> Input File <==

--------------------------------------------------------------------------
#psi4
#
memory 32 gb

molecule  {
0 1
  N        0.9996340     1.7721850     0.3204360
  N       -1.4856460     0.8456190    -0.6184330
  C        0.4210120    -0.5622280    -0.0768460
  C        1.2821988     0.5556651     0.1079730
  C       -1.0315900    -0.2881510    -0.0320430
  C        0.8423560    -1.8835050    -0.2823050
  C        2.7530010     0.0889630     0.1086070
  C        2.1912380    -2.2332610    -0.2798300
  C        3.1442100    -1.2359490    -0.0781950
  C       -1.9074690    -1.1902190     0.5957330
  C       -3.2772020    -0.9437210     0.5761060
  C        1.9752090     2.8430570     0.2492220
  C       -2.8095250     1.0776250    -0.6159580
  C       -3.7438200     0.2120800    -0.0497060
  H        0.0898220    -2.6479260    -0.4670950
  H        3.5165330     0.8472870     0.2502520
  H        0.1131400     1.9772450    -0.1334260
  H        2.4918570    -3.2637390    -0.4496120
  H        4.2036760    -1.4834020    -0.0698800
  H       -1.5082140    -2.0621420     1.1053590
  H       -3.9675240    -1.6332930     1.0562410
  H        2.5505250     2.8512150    -0.6889090
  H        2.6804910     2.7762290     1.0829750
  H        1.4421210     3.7916170     0.3400310
  H       -3.1269050     2.0013970    -1.0972120
  H       -4.8034740     0.4484120    -0.0854480
units angstrom
no_reorient  #important for SAPT in psi4, default
symmetry c1  #important for SAPT in psi4, default
}

set PROPERTIES_ORIGIN ["COM"]
properties('MP2/aug-cc-pvtz', properties = ['dipole'])
--------------------------------------------------------------------------

    Molecular point group: c1
  Charge       = 0
  Multiplicity = 1
  Basis Set: AUG-CC-PVTZ
    Blend: AUG-CC-PVTZ
  Basis Set: (AUG-CC-PVTZ AUX)
    Blend: AUG-CC-PVTZ-JKFIT

    Orbital Energies [Eh]
    ---------------------

    Doubly Occupied:

       1A    -15.568623     2A    -15.566320     3A    -11.290364
       4A    -11.284525     5A    -11.280179     6A    -11.264241
       7A    -11.260950     8A    -11.239129     9A    -11.236857
      10A    -11.234995    11A    -11.231435    12A    -11.224849
      13A    -11.224689    14A    -11.209165    15A     -1.288203
      16A     -1.254231    17A     -1.123691    18A     -1.086433
      19A     -1.055696    20A     -0.996761    21A     -0.985156
      22A     -0.932963    23A     -0.864996    24A     -0.857620
      25A     -0.801675    26A     -0.797536    27A     -0.722816
      28A     -0.704596    29A     -0.672919    30A     -0.659095
      31A     -0.655466    32A     -0.629829    33A     -0.624972
      34A     -0.597911    35A     -0.586141    36A     -0.571895
      37A     -0.569480    38A     -0.546822    39A     -0.541853
      40A     -0.529740    41A     -0.503586    42A     -0.502204
      43A     -0.469454    44A     -0.437855    45A     -0.413623
      46A     -0.386757    47A     -0.364559    48A     -0.312517
      49A     -0.263565

  @DF-RHF Final Energy:  -570.46024026062594

   => Energetics <=

    Nuclear Repulsion Energy =            819.1393249861665709
    One-Electron Energy =               -2398.3412467203979759
    Two-Electron Energy =                1008.7416814736053539
    Total Energy =                       -570.4602402606259375
  Basis Set: (AUG-CC-PVTZ AUX)
    Blend: AUG-CC-PVTZ-RI
    Molecular point group: c1

    Geometry (in Angstrom), charge = 0, multiplicity = 1:

       Center              X                  Y                   Z               Mass
    ------------   -----------------  -----------------  -----------------  -----------------
         N            1.026898394021     1.785369846345     0.323966164103    14.003074004430
         N           -1.458381605979     0.858803846345    -0.614902835897    14.003074004430
         C            0.448276394021    -0.549043153655    -0.073315835897    12.000000000000
         C            1.309463194021     0.568849946345     0.111503164103    12.000000000000
         C           -1.004325605979    -0.274966153655    -0.028512835897    12.000000000000
         C            0.869620394021    -1.870320153655    -0.278774835897    12.000000000000
         C            2.780265394021     0.102147846345     0.112137164103    12.000000000000
         C            2.218502394021    -2.220076153655    -0.276299835897    12.000000000000
         C            3.171474394021    -1.222764153655    -0.074664835897    12.000000000000
         C           -1.880204605979    -1.177034153655     0.599263164103    12.000000000000
         C           -3.249937605979    -0.930536153655     0.579636164103    12.000000000000
         C            2.002473394021     2.856241846345     0.252752164103    12.000000000000
         C           -2.782260605979     1.090809846345    -0.612427835897    12.000000000000
         C           -3.716555605979     0.225264846345    -0.046175835897    12.000000000000
         H            0.117086394021    -2.634741153655    -0.463564835897     1.007825032230
         H            3.543797394021     0.860471846345     0.253782164103     1.007825032230
         H            0.140404394021     1.990429846345    -0.129895835897     1.007825032230
         H            2.519121394021    -3.250554153655    -0.446081835897     1.007825032230
         H            4.230940394021    -1.470217153655    -0.066349835897     1.007825032230
         H           -1.480949605979    -2.048957153655     1.108889164103     1.007825032230
         H           -3.940259605979    -1.620108153655     1.059771164103     1.007825032230
         H            2.577789394021     2.864399846345    -0.685378835897     1.007825032230
         H            2.707755394021     2.789413846345     1.086505164103     1.007825032230
         H            1.469385394021     3.804801846345     0.343561164103     1.007825032230
         H           -3.099640605979     2.014581846345    -1.093681835897     1.007825032230
         H           -4.776209605979     0.461596846345    -0.081917835897     1.007825032230

  Basis Set: AUG-CC-PVTZ
    Blend: AUG-CC-PVTZ
  Basis Set: (AUG-CC-PVTZ AUX)
    Blend: AUG-CC-PVTZ-JKFIT
	 Reference Energy          =    -570.4602402606259375 [Eh]
	 Singles Energy            =      -0.0000000000000000 [Eh]
	 Same-Spin Energy          =      -0.6405529359730890 [Eh]
	 Opposite-Spin Energy      =      -1.9782997113804655 [Eh]
	 Correlation Energy        =      -2.6188526473535543 [Eh]
	 Total Energy              =    -573.0790929079795433 [Eh]

	 ================> DF-SCS-MP2 Energies <==================
	-----------------------------------------------------------
	 SCS Same-Spin Scale       =       0.3333333333333333 [-]
	 SCS Opposite-Spin Scale   =       1.2000000000000000 [-]
	 SCS Same-Spin Energy      =      -0.2135176453243630 [Eh]
	 SCS Opposite-Spin Energy  =      -2.3739596536565584 [Eh]
	 SCS Correlation Energy    =      -2.5874772989809216 [Eh]
	 SCS Total Energy          =    -573.0477175596068946 [Eh]
	-----------------------------------------------------------

  Dipole Moment: [D]
     X:    -1.7169      Y:     1.1124      Z:     0.5278     Total:     2.1128

*** Psi4 exiting successfully. Buy a developer a beer!
