                               Psi4 1.3.2 release

  ==> Input File <==

--------------------------------------------------------------------------
#psi4
#
memory 32 gb

molecule  {
0 1
  N        0.9996340     1.7721850     0.3204360
  N       -1.4856460     0.8456190    -0.6184330
  C        0.4210120    -0.5622280    -0.0768460
  C        1.3959190     0.4607190     0.0923330
  C       -0.9645602    -0.4555231     0.0545225
  C        0.8423560    -1.8835050    -0.2823050
  C        2.7530010     0.0889630     0.1086070
  C        2.1912380    -2.2332610    -0.2798300
  C        3.1442100    -1.2359490    -0.0781950
  C       -1.9074690    -1.1902190     0.5957330
  C       -3.2772020    -0.9437210     0.5761060
  C        1.9752090     2.8430570     0.2492220
  C       -2.8095250     1.0776250    -0.6159580
  C       -3.7438200     0.2120800    -0.0497060
  H        0.0898220    -2.6479260    -0.4670950
  H        3.5165330     0.8472870     0.2502520
  H        0.1131400     1.9772450    -0.1334260
  H        2.4918570    -3.2637390    -0.4496120
  H        4.2036760    -1.4834020    -0.0698800
  H       -1.5082140    -2.0621420     1.1053590
  H       -3.9675240    -1.6332930     1.0562410
  H        2.5505250     2.8512150    -0.6889090
  H        2.6804910     2.7762290     1.0829750
  H        1.4421210     3.7916170     0.3400310
  H       -3.1269050     2.0013970    -1.0972120
  H       -4.8034740     0.4484120    -0.0854480
units angstrom
no_reorient  #important for SAPT in psi4, default
symmetry c1  #important for SAPT in psi4, default
}

set PROPERTIES_ORIGIN ["COM"]
properties('MP2/aug-cc-pvtz', properties = ['dipole'])
--------------------------------------------------------------------------

    Molecular point group: c1
  Charge       = 0
  Multiplicity = 1
  Basis Set: AUG-CC-PVTZ
    Blend: AUG-CC-PVTZ
  Basis Set: (AUG-CC-PVTZ AUX)
    Blend: AUG-CC-PVTZ-JKFIT

    Orbital Energies [Eh]
    ---------------------

    Doubly Occupied:

       1A    -15.570912     2A    -15.551331     3A    -11.285444
       4A    -11.284992     5A    -11.279048     6A    -11.265281
       7A    -11.249204     8A    -11.242238     9A    -11.239334
      10A    -11.238622    11A    -11.231830    12A    -11.231291
      13A    -11.222640    14A    -11.219253    15A     -1.240911
      16A     -1.215800    17A     -1.139088    18A     -1.084960
      19A     -1.070446    20A     -1.000981    21A     -0.996889
      22A     -0.918858    23A     -0.876572    24A     -0.857837
      25A     -0.800524    26A     -0.795650    27A     -0.725816
      28A     -0.694026    29A     -0.677376    30A     -0.660178
      31A     -0.635779    32A     -0.625631    33A     -0.610881
      34A     -0.604146    35A     -0.595362    36A     -0.575745
      37A     -0.567813    38A     -0.538229    39A     -0.533893
      40A     -0.528202    41A     -0.500387    42A     -0.495953
      43A     -0.486854    44A     -0.422418    45A     -0.407310
      46A     -0.386556    47A     -0.370718    48A     -0.316507
      49A     -0.278674

  @DF-RHF Final Energy:  -570.44264271560144

   => Energetics <=

    Nuclear Repulsion Energy =            818.0817594236186778
    One-Electron Energy =               -2396.3520234519660335
    Two-Electron Energy =                1007.8276213127459187
    Total Energy =                       -570.4426427156014370
  Basis Set: (AUG-CC-PVTZ AUX)
    Blend: AUG-CC-PVTZ-RI
    Molecular point group: c1

    Geometry (in Angstrom), charge = 0, multiplicity = 1:

       Center              X                  Y                   Z               Mass
    ------------   -----------------  -----------------  -----------------  -----------------
         N            1.015116756705     1.802468257929     0.319343101766    14.003074004430
         N           -1.470163243295     0.875902257929    -0.619525898234    14.003074004430
         C            0.436494756705    -0.531944742071    -0.077938898234    12.000000000000
         C            1.411401756705     0.491002257929     0.091240101766    12.000000000000
         C           -0.949077443295    -0.425239842071     0.053429601766    12.000000000000
         C            0.857838756705    -1.853221742071    -0.283397898234    12.000000000000
         C            2.768483756705     0.119246257929     0.107514101766    12.000000000000
         C            2.206720756705    -2.202977742071    -0.280922898234    12.000000000000
         C            3.159692756705    -1.205665742071    -0.079287898234    12.000000000000
         C           -1.891986243295    -1.159935742071     0.594640101766    12.000000000000
         C           -3.261719243295    -0.913437742071     0.575013101766    12.000000000000
         C            1.990691756705     2.873340257929     0.248129101766    12.000000000000
         C           -2.794042243295     1.107908257929    -0.617050898234    12.000000000000
         C           -3.728337243295     0.242363257929    -0.050798898234    12.000000000000
         H            0.105304756705    -2.617642742071    -0.468187898234     1.007825032230
         H            3.532015756705     0.877570257929     0.249159101766     1.007825032230
         H            0.128622756705     2.007528257929    -0.134518898234     1.007825032230
         H            2.507339756705    -3.233455742071    -0.450704898234     1.007825032230
         H            4.219158756705    -1.453118742071    -0.070972898234     1.007825032230
         H           -1.492731243295    -2.031858742071     1.104266101766     1.007825032230
         H           -3.952041243295    -1.603009742071     1.055148101766     1.007825032230
         H            2.566007756705     2.881498257929    -0.690001898234     1.007825032230
         H            2.695973756705     2.806512257929     1.081882101766     1.007825032230
         H            1.457603756705     3.821900257929     0.338938101766     1.007825032230
         H           -3.111422243295     2.031680257929    -1.098304898234     1.007825032230
         H           -4.787991243295     0.478695257929    -0.086540898234     1.007825032230

  Basis Set: AUG-CC-PVTZ
    Blend: AUG-CC-PVTZ
  Basis Set: (AUG-CC-PVTZ AUX)
    Blend: AUG-CC-PVTZ-JKFIT
	 Reference Energy          =    -570.4426427156014370 [Eh]
	 Singles Energy            =      -0.0000000000000000 [Eh]
	 Same-Spin Energy          =      -0.6421486371972506 [Eh]
	 Opposite-Spin Energy      =      -1.9840548668337645 [Eh]
	 Correlation Energy        =      -2.6262035040310150 [Eh]
	 Total Energy              =    -573.0688462196324053 [Eh]

	 ================> DF-SCS-MP2 Energies <==================
	-----------------------------------------------------------
	 SCS Same-Spin Scale       =       0.3333333333333333 [-]
	 SCS Opposite-Spin Scale   =       1.2000000000000000 [-]
	 SCS Same-Spin Energy      =      -0.2140495457324169 [Eh]
	 SCS Opposite-Spin Energy  =      -2.3808658402005172 [Eh]
	 SCS Correlation Energy    =      -2.5949153859329339 [Eh]
	 SCS Total Energy          =    -573.0375581015343869 [Eh]
	-----------------------------------------------------------

  Dipole Moment: [D]
     X:    -1.4111      Y:     0.1409      Z:     0.3799     Total:     1.4681

*** Psi4 exiting successfully. Buy a developer a beer!
