                               Psi4 1.3.2 release

  ==> Input File <==

--------------------------------------------------------------------------
#psi4
#
memory 32 gb

molecule  {
0 1
  N        0.9996340     1.7721850     0.3204360
  N       -1.4856460     0.8456190    -0.6184330
  C        0.4210120    -0.5622280    -0.0768460
  C        1.5134648     0.4903371     0.1725854
  C       -1.0315900    -0.2881510    -0.0320430
  C        0.8423560    -1.8835050    -0.2823050
  C        2.7530010     0.0889630     0.1086070
  C        2.1912380    -2.2332610    -0.2798300
  C        3.1442100    -1.2359490    -0.0781950
  C       -1.9074690    -1.1902190     0.5957330
  C       -3.2772020    -0.9437210     0.5761060
  C        1.9752090     2.8430570     0.2492220
  C       -2.8095250     1.0776250    -0.6159580
  C       -3.7438200     0.2120800    -0.0497060
  H        0.0898220    -2.6479260    -0.4670950
  H        3.5165330     0.8472870     0.2502520
  H        0.1131400     1.9772450    -0.1334260
  H        2.4918570    -3.2637390    -0.4496120
  H        4.2036760    -1.4834020    -0.0698800
  H       -1.5082140    -2.0621420     1.1053590
  H       -3.9675240    -1.6332930     1.0562410
  H        2.5505250     2.8512150    -0.6889090
  H        2.6804910     2.7762290     1.0829750
  H        1.4421210     3.7916170     0.3400310
  H       -3.1269050     2.0013970    -1.0972120
  H       -4.8034740     0.4484120    -0.0854480
units angstrom
no_reorient  #important for SAPT in psi4, default
symmetry c1  #important for SAPT in psi4, default
}

set PROPERTIES_ORIGIN ["COM"]
properties('MP2/aug-cc-pvtz', properties = ['dipole'])
--------------------------------------------------------------------------

    Molecular point group: c1
  Charge       = 0
  Multiplicity = 1
  Basis Set: AUG-CC-PVTZ
    Blend: AUG-CC-PVTZ
  Basis Set: (AUG-CC-PVTZ AUX)
    Blend: AUG-CC-PVTZ-JKFIT

    Orbital Energies [Eh]
    ---------------------

    Doubly Occupied:

       1A    -15.569284     2A    -15.549496     3A    -11.291307
       4A    -11.281636     5A    -11.276627     6A    -11.263558
       7A    -11.244895     8A    -11.243191     9A    -11.243158
      10A    -11.242465    11A    -11.237681    12A    -11.236137
      13A    -11.219624    14A    -11.207147    15A     -1.262590
      16A     -1.228972    17A     -1.132000    18A     -1.089335
      19A     -1.061887    20A     -1.011952    21A     -0.983553
      22A     -0.913775    23A     -0.875627    24A     -0.859871
      25A     -0.808971    26A     -0.784545    27A     -0.721195
      28A     -0.705192    29A     -0.669181    30A     -0.661506
      31A     -0.645097    32A     -0.628560    33A     -0.608398
      34A     -0.604065    35A     -0.588283    36A     -0.574733
      37A     -0.564204    38A     -0.548758    39A     -0.535018
      40A     -0.526763    41A     -0.505477    42A     -0.502459
      43A     -0.471721    44A     -0.423890    45A     -0.415055
      46A     -0.388898    47A     -0.367607    48A     -0.322674
      49A     -0.277692

  @DF-RHF Final Energy:  -570.46841273764096

   => Energetics <=

    Nuclear Repulsion Energy =            817.7329473607857153
    One-Electron Energy =               -2395.6513003988961827
    Two-Electron Energy =                1007.4499403004696205
    Total Energy =                       -570.4684127376409606
  Basis Set: (AUG-CC-PVTZ AUX)
    Blend: AUG-CC-PVTZ-RI
    Molecular point group: c1

    Geometry (in Angstrom), charge = 0, multiplicity = 1:

       Center              X                  Y                   Z               Mass
    ------------   -----------------  -----------------  -----------------  -----------------
         N            1.011824025360     1.789628052722     0.319754601929    14.003074004430
         N           -1.473455974640     0.863062052722    -0.619114398071    14.003074004430
         C            0.433202025360    -0.544784947278    -0.077527398071    12.000000000000
         C            1.525654825360     0.507780152722     0.171904001929    12.000000000000
         C           -1.019399974640    -0.270707947278    -0.032724398071    12.000000000000
         C            0.854546025360    -1.866061947278    -0.282986398071    12.000000000000
         C            2.765191025360     0.106406052722     0.107925601929    12.000000000000
         C            2.203428025360    -2.215817947278    -0.280511398071    12.000000000000
         C            3.156400025360    -1.218505947278    -0.078876398071    12.000000000000
         C           -1.895278974640    -1.172775947278     0.595051601929    12.000000000000
         C           -3.265011974640    -0.926277947278     0.575424601929    12.000000000000
         C            1.987399025360     2.860500052722     0.248540601929    12.000000000000
         C           -2.797334974640     1.095068052722    -0.616639398071    12.000000000000
         C           -3.731629974640     0.229523052722    -0.050387398071    12.000000000000
         H            0.102012025360    -2.630482947278    -0.467776398071     1.007825032230
         H            3.528723025360     0.864730052722     0.249570601929     1.007825032230
         H            0.125330025360     1.994688052722    -0.134107398071     1.007825032230
         H            2.504047025360    -3.246295947278    -0.450293398071     1.007825032230
         H            4.215866025360    -1.465958947278    -0.070561398071     1.007825032230
         H           -1.496023974640    -2.044698947278     1.104677601929     1.007825032230
         H           -3.955333974640    -1.615849947278     1.055559601929     1.007825032230
         H            2.562715025360     2.868658052722    -0.689590398071     1.007825032230
         H            2.692681025360     2.793672052722     1.082293601929     1.007825032230
         H            1.454311025360     3.809060052722     0.339349601929     1.007825032230
         H           -3.114714974640     2.018840052722    -1.097893398071     1.007825032230
         H           -4.791283974640     0.465855052722    -0.086129398071     1.007825032230

  Basis Set: AUG-CC-PVTZ
    Blend: AUG-CC-PVTZ
  Basis Set: (AUG-CC-PVTZ AUX)
    Blend: AUG-CC-PVTZ-JKFIT
	 Reference Energy          =    -570.4684127376409606 [Eh]
	 Singles Energy            =      -0.0000000000000000 [Eh]
	 Same-Spin Energy          =      -0.6392837444416076 [Eh]
	 Opposite-Spin Energy      =      -1.9774068419407447 [Eh]
	 Correlation Energy        =      -2.6166905863823522 [Eh]
	 Total Energy              =    -573.0851033240232937 [Eh]

	 ================> DF-SCS-MP2 Energies <==================
	-----------------------------------------------------------
	 SCS Same-Spin Scale       =       0.3333333333333333 [-]
	 SCS Opposite-Spin Scale   =       1.2000000000000000 [-]
	 SCS Same-Spin Energy      =      -0.2130945814805359 [Eh]
	 SCS Opposite-Spin Energy  =      -2.3728882103288935 [Eh]
	 SCS Correlation Energy    =      -2.5859827918094296 [Eh]
	 SCS Total Energy          =    -573.0543955294504030 [Eh]
	-----------------------------------------------------------

  Dipole Moment: [D]
     X:    -1.8324      Y:     0.0560      Z:     0.3675     Total:     1.8697

*** Psi4 exiting successfully. Buy a developer a beer!
