                               Psi4 1.4a3.dev225

  ==> Input File <==

--------------------------------------------------------------------------
#psi4
#
memory 32 gb

molecule  {
0 1
  N        0.9996340     1.7721850     0.3204360
  N       -1.4856460     0.8456190    -0.6184330
  C        0.4210120    -0.5622280    -0.0768460
  C        1.3959190     0.4607190     0.0923330
  C       -1.0119458    -0.2918575    -0.0326489
  C        0.8423560    -1.8835050    -0.2823050
  C        2.7530010     0.0889630     0.1086070
  C        2.1912380    -2.2332610    -0.2798300
  C        3.1442100    -1.2359490    -0.0781950
  C       -1.9074690    -1.1902190     0.5957330
  C       -3.2772020    -0.9437210     0.5761060
  C        1.9752090     2.8430570     0.2492220
  C       -2.8095250     1.0776250    -0.6159580
  C       -3.7438200     0.2120800    -0.0497060
  H        0.0898220    -2.6479260    -0.4670950
  H        3.5165330     0.8472870     0.2502520
  H        0.1131400     1.9772450    -0.1334260
  H        2.4918570    -3.2637390    -0.4496120
  H        4.2036760    -1.4834020    -0.0698800
  H       -1.5082140    -2.0621420     1.1053590
  H       -3.9675240    -1.6332930     1.0562410
  H        2.5505250     2.8512150    -0.6889090
  H        2.6804910     2.7762290     1.0829750
  H        1.4421210     3.7916170     0.3400310
  H       -3.1269050     2.0013970    -1.0972120
  H       -4.8034740     0.4484120    -0.0854480
units angstrom
no_reorient  #important for SAPT in psi4, default
symmetry c1  #important for SAPT in psi4, default
}

set PROPERTIES_ORIGIN ["COM"]
properties('MP2/aug-cc-pvtz', properties = ['dipole'])
--------------------------------------------------------------------------

    Molecular point group: c1
  Charge       = 0
  Multiplicity = 1
  Basis Set: AUG-CC-PVTZ
    Blend: AUG-CC-PVTZ
  Basis Set: (AUG-CC-PVTZ AUX)
    Blend: AUG-CC-PVTZ-JKFIT

    Orbital Energies [Eh]
    ---------------------

    Doubly Occupied:

       1A    -15.568284     2A    -15.551128     3A    -11.290734
       4A    -11.280668     5A    -11.280004     6A    -11.262506
       7A    -11.249116     8A    -11.242106     9A    -11.241815
      10A    -11.238454    11A    -11.236972    12A    -11.232601
      13A    -11.220641    14A    -11.219038    15A     -1.260253
      16A     -1.228835    17A     -1.133759    18A     -1.087075
      19A     -1.061961    20A     -0.999516    21A     -0.992642
      22A     -0.916415    23A     -0.872615    24A     -0.858212
      25A     -0.805338    26A     -0.796785    27A     -0.721282
      28A     -0.697871    29A     -0.670817    30A     -0.658933
      31A     -0.649309    32A     -0.621619    33A     -0.609169
      34A     -0.602959    35A     -0.590122    36A     -0.576293
      37A     -0.568600    38A     -0.546794    39A     -0.533914
      40A     -0.529869    41A     -0.504335    42A     -0.498059
      43A     -0.490360    44A     -0.422835    45A     -0.415340
      46A     -0.387211    47A     -0.367560    48A     -0.316895
      49A     -0.279519

  @DF-RHF Final Energy:  -570.48831712096285

   => Energetics <=

    Nuclear Repulsion Energy =            818.6049707399422459
    One-Electron Energy =               -2397.4122967907792372
    Two-Electron Energy =                1008.3190089298741441
    Total Energy =                       -570.4883171209628472
  Basis Set: (AUG-CC-PVTZ AUX)
    Blend: AUG-CC-PVTZ-RI
    Molecular point group: c1

    Geometry (in Angstrom), charge = 0, multiplicity = 1:

       Center              X                  Y                   Z               Mass
    ------------   -----------------  -----------------  -----------------  -----------------
         N            1.018205442477     1.791800215106     0.325025103531    14.003074004430
         N           -1.467074557523     0.865234215106    -0.613843896469    14.003074004430
         C            0.439583442477    -0.542612784894    -0.072256896469    12.000000000000
         C            1.414490442477     0.480334215106     0.096922103531    12.000000000000
         C           -0.993374357523    -0.272242284894    -0.028059796469    12.000000000000
         C            0.860927442477    -1.863889784894    -0.277715896469    12.000000000000
         C            2.771572442477     0.108578215106     0.113196103531    12.000000000000
         C            2.209809442477    -2.213645784894    -0.275240896469    12.000000000000
         C            3.162781442477    -1.216333784894    -0.073605896469    12.000000000000
         C           -1.888897557523    -1.170603784894     0.600322103531    12.000000000000
         C           -3.258630557523    -0.924105784894     0.580695103531    12.000000000000
         C            1.993780442477     2.862672215106     0.253811103531    12.000000000000
         C           -2.790953557523     1.097240215106    -0.611368896469    12.000000000000
         C           -3.725248557523     0.231695215106    -0.045116896469    12.000000000000
         H            0.108393442477    -2.628310784894    -0.462505896469     1.007825032230
         H            3.535104442477     0.866902215106     0.254841103531     1.007825032230
         H            0.131711442477     1.996860215106    -0.128836896469     1.007825032230
         H            2.510428442477    -3.244123784894    -0.445022896469     1.007825032230
         H            4.222247442477    -1.463786784894    -0.065290896469     1.007825032230
         H           -1.489642557523    -2.042526784894     1.109948103531     1.007825032230
         H           -3.948952557523    -1.613677784894     1.060830103531     1.007825032230
         H            2.569096442477     2.870830215106    -0.684319896469     1.007825032230
         H            2.699062442477     2.795844215106     1.087564103531     1.007825032230
         H            1.460692442477     3.811232215106     0.344620103531     1.007825032230
         H           -3.108333557523     2.021012215106    -1.092622896469     1.007825032230
         H           -4.784902557523     0.468027215106    -0.080858896469     1.007825032230

  Basis Set: AUG-CC-PVTZ
    Blend: AUG-CC-PVTZ
  Basis Set: (AUG-CC-PVTZ AUX)
    Blend: AUG-CC-PVTZ-JKFIT
	 Reference Energy          =    -570.4883171209628472 [Eh]
	 Singles Energy            =      -0.0000000000000000 [Eh]
	 Same-Spin Energy          =      -0.6398495738942018 [Eh]
	 Opposite-Spin Energy      =      -1.9770236241116530 [Eh]
	 Correlation Energy        =      -2.6168731980058548 [Eh]
	 Total Energy              =    -573.1051903189686527 [Eh]

	 ================> DF-SCS-MP2 Energies <==================
	-----------------------------------------------------------
	 SCS Same-Spin Scale       =       0.3333333333333333 [-]
	 SCS Opposite-Spin Scale   =       1.2000000000000000 [-]
	 SCS Same-Spin Energy      =      -0.2132831912980673 [Eh]
	 SCS Opposite-Spin Energy  =      -2.3724283489339837 [Eh]
	 SCS Correlation Energy    =      -2.5857115402320510 [Eh]
	 SCS Total Energy          =    -573.0740286611949159 [Eh]
	-----------------------------------------------------------

  Dipole Moment: [D]
     X:    -1.6641      Y:     0.1544      Z:     0.3608     Total:     1.7097

*** Psi4 exiting successfully. Buy a developer a beer!
