                               Psi4 1.3.2 release

  ==> Input File <==

--------------------------------------------------------------------------
#psi4
#
memory 32 gb

molecule  {
0 1
  N        0.9996340     1.7721850     0.3204360
  N       -1.3508157     0.8729595    -0.6528263
  C        0.4210120    -0.5622280    -0.0768460
  C        1.3959190     0.4607190     0.0923330
  C       -1.0315900    -0.2881510    -0.0320430
  C        0.8423560    -1.8835050    -0.2823050
  C        2.7530010     0.0889630     0.1086070
  C        2.1912380    -2.2332610    -0.2798300
  C        3.1442100    -1.2359490    -0.0781950
  C       -1.9074690    -1.1902190     0.5957330
  C       -3.2772020    -0.9437210     0.5761060
  C        1.9752090     2.8430570     0.2492220
  C       -2.8095250     1.0776250    -0.6159580
  C       -3.7438200     0.2120800    -0.0497060
  H        0.0898220    -2.6479260    -0.4670950
  H        3.5165330     0.8472870     0.2502520
  H        0.1131400     1.9772450    -0.1334260
  H        2.4918570    -3.2637390    -0.4496120
  H        4.2036760    -1.4834020    -0.0698800
  H       -1.5082140    -2.0621420     1.1053590
  H       -3.9675240    -1.6332930     1.0562410
  H        2.5505250     2.8512150    -0.6889090
  H        2.6804910     2.7762290     1.0829750
  H        1.4421210     3.7916170     0.3400310
  H       -3.1269050     2.0013970    -1.0972120
  H       -4.8034740     0.4484120    -0.0854480
units angstrom
no_reorient  #important for SAPT in psi4, default
symmetry c1  #important for SAPT in psi4, default
}

set PROPERTIES_ORIGIN ["COM"]
properties('MP2/aug-cc-pvtz', properties = ['dipole'])
--------------------------------------------------------------------------

    Molecular point group: c1
  Charge       = 0
  Multiplicity = 1
  Basis Set: AUG-CC-PVTZ
    Blend: AUG-CC-PVTZ
  Basis Set: (AUG-CC-PVTZ AUX)
    Blend: AUG-CC-PVTZ-JKFIT

    Orbital Energies [Eh]
    ---------------------

    Doubly Occupied:

       1A    -15.584584     2A    -15.546119     3A    -11.295322
       4A    -11.292206     5A    -11.276858     6A    -11.269842
       7A    -11.248173     8A    -11.246417     9A    -11.244739
      10A    -11.235197    11A    -11.234069    12A    -11.229649
      13A    -11.218286    14A    -11.216605    15A     -1.249145
      16A     -1.219505    17A     -1.129227    18A     -1.095469
      19A     -1.051889    20A     -0.996826    21A     -0.991927
      22A     -0.914543    23A     -0.868478    24A     -0.862121
      25A     -0.797954    26A     -0.794027    27A     -0.718656
      28A     -0.694812    29A     -0.669164    30A     -0.658978
      31A     -0.644715    32A     -0.621482    33A     -0.605476
      34A     -0.600619    35A     -0.588894    36A     -0.575098
      37A     -0.565400    38A     -0.540109    39A     -0.531715
      40A     -0.524520    41A     -0.497696    42A     -0.493842
      43A     -0.490430    44A     -0.435689    45A     -0.416299
      46A     -0.391854    47A     -0.359360    48A     -0.318798
      49A     -0.278279

  @DF-RHF Final Energy:  -570.46542763251205

   => Energetics <=

    Nuclear Repulsion Energy =            817.6953329105526791
    One-Electron Energy =               -2395.6594023249690508
    Two-Electron Energy =                1007.4986417819043254
    Total Energy =                       -570.4654276325120463
  Basis Set: (AUG-CC-PVTZ AUX)
    Blend: AUG-CC-PVTZ-RI
    Molecular point group: c1

    Geometry (in Angstrom), charge = 0, multiplicity = 1:

       Center              X                  Y                   Z               Mass
    ------------   -----------------  -----------------  -----------------  -----------------
         N            1.009230386341     1.789479036765     0.327601643458    14.003074004430
         N           -1.341219313659     0.890253536765    -0.645660656542    14.003074004430
         C            0.430608386341    -0.544933963235    -0.069680356542    12.000000000000
         C            1.405515386341     0.478013036765     0.099498643458    12.000000000000
         C           -1.021993613659    -0.270856963235    -0.024877356542    12.000000000000
         C            0.851952386341    -1.866210963235    -0.275139356542    12.000000000000
         C            2.762597386341     0.106257036765     0.115772643458    12.000000000000
         C            2.200834386341    -2.215966963235    -0.272664356542    12.000000000000
         C            3.153806386341    -1.218654963235    -0.071029356542    12.000000000000
         C           -1.897872613659    -1.172924963235     0.602898643458    12.000000000000
         C           -3.267605613659    -0.926426963235     0.583271643458    12.000000000000
         C            1.984805386341     2.860351036765     0.256387643458    12.000000000000
         C           -2.799928613659     1.094919036765    -0.608792356542    12.000000000000
         C           -3.734223613659     0.229374036765    -0.042540356542    12.000000000000
         H            0.099418386341    -2.630631963235    -0.459929356542     1.007825032230
         H            3.526129386341     0.864581036765     0.257417643458     1.007825032230
         H            0.122736386341     1.994539036765    -0.126260356542     1.007825032230
         H            2.501453386341    -3.246444963235    -0.442446356542     1.007825032230
         H            4.213272386341    -1.466107963235    -0.062714356542     1.007825032230
         H           -1.498617613659    -2.044847963235     1.112524643458     1.007825032230
         H           -3.957927613659    -1.615998963235     1.063406643458     1.007825032230
         H            2.560121386341     2.868509036765    -0.681743356542     1.007825032230
         H            2.690087386341     2.793523036765     1.090140643458     1.007825032230
         H            1.451717386341     3.808911036765     0.347196643458     1.007825032230
         H           -3.117308613659     2.018691036765    -1.090046356542     1.007825032230
         H           -4.793877613659     0.465706036765    -0.078282356542     1.007825032230

  Basis Set: AUG-CC-PVTZ
    Blend: AUG-CC-PVTZ
  Basis Set: (AUG-CC-PVTZ AUX)
    Blend: AUG-CC-PVTZ-JKFIT
	 Reference Energy          =    -570.4654276325120463 [Eh]
	 Singles Energy            =      -0.0000000000000000 [Eh]
	 Same-Spin Energy          =      -0.6412498855492185 [Eh]
	 Opposite-Spin Energy      =      -1.9823560770530984 [Eh]
	 Correlation Energy        =      -2.6236059626023169 [Eh]
	 Total Energy              =    -573.0890335951144152 [Eh]

	 ================> DF-SCS-MP2 Energies <==================
	-----------------------------------------------------------
	 SCS Same-Spin Scale       =       0.3333333333333333 [-]
	 SCS Opposite-Spin Scale   =       1.2000000000000000 [-]
	 SCS Same-Spin Energy      =      -0.2137499618497395 [Eh]
	 SCS Opposite-Spin Energy  =      -2.3788272924637179 [Eh]
	 SCS Correlation Energy    =      -2.5925772543134573 [Eh]
	 SCS Total Energy          =    -573.0580048868255290 [Eh]
	-----------------------------------------------------------

  Dipole Moment: [D]
     X:    -2.0961      Y:     0.0844      Z:     0.4231     Total:     2.1401

*** Psi4 exiting successfully. Buy a developer a beer!
