                               Psi4 1.3.2 release

  ==> Input File <==

--------------------------------------------------------------------------
#psi4
#
memory 32 gb

molecule  {
0 1
  N        0.9996340     1.7721850     0.3204360
  N       -1.4634594     0.8511373    -0.6244664
  C        0.4210120    -0.5622280    -0.0768460
  C        1.3959190     0.4607190     0.0923330
  C       -1.0315900    -0.2881510    -0.0320430
  C        0.8423560    -1.8835050    -0.2823050
  C        2.7530010     0.0889630     0.1086070
  C        2.1912380    -2.2332610    -0.2798300
  C        3.1442100    -1.2359490    -0.0781950
  C       -1.9074690    -1.1902190     0.5957330
  C       -3.2772020    -0.9437210     0.5761060
  C        1.9752090     2.8430570     0.2492220
  C       -2.8095250     1.0776250    -0.6159580
  C       -3.7438200     0.2120800    -0.0497060
  H        0.0898220    -2.6479260    -0.4670950
  H        3.5165330     0.8472870     0.2502520
  H        0.1131400     1.9772450    -0.1334260
  H        2.4918570    -3.2637390    -0.4496120
  H        4.2036760    -1.4834020    -0.0698800
  H       -1.5082140    -2.0621420     1.1053590
  H       -3.9675240    -1.6332930     1.0562410
  H        2.5505250     2.8512150    -0.6889090
  H        2.6804910     2.7762290     1.0829750
  H        1.4421210     3.7916170     0.3400310
  H       -3.1269050     2.0013970    -1.0972120
  H       -4.8034740     0.4484120    -0.0854480
units angstrom
no_reorient  #important for SAPT in psi4, default
symmetry c1  #important for SAPT in psi4, default
}

set PROPERTIES_ORIGIN ["COM"]
properties('MP2/aug-cc-pvtz', properties = ['dipole'])
--------------------------------------------------------------------------

    Molecular point group: c1
  Charge       = 0
  Multiplicity = 1
  Basis Set: AUG-CC-PVTZ
    Blend: AUG-CC-PVTZ
  Basis Set: (AUG-CC-PVTZ AUX)
    Blend: AUG-CC-PVTZ-JKFIT

    Orbital Energies [Eh]
    ---------------------

    Doubly Occupied:

       1A    -15.571514     2A    -15.549758     3A    -11.290210
       4A    -11.283959     5A    -11.278613     6A    -11.264382
       7A    -11.248314     8A    -11.243438     9A    -11.242045
      10A    -11.237076    11A    -11.235632    12A    -11.232504
      13A    -11.219685    14A    -11.218075    15A     -1.259988
      16A     -1.227520    17A     -1.131850    18A     -1.089833
      19A     -1.059317    20A     -0.998484    21A     -0.992651
      22A     -0.915385    23A     -0.869578    24A     -0.861621
      25A     -0.803995    26A     -0.795878    27A     -0.720253
      28A     -0.697114    29A     -0.670549    30A     -0.658275
      31A     -0.649078    32A     -0.621848    33A     -0.608085
      34A     -0.602043    35A     -0.589555    36A     -0.576401
      37A     -0.567415    38A     -0.546843    39A     -0.533568
      40A     -0.528242    41A     -0.502698    42A     -0.496760
      43A     -0.489346    44A     -0.425324    45A     -0.417273
      46A     -0.388430    47A     -0.366127    48A     -0.317768
      49A     -0.279314

  @DF-RHF Final Energy:  -570.48785185887948

   => Energetics <=

    Nuclear Repulsion Energy =            818.4017341712497000
    One-Electron Energy =               -2397.0319439447348486
    Two-Electron Energy =                1008.1423579146056682
    Total Energy =                       -570.4878518588794805
  Basis Set: (AUG-CC-PVTZ AUX)
    Blend: AUG-CC-PVTZ-RI
    Molecular point group: c1

    Geometry (in Angstrom), charge = 0, multiplicity = 1:

       Center              X                  Y                   Z               Mass
    ------------   -----------------  -----------------  -----------------  -----------------
         N            1.017798325790     1.791138883594     0.325444524098    14.003074004430
         N           -1.445295074210     0.870091183594    -0.619457875902    14.003074004430
         C            0.439176325790    -0.543274116406    -0.071837475902    12.000000000000
         C            1.414083325790     0.479672883594     0.097341524098    12.000000000000
         C           -1.013425674210    -0.269197116406    -0.027034475902    12.000000000000
         C            0.860520325790    -1.864551116406    -0.277296475902    12.000000000000
         C            2.771165325790     0.107916883594     0.113615524098    12.000000000000
         C            2.209402325790    -2.214307116406    -0.274821475902    12.000000000000
         C            3.162374325790    -1.216995116406    -0.073186475902    12.000000000000
         C           -1.889304674210    -1.171265116406     0.600741524098    12.000000000000
         C           -3.259037674210    -0.924767116406     0.581114524098    12.000000000000
         C            1.993373325790     2.862010883594     0.254230524098    12.000000000000
         C           -2.791360674210     1.096578883594    -0.610949475902    12.000000000000
         C           -3.725655674210     0.231033883594    -0.044697475902    12.000000000000
         H            0.107986325790    -2.628972116406    -0.462086475902     1.007825032230
         H            3.534697325790     0.866240883594     0.255260524098     1.007825032230
         H            0.131304325790     1.996198883594    -0.128417475902     1.007825032230
         H            2.510021325790    -3.244785116406    -0.444603475902     1.007825032230
         H            4.221840325790    -1.464448116406    -0.064871475902     1.007825032230
         H           -1.490049674210    -2.043188116406     1.110367524098     1.007825032230
         H           -3.949359674210    -1.614339116406     1.061249524098     1.007825032230
         H            2.568689325790     2.870168883594    -0.683900475902     1.007825032230
         H            2.698655325790     2.795182883594     1.087983524098     1.007825032230
         H            1.460285325790     3.810570883594     0.345039524098     1.007825032230
         H           -3.108740674210     2.020350883594    -1.092203475902     1.007825032230
         H           -4.785309674210     0.467365883594    -0.080439475902     1.007825032230

  Basis Set: AUG-CC-PVTZ
    Blend: AUG-CC-PVTZ
  Basis Set: (AUG-CC-PVTZ AUX)
    Blend: AUG-CC-PVTZ-JKFIT
	 Reference Energy          =    -570.4878518588794805 [Eh]
	 Singles Energy            =      -0.0000000000000000 [Eh]
	 Same-Spin Energy          =      -0.6397323758887220 [Eh]
	 Opposite-Spin Energy      =      -1.9772576193722680 [Eh]
	 Correlation Energy        =      -2.6169899952609899 [Eh]
	 Total Energy              =    -573.1048418541404317 [Eh]

	 ================> DF-SCS-MP2 Energies <==================
	-----------------------------------------------------------
	 SCS Same-Spin Scale       =       0.3333333333333333 [-]
	 SCS Opposite-Spin Scale   =       1.2000000000000000 [-]
	 SCS Same-Spin Energy      =      -0.2132441252962406 [Eh]
	 SCS Opposite-Spin Energy  =      -2.3727091432467216 [Eh]
	 SCS Correlation Energy    =      -2.5859532685429620 [Eh]
	 SCS Total Energy          =    -573.0738051274224745 [Eh]
	-----------------------------------------------------------

  Dipole Moment: [D]
     X:    -1.8246      Y:     0.1470      Z:     0.3739     Total:     1.8683

*** Psi4 exiting successfully. Buy a developer a beer!
