                               Psi4 1.3.2 release

  ==> Input File <==

--------------------------------------------------------------------------
#psi4
#
memory 32 gb

molecule  {
0 1
  N        0.9996340     1.7721850     0.3204360
  N       -1.4856460     0.8456190    -0.6184330
  C        0.4210120    -0.5622280    -0.0768460
  C        1.3758704     0.4571731     0.0791772
  C       -1.0315900    -0.2881510    -0.0320430
  C        0.8423560    -1.8835050    -0.2823050
  C        2.7530010     0.0889630     0.1086070
  C        2.1912380    -2.2332610    -0.2798300
  C        3.1442100    -1.2359490    -0.0781950
  C       -1.9074690    -1.1902190     0.5957330
  C       -3.2772020    -0.9437210     0.5761060
  C        1.9752090     2.8430570     0.2492220
  C       -2.8095250     1.0776250    -0.6159580
  C       -3.7438200     0.2120800    -0.0497060
  H        0.0898220    -2.6479260    -0.4670950
  H        3.5165330     0.8472870     0.2502520
  H        0.1131400     1.9772450    -0.1334260
  H        2.4918570    -3.2637390    -0.4496120
  H        4.2036760    -1.4834020    -0.0698800
  H       -1.5082140    -2.0621420     1.1053590
  H       -3.9675240    -1.6332930     1.0562410
  H        2.5505250     2.8512150    -0.6889090
  H        2.6804910     2.7762290     1.0829750
  H        1.4421210     3.7916170     0.3400310
  H       -3.1269050     2.0013970    -1.0972120
  H       -4.8034740     0.4484120    -0.0854480
units angstrom
no_reorient  #important for SAPT in psi4, default
symmetry c1  #important for SAPT in psi4, default
}

set PROPERTIES_ORIGIN ["COM"]
properties('MP2/aug-cc-pvtz', properties = ['dipole'])
--------------------------------------------------------------------------

    Molecular point group: c1
  Charge       = 0
  Multiplicity = 1
  Basis Set: AUG-CC-PVTZ
    Blend: AUG-CC-PVTZ
  Basis Set: (AUG-CC-PVTZ AUX)
    Blend: AUG-CC-PVTZ-JKFIT

    Orbital Energies [Eh]
    ---------------------

    Doubly Occupied:

       1A    -15.568532     2A    -15.550611     3A    -11.289618
       4A    -11.281336     5A    -11.279104     6A    -11.263176
       7A    -11.249328     8A    -11.242318     9A    -11.241354
      10A    -11.237511    11A    -11.235537    12A    -11.231237
      13A    -11.222099    14A    -11.218426    15A     -1.263375
      16A     -1.228795    17A     -1.132664    18A     -1.088822
      19A     -1.060621    20A     -0.996899    21A     -0.994384
      22A     -0.915926    23A     -0.870241    24A     -0.860327
      25A     -0.806029    26A     -0.796532    27A     -0.720567
      28A     -0.696822    29A     -0.671053    30A     -0.657873
      31A     -0.650407    32A     -0.621386    33A     -0.608831
      34A     -0.601566    35A     -0.590061    36A     -0.576642
      37A     -0.568422    38A     -0.548305    39A     -0.533789
      40A     -0.529155    41A     -0.503876    42A     -0.497527
      43A     -0.489293    44A     -0.423001    45A     -0.416517
      46A     -0.387944    47A     -0.367258    48A     -0.316964
      49A     -0.279801

  @DF-RHF Final Energy:  -570.48905439768282

   => Energetics <=

    Nuclear Repulsion Energy =            818.7275460852414426
    One-Electron Energy =               -2397.6694742173067425
    Two-Electron Energy =                1008.4528737343823650
    Total Energy =                       -570.4890543976828212
  Basis Set: (AUG-CC-PVTZ AUX)
    Blend: AUG-CC-PVTZ-RI
    Molecular point group: c1

    Geometry (in Angstrom), charge = 0, multiplicity = 1:

       Center              X                  Y                   Z               Mass
    ------------   -----------------  -----------------  -----------------  -----------------
         N            1.020792696550     1.791789746885     0.325843130475    14.003074004430
         N           -1.464487303450     0.865223746885    -0.613025869525    14.003074004430
         C            0.442170696550    -0.542623253115    -0.071438869525    12.000000000000
         C            1.397029096550     0.476777846885     0.084584330475    12.000000000000
         C           -1.010431303450    -0.268546253115    -0.026635869525    12.000000000000
         C            0.863514696550    -1.863900253115    -0.276897869525    12.000000000000
         C            2.774159696550     0.108567746885     0.114014130475    12.000000000000
         C            2.212396696550    -2.213656253115    -0.274422869525    12.000000000000
         C            3.165368696550    -1.216344253115    -0.072787869525    12.000000000000
         C           -1.886310303450    -1.170614253115     0.601140130475    12.000000000000
         C           -3.256043303450    -0.924116253115     0.581513130475    12.000000000000
         C            1.996367696550     2.862661746885     0.254629130475    12.000000000000
         C           -2.788366303450     1.097229746885    -0.610550869525    12.000000000000
         C           -3.722661303450     0.231684746885    -0.044298869525    12.000000000000
         H            0.110980696550    -2.628321253115    -0.461687869525     1.007825032230
         H            3.537691696550     0.866891746885     0.255659130475     1.007825032230
         H            0.134298696550     1.996849746885    -0.128018869525     1.007825032230
         H            2.513015696550    -3.244134253115    -0.444204869525     1.007825032230
         H            4.224834696550    -1.463797253115    -0.064472869525     1.007825032230
         H           -1.487055303450    -2.042537253115     1.110766130475     1.007825032230
         H           -3.946365303450    -1.613688253115     1.061648130475     1.007825032230
         H            2.571683696550     2.870819746885    -0.683501869525     1.007825032230
         H            2.701649696550     2.795833746885     1.088382130475     1.007825032230
         H            1.463279696550     3.811221746885     0.345438130475     1.007825032230
         H           -3.105746303450     2.021001746885    -1.091804869525     1.007825032230
         H           -4.782315303450     0.468016746885    -0.080040869525     1.007825032230

  Basis Set: AUG-CC-PVTZ
    Blend: AUG-CC-PVTZ
  Basis Set: (AUG-CC-PVTZ AUX)
    Blend: AUG-CC-PVTZ-JKFIT
	 Reference Energy          =    -570.4890543976828212 [Eh]
	 Singles Energy            =      -0.0000000000000000 [Eh]
	 Same-Spin Energy          =      -0.6394862198972299 [Eh]
	 Opposite-Spin Energy      =      -1.9765061129366499 [Eh]
	 Correlation Energy        =      -2.6159923328338799 [Eh]
	 Total Energy              =    -573.1050467305167331 [Eh]

	 ================> DF-SCS-MP2 Energies <==================
	-----------------------------------------------------------
	 SCS Same-Spin Scale       =       0.3333333333333333 [-]
	 SCS Opposite-Spin Scale   =       1.2000000000000000 [-]
	 SCS Same-Spin Energy      =      -0.2131620732990766 [Eh]
	 SCS Opposite-Spin Energy  =      -2.3718073355239797 [Eh]
	 SCS Correlation Energy    =      -2.5849694088230564 [Eh]
	 SCS Total Energy          =    -573.0740238065059202 [Eh]
	-----------------------------------------------------------

  Dipole Moment: [D]
     X:    -1.7462      Y:     0.1759      Z:     0.3604     Total:     1.7917

*** Psi4 exiting successfully. Buy a developer a beer!
