                               Psi4 1.4a3.dev225

  ==> Input File <==

--------------------------------------------------------------------------
#psi4
#
memory 32 gb

molecule  {
0 1
  N        0.9996340     1.7721850     0.3204360
  N       -1.4856460     0.8456190    -0.6184330
  C        0.4210120    -0.5622280    -0.0768460
  C        1.3959190     0.4607190     0.0923330
  C       -1.0315900    -0.2881510    -0.0320430
  C        0.8423560    -1.8835050    -0.2823050
  C        2.7530010     0.0889630     0.1086070
  C        2.1912380    -2.2332610    -0.2798300
  C        3.1442100    -1.2359490    -0.0781950
  C       -1.9074690    -1.1902190     0.5957330
  C       -3.2772020    -0.9437210     0.5761060
  C        1.9752090     2.8430570     0.2492220
  C       -2.8292247     1.0810773    -0.6159212
  C       -3.7438200     0.2120800    -0.0497060
  H        0.0898220    -2.6479260    -0.4670950
  H        3.5165330     0.8472870     0.2502520
  H        0.1131400     1.9772450    -0.1334260
  H        2.4918570    -3.2637390    -0.4496120
  H        4.2036760    -1.4834020    -0.0698800
  H       -1.5082140    -2.0621420     1.1053590
  H       -3.9675240    -1.6332930     1.0562410
  H        2.5505250     2.8512150    -0.6889090
  H        2.6804910     2.7762290     1.0829750
  H        1.4421210     3.7916170     0.3400310
  H       -3.1269050     2.0013970    -1.0972120
  H       -4.8034740     0.4484120    -0.0854480
units angstrom
no_reorient  #important for SAPT in psi4, default
symmetry c1  #important for SAPT in psi4, default
}

set PROPERTIES_ORIGIN ["COM"]
properties('MP2/aug-cc-pvtz', properties = ['dipole'])
--------------------------------------------------------------------------

    Molecular point group: c1
  Charge       = 0
  Multiplicity = 1
  Basis Set: AUG-CC-PVTZ
    Blend: AUG-CC-PVTZ
  Basis Set: (AUG-CC-PVTZ AUX)
    Blend: AUG-CC-PVTZ-JKFIT

    Orbital Energies [Eh]
    ---------------------

    Doubly Occupied:

       1A    -15.569370     2A    -15.550281     3A    -11.289926
       4A    -11.280869     5A    -11.278930     6A    -11.263660
       7A    -11.248577     8A    -11.241945     9A    -11.241795
      10A    -11.237504    11A    -11.235939    12A    -11.233097
      13A    -11.219932    14A    -11.218367    15A     -1.259046
      16A     -1.227904    17A     -1.132223    18A     -1.088357
      19A     -1.060585    20A     -0.998912    21A     -0.993758
      22A     -0.915648    23A     -0.869622    24A     -0.861795
      25A     -0.804836    26A     -0.796075    27A     -0.720978
      28A     -0.697408    29A     -0.669997    30A     -0.658781
      31A     -0.649042    32A     -0.623001    33A     -0.608591
      34A     -0.602577    35A     -0.590579    36A     -0.576100
      37A     -0.567764    38A     -0.546752    39A     -0.533581
      40A     -0.528306    41A     -0.503405    42A     -0.497336
      43A     -0.489719    44A     -0.423229    45A     -0.416447
      46A     -0.387132    47A     -0.366833    48A     -0.318272
      49A     -0.279711

  @DF-RHF Final Energy:  -570.48860569478836

   => Energetics <=

    Nuclear Repulsion Energy =            818.2562543666517740
    One-Electron Energy =               -2396.7407272999544148
    Two-Electron Energy =                1007.9958672385142791
    Total Energy =                       -570.4886056947883617
  Basis Set: (AUG-CC-PVTZ AUX)
    Blend: AUG-CC-PVTZ-RI
    Molecular point group: c1

    Geometry (in Angstrom), charge = 0, multiplicity = 1:

       Center              X                  Y                   Z               Mass
    ------------   -----------------  -----------------  -----------------  -----------------
         N            1.020769954568     1.791333590568     0.324983211093    14.003074004430
         N           -1.464510045432     0.864767590568    -0.613885788907    14.003074004430
         C            0.442147954568    -0.543079409432    -0.072298788907    12.000000000000
         C            1.417054954568     0.479867590568     0.096880211093    12.000000000000
         C           -1.010454045432    -0.269002409432    -0.027495788907    12.000000000000
         C            0.863491954568    -1.864356409432    -0.277757788907    12.000000000000
         C            2.774136954568     0.108111590568     0.113154211093    12.000000000000
         C            2.212373954568    -2.214112409432    -0.275282788907    12.000000000000
         C            3.165345954568    -1.216800409432    -0.073647788907    12.000000000000
         C           -1.886333045432    -1.171070409432     0.600280211093    12.000000000000
         C           -3.256066045432    -0.924572409432     0.580653211093    12.000000000000
         C            1.996344954568     2.862205590568     0.253769211093    12.000000000000
         C           -2.808088745432     1.100225890568    -0.611373988907    12.000000000000
         C           -3.722684045432     0.231228590568    -0.045158788907    12.000000000000
         H            0.110957954568    -2.628777409432    -0.462547788907     1.007825032230
         H            3.537668954568     0.866435590568     0.254799211093     1.007825032230
         H            0.134275954568     1.996393590568    -0.128878788907     1.007825032230
         H            2.512992954568    -3.244590409432    -0.445064788907     1.007825032230
         H            4.224811954568    -1.464253409432    -0.065332788907     1.007825032230
         H           -1.487078045432    -2.042993409432     1.109906211093     1.007825032230
         H           -3.946388045432    -1.614144409432     1.060788211093     1.007825032230
         H            2.571660954568     2.870363590568    -0.684361788907     1.007825032230
         H            2.701626954568     2.795377590568     1.087522211093     1.007825032230
         H            1.463256954568     3.810765590568     0.344578211093     1.007825032230
         H           -3.105769045432     2.020545590568    -1.092664788907     1.007825032230
         H           -4.782338045432     0.467560590568    -0.080900788907     1.007825032230

  Basis Set: AUG-CC-PVTZ
    Blend: AUG-CC-PVTZ
  Basis Set: (AUG-CC-PVTZ AUX)
    Blend: AUG-CC-PVTZ-JKFIT
	 Reference Energy          =    -570.4886056947883617 [Eh]
	 Singles Energy            =      -0.0000000000000000 [Eh]
	 Same-Spin Energy          =      -0.6395962567479323 [Eh]
	 Opposite-Spin Energy      =      -1.9768651266960338 [Eh]
	 Correlation Energy        =      -2.6164613834439661 [Eh]
	 Total Energy              =    -573.1050670782323095 [Eh]

	 ================> DF-SCS-MP2 Energies <==================
	-----------------------------------------------------------
	 SCS Same-Spin Scale       =       0.3333333333333333 [-]
	 SCS Opposite-Spin Scale   =       1.2000000000000000 [-]
	 SCS Same-Spin Energy      =      -0.2131987522493108 [Eh]
	 SCS Opposite-Spin Energy  =      -2.3722381520352402 [Eh]
	 SCS Correlation Energy    =      -2.5854369042845509 [Eh]
	 SCS Total Energy          =    -573.0740425990728681 [Eh]
	-----------------------------------------------------------

  Dipole Moment: [D]
     X:    -1.7694      Y:     0.1624      Z:     0.3633     Total:     1.8136

*** Psi4 exiting successfully. Buy a developer a beer!
