                               Psi4 1.3.2 release

  ==> Input File <==

--------------------------------------------------------------------------
#psi4
#
memory 32 gb

molecule  {
0 1
  N        0.9996340     1.7721850     0.3204360
  N       -1.5295975     0.8335481    -0.6058322
  C        0.4210120    -0.5622280    -0.0768460
  C        1.3959190     0.4607190     0.0923330
  C       -1.0315900    -0.2881510    -0.0320430
  C        0.8423560    -1.8835050    -0.2823050
  C        2.7530010     0.0889630     0.1086070
  C        2.1912380    -2.2332610    -0.2798300
  C        3.1442100    -1.2359490    -0.0781950
  C       -1.9074690    -1.1902190     0.5957330
  C       -3.2772020    -0.9437210     0.5761060
  C        1.9752090     2.8430570     0.2492220
  C       -2.8095250     1.0776250    -0.6159580
  C       -3.7438200     0.2120800    -0.0497060
  H        0.0898220    -2.6479260    -0.4670950
  H        3.5165330     0.8472870     0.2502520
  H        0.1131400     1.9772450    -0.1334260
  H        2.4918570    -3.2637390    -0.4496120
  H        4.2036760    -1.4834020    -0.0698800
  H       -1.5082140    -2.0621420     1.1053590
  H       -3.9675240    -1.6332930     1.0562410
  H        2.5505250     2.8512150    -0.6889090
  H        2.6804910     2.7762290     1.0829750
  H        1.4421210     3.7916170     0.3400310
  H       -3.1269050     2.0013970    -1.0972120
  H       -4.8034740     0.4484120    -0.0854480
units angstrom
no_reorient  #important for SAPT in psi4, default
symmetry c1  #important for SAPT in psi4, default
}

set PROPERTIES_ORIGIN ["COM"]
properties('MP2/aug-cc-pvtz', properties = ['dipole'])
--------------------------------------------------------------------------

    Molecular point group: c1
  Charge       = 0
  Multiplicity = 1
  Basis Set: AUG-CC-PVTZ
    Blend: AUG-CC-PVTZ
  Basis Set: (AUG-CC-PVTZ AUX)
    Blend: AUG-CC-PVTZ-JKFIT

    Orbital Energies [Eh]
    ---------------------

    Doubly Occupied:

       1A    -15.562671     2A    -15.551970     3A    -11.289470
       4A    -11.279603     5A    -11.276016     6A    -11.260927
       7A    -11.249507     8A    -11.240590     9A    -11.240458
      10A    -11.238105    11A    -11.236480    12A    -11.234351
      13A    -11.220539    14A    -11.218947    15A     -1.270818
      16A     -1.231126    17A     -1.133476    18A     -1.087420
      19A     -1.062936    20A     -0.999497    21A     -0.993233
      22A     -0.916090    23A     -0.873839    24A     -0.857418
      25A     -0.808203    26A     -0.796608    27A     -0.721770
      28A     -0.699372    29A     -0.671156    30A     -0.658550
      31A     -0.651209    32A     -0.622159    33A     -0.609697
      34A     -0.603074    35A     -0.590354    36A     -0.576447
      37A     -0.568757    38A     -0.552025    39A     -0.534734
      40A     -0.530063    41A     -0.505465    42A     -0.498704
      43A     -0.489392    44A     -0.421633    45A     -0.410862
      46A     -0.388011    47A     -0.369195    48A     -0.317059
      49A     -0.279778

  @DF-RHF Final Energy:  -570.49034965685985

   => Energetics <=

    Nuclear Repulsion Energy =            818.9908500959995763
    One-Electron Energy =               -2398.1628741749495930
    Two-Electron Energy =                1008.6816744220901683
    Total Energy =                       -570.4903496568598484
  Basis Set: (AUG-CC-PVTZ AUX)
    Blend: AUG-CC-PVTZ-RI
    Molecular point group: c1

    Geometry (in Angstrom), charge = 0, multiplicity = 1:

       Center              X                  Y                   Z               Mass
    ------------   -----------------  -----------------  -----------------  -----------------
         N            1.022828942115     1.792476758687     0.324027163897    14.003074004430
         N           -1.506402557885     0.853839858687    -0.602241036103    14.003074004430
         C            0.444206942115    -0.541936241313    -0.073254836103    12.000000000000
         C            1.419113942115     0.481010758687     0.095924163897    12.000000000000
         C           -1.008395057885    -0.267859241313    -0.028451836103    12.000000000000
         C            0.865550942115    -1.863213241313    -0.278713836103    12.000000000000
         C            2.776195942115     0.109254758687     0.112198163897    12.000000000000
         C            2.214432942115    -2.212969241313    -0.276238836103    12.000000000000
         C            3.167404942115    -1.215657241313    -0.074603836103    12.000000000000
         C           -1.884274057885    -1.169927241313     0.599324163897    12.000000000000
         C           -3.254007057885    -0.923429241313     0.579697163897    12.000000000000
         C            1.998403942115     2.863348758687     0.252813163897    12.000000000000
         C           -2.786330057885     1.097916758687    -0.612366836103    12.000000000000
         C           -3.720625057885     0.232371758687    -0.046114836103    12.000000000000
         H            0.113016942115    -2.627634241313    -0.463503836103     1.007825032230
         H            3.539727942115     0.867578758687     0.253843163897     1.007825032230
         H            0.136334942115     1.997536758687    -0.129834836103     1.007825032230
         H            2.515051942115    -3.243447241313    -0.446020836103     1.007825032230
         H            4.226870942115    -1.463110241313    -0.066288836103     1.007825032230
         H           -1.485019057885    -2.041850241313     1.108950163897     1.007825032230
         H           -3.944329057885    -1.613001241313     1.059832163897     1.007825032230
         H            2.573719942115     2.871506758687    -0.685317836103     1.007825032230
         H            2.703685942115     2.796520758687     1.086566163897     1.007825032230
         H            1.465315942115     3.811908758687     0.343622163897     1.007825032230
         H           -3.103710057885     2.021688758687    -1.093620836103     1.007825032230
         H           -4.780279057885     0.468703758687    -0.081856836103     1.007825032230

  Basis Set: AUG-CC-PVTZ
    Blend: AUG-CC-PVTZ
  Basis Set: (AUG-CC-PVTZ AUX)
    Blend: AUG-CC-PVTZ-JKFIT
	 Reference Energy          =    -570.4903496568598484 [Eh]
	 Singles Energy            =      -0.0000000000000000 [Eh]
	 Same-Spin Energy          =      -0.6390311278706745 [Eh]
	 Opposite-Spin Energy      =      -1.9750363223784027 [Eh]
	 Correlation Energy        =      -2.6140674502490771 [Eh]
	 Total Energy              =    -573.1044171071089295 [Eh]

	 ================> DF-SCS-MP2 Energies <==================
	-----------------------------------------------------------
	 SCS Same-Spin Scale       =       0.3333333333333333 [-]
	 SCS Opposite-Spin Scale   =       1.2000000000000000 [-]
	 SCS Same-Spin Energy      =      -0.2130103759568915 [Eh]
	 SCS Opposite-Spin Energy  =      -2.3700435868540830 [Eh]
	 SCS Correlation Energy    =      -2.5830539628109745 [Eh]
	 SCS Total Energy          =    -573.0734036196707848 [Eh]
	-----------------------------------------------------------

  Dipole Moment: [D]
     X:    -1.6279      Y:     0.1948      Z:     0.3356     Total:     1.6735

*** Psi4 exiting successfully. Buy a developer a beer!
