                               Psi4 1.4a3.dev225

  ==> Input File <==

--------------------------------------------------------------------------
#psi4
#
memory 32 gb

molecule  {
0 1
  N        0.9996340     1.7721850     0.3204360
  N       -1.4856460     0.8456190    -0.6184330
  C        0.4210120    -0.5622280    -0.0768460
  C        1.3959190     0.4607190     0.0923330
  C       -1.0483474    -0.2463080    -0.0536844
  C        0.8423560    -1.8835050    -0.2823050
  C        2.7530010     0.0889630     0.1086070
  C        2.1912380    -2.2332610    -0.2798300
  C        3.1442100    -1.2359490    -0.0781950
  C       -1.9074690    -1.1902190     0.5957330
  C       -3.2772020    -0.9437210     0.5761060
  C        1.9752090     2.8430570     0.2492220
  C       -2.8095250     1.0776250    -0.6159580
  C       -3.7438200     0.2120800    -0.0497060
  H        0.0898220    -2.6479260    -0.4670950
  H        3.5165330     0.8472870     0.2502520
  H        0.1131400     1.9772450    -0.1334260
  H        2.4918570    -3.2637390    -0.4496120
  H        4.2036760    -1.4834020    -0.0698800
  H       -1.5082140    -2.0621420     1.1053590
  H       -3.9675240    -1.6332930     1.0562410
  H        2.5505250     2.8512150    -0.6889090
  H        2.6804910     2.7762290     1.0829750
  H        1.4421210     3.7916170     0.3400310
  H       -3.1269050     2.0013970    -1.0972120
  H       -4.8034740     0.4484120    -0.0854480
units angstrom
no_reorient  #important for SAPT in psi4, default
symmetry c1  #important for SAPT in psi4, default
}

set PROPERTIES_ORIGIN ["COM"]
properties('MP2/aug-cc-pvtz', properties = ['dipole'])
--------------------------------------------------------------------------

    Molecular point group: c1
  Charge       = 0
  Multiplicity = 1
  Basis Set: AUG-CC-PVTZ
    Blend: AUG-CC-PVTZ
  Basis Set: (AUG-CC-PVTZ AUX)
    Blend: AUG-CC-PVTZ-JKFIT

    Orbital Energies [Eh]
    ---------------------

    Doubly Occupied:

       1A    -15.566465     2A    -15.550434     3A    -11.290376
       4A    -11.281524     5A    -11.277515     6A    -11.262213
       7A    -11.248669     8A    -11.244070     9A    -11.242973
      10A    -11.237205    11A    -11.235102    12A    -11.233528
      13A    -11.219342    14A    -11.218170    15A     -1.276091
      16A     -1.229756    17A     -1.130987    18A     -1.091827
      19A     -1.056423    20A     -0.998365    21A     -0.992205
      22A     -0.914979    23A     -0.872233    24A     -0.859793
      25A     -0.806151    26A     -0.795267    27A     -0.719960
      28A     -0.699382    29A     -0.669419    30A     -0.660966
      31A     -0.650459    32A     -0.620786    33A     -0.608086
      34A     -0.601643    35A     -0.587876    36A     -0.577341
      37A     -0.567986    38A     -0.553188    39A     -0.534913
      40A     -0.527625    41A     -0.505259    42A     -0.497703
      43A     -0.489310    44A     -0.421640    45A     -0.415048
      46A     -0.393610    47A     -0.362684    48A     -0.317798
      49A     -0.279689

  @DF-RHF Final Energy:  -570.48900473055062

   => Energetics <=

    Nuclear Repulsion Energy =            818.7802730100286226
    One-Electron Energy =               -2397.7504967217832927
    Two-Electron Energy =                1008.4812189812040515
    Total Energy =                       -570.4890047305506187
  Basis Set: (AUG-CC-PVTZ AUX)
    Blend: AUG-CC-PVTZ-RI
    Molecular point group: c1

    Geometry (in Angstrom), charge = 0, multiplicity = 1:

       Center              X                  Y                   Z               Mass
    ------------   -----------------  -----------------  -----------------  -----------------
         N            1.020578169718     1.788831209911     0.326396238424    14.003074004430
         N           -1.464701830282     0.862265209911    -0.612472761576    14.003074004430
         C            0.441956169718    -0.545581790089    -0.070885761576    12.000000000000
         C            1.416863169718     0.477365209911     0.098293238424    12.000000000000
         C           -1.027403230282    -0.229661790089    -0.047724161576    12.000000000000
         C            0.863300169718    -1.866858790089    -0.276344761576    12.000000000000
         C            2.773945169718     0.105609209911     0.114567238424    12.000000000000
         C            2.212182169718    -2.216614790089    -0.273869761576    12.000000000000
         C            3.165154169718    -1.219302790089    -0.072234761576    12.000000000000
         C           -1.886524830282    -1.173572790089     0.601693238424    12.000000000000
         C           -3.256257830282    -0.927074790089     0.582066238424    12.000000000000
         C            1.996153169718     2.859703209911     0.255182238424    12.000000000000
         C           -2.788580830282     1.094271209911    -0.609997761576    12.000000000000
         C           -3.722875830282     0.228726209911    -0.043745761576    12.000000000000
         H            0.110766169718    -2.631279790089    -0.461134761576     1.007825032230
         H            3.537477169718     0.863933209911     0.256212238424     1.007825032230
         H            0.134084169718     1.993891209911    -0.127465761576     1.007825032230
         H            2.512801169718    -3.247092790089    -0.443651761576     1.007825032230
         H            4.224620169718    -1.466755790089    -0.063919761576     1.007825032230
         H           -1.487269830282    -2.045495790089     1.111319238424     1.007825032230
         H           -3.946579830282    -1.616646790089     1.062201238424     1.007825032230
         H            2.571469169718     2.867861209911    -0.682948761576     1.007825032230
         H            2.701435169718     2.792875209911     1.088935238424     1.007825032230
         H            1.463065169718     3.808263209911     0.345991238424     1.007825032230
         H           -3.105960830282     2.018043209911    -1.091251761576     1.007825032230
         H           -4.782529830282     0.465058209911    -0.079487761576     1.007825032230

  Basis Set: AUG-CC-PVTZ
    Blend: AUG-CC-PVTZ
  Basis Set: (AUG-CC-PVTZ AUX)
    Blend: AUG-CC-PVTZ-JKFIT
	 Reference Energy          =    -570.4890047305506187 [Eh]
	 Singles Energy            =      -0.0000000000000000 [Eh]
	 Same-Spin Energy          =      -0.6387095594457293 [Eh]
	 Opposite-Spin Energy      =      -1.9751910255159859 [Eh]
	 Correlation Energy        =      -2.6139005849617152 [Eh]
	 Total Energy              =    -573.1029053155123165 [Eh]

	 ================> DF-SCS-MP2 Energies <==================
	-----------------------------------------------------------
	 SCS Same-Spin Scale       =       0.3333333333333333 [-]
	 SCS Opposite-Spin Scale   =       1.2000000000000000 [-]
	 SCS Same-Spin Energy      =      -0.2129031864819098 [Eh]
	 SCS Opposite-Spin Energy  =      -2.3702292306191830 [Eh]
	 SCS Correlation Energy    =      -2.5831324171010928 [Eh]
	 SCS Total Energy          =    -573.0721371476516879 [Eh]
	-----------------------------------------------------------

  Dipole Moment: [D]
     X:    -1.8233      Y:     0.1820      Z:     0.3473     Total:     1.8650

*** Psi4 exiting successfully. Buy a developer a beer!
