                               Psi4 1.3.2 release

  ==> Input File <==

--------------------------------------------------------------------------
#psi4
#
memory 32 gb

molecule  {
0 1
  N        0.9996340     1.7721850     0.3204360
  N       -1.4856460     0.8456190    -0.6184330
  C        0.4210120    -0.5622280    -0.0768460
  C        1.4658666     0.3909655     0.0818570
  C       -1.0315900    -0.2881510    -0.0320430
  C        0.8423560    -1.8835050    -0.2823050
  C        2.7530010     0.0889630     0.1086070
  C        2.1912380    -2.2332610    -0.2798300
  C        3.1442100    -1.2359490    -0.0781950
  C       -1.9074690    -1.1902190     0.5957330
  C       -3.2772020    -0.9437210     0.5761060
  C        1.9752090     2.8430570     0.2492220
  C       -2.8095250     1.0776250    -0.6159580
  C       -3.7438200     0.2120800    -0.0497060
  H        0.0898220    -2.6479260    -0.4670950
  H        3.5165330     0.8472870     0.2502520
  H        0.1131400     1.9772450    -0.1334260
  H        2.4918570    -3.2637390    -0.4496120
  H        4.2036760    -1.4834020    -0.0698800
  H       -1.5082140    -2.0621420     1.1053590
  H       -3.9675240    -1.6332930     1.0562410
  H        2.5505250     2.8512150    -0.6889090
  H        2.6804910     2.7762290     1.0829750
  H        1.4421210     3.7916170     0.3400310
  H       -3.1269050     2.0013970    -1.0972120
  H       -4.8034740     0.4484120    -0.0854480
units angstrom
no_reorient  #important for SAPT in psi4, default
symmetry c1  #important for SAPT in psi4, default
}

set PROPERTIES_ORIGIN ["COM"]
properties('MP2/aug-cc-pvtz', properties = ['dipole'])
--------------------------------------------------------------------------

    Molecular point group: c1
  Charge       = 0
  Multiplicity = 1
  Basis Set: AUG-CC-PVTZ
    Blend: AUG-CC-PVTZ
  Basis Set: (AUG-CC-PVTZ AUX)
    Blend: AUG-CC-PVTZ-JKFIT

    Orbital Energies [Eh]
    ---------------------

    Doubly Occupied:

       1A    -15.569714     2A    -15.539742     3A    -11.293182
       4A    -11.281933     5A    -11.270980     6A    -11.264397
       7A    -11.244089     8A    -11.244004     9A    -11.240025
      10A    -11.239418    11A    -11.238664    12A    -11.238182
      13A    -11.223381    14A    -11.214623    15A     -1.262593
      16A     -1.206838    17A     -1.136147    18A     -1.090120
      19A     -1.064844    20A     -1.010240    21A     -0.992904
      22A     -0.902525    23A     -0.875356    24A     -0.860514
      25A     -0.810469    26A     -0.795502    27A     -0.723058
      28A     -0.693081    29A     -0.672313    30A     -0.657209
      31A     -0.644905    32A     -0.619892    33A     -0.611600
      34A     -0.597445    35A     -0.590119    36A     -0.577908
      37A     -0.564186    38A     -0.547219    39A     -0.534996
      40A     -0.523723    41A     -0.507551    42A     -0.500442
      43A     -0.484215    44A     -0.422605    45A     -0.405135
      46A     -0.388695    47A     -0.369437    48A     -0.322304
      49A     -0.288453

  @DF-RHF Final Energy:  -570.47774001855987

   => Energetics <=

    Nuclear Repulsion Energy =            818.4711653021196298
    One-Electron Energy =               -2397.1840555224944183
    Two-Electron Energy =                1008.2351502018150313
    Total Energy =                       -570.4777400185598708
  Basis Set: (AUG-CC-PVTZ AUX)
    Blend: AUG-CC-PVTZ-RI
    Molecular point group: c1

    Geometry (in Angstrom), charge = 0, multiplicity = 1:

       Center              X                  Y                   Z               Mass
    ------------   -----------------  -----------------  -----------------  -----------------
         N            1.014926568814     1.796105287304     0.325668455888    14.003074004430
         N           -1.470353431186     0.869539287304    -0.613200544112    14.003074004430
         C            0.436304568814    -0.538307712696    -0.071613544112    12.000000000000
         C            1.481159168814     0.414885787304     0.087089455888    12.000000000000
         C           -1.016297431186    -0.264230712696    -0.026810544112    12.000000000000
         C            0.857648568814    -1.859584712696    -0.277072544112    12.000000000000
         C            2.768293568814     0.112883287304     0.113839455888    12.000000000000
         C            2.206530568814    -2.209340712696    -0.274597544112    12.000000000000
         C            3.159502568814    -1.212028712696    -0.072962544112    12.000000000000
         C           -1.892176431186    -1.166298712696     0.600965455888    12.000000000000
         C           -3.261909431186    -0.919800712696     0.581338455888    12.000000000000
         C            1.990501568814     2.866977287304     0.254454455888    12.000000000000
         C           -2.794232431186     1.101545287304    -0.610725544112    12.000000000000
         C           -3.728527431186     0.236000287304    -0.044473544112    12.000000000000
         H            0.105114568814    -2.624005712696    -0.461862544112     1.007825032230
         H            3.531825568814     0.871207287304     0.255484455888     1.007825032230
         H            0.128432568814     2.001165287304    -0.128193544112     1.007825032230
         H            2.507149568814    -3.239818712696    -0.444379544112     1.007825032230
         H            4.218968568814    -1.459481712696    -0.064647544112     1.007825032230
         H           -1.492921431186    -2.038221712696     1.110591455888     1.007825032230
         H           -3.952231431186    -1.609372712696     1.061473455888     1.007825032230
         H            2.565817568814     2.875135287304    -0.683676544112     1.007825032230
         H            2.695783568814     2.800149287304     1.088207455888     1.007825032230
         H            1.457413568814     3.815537287304     0.345263455888     1.007825032230
         H           -3.111612431186     2.025317287304    -1.091979544112     1.007825032230
         H           -4.788181431186     0.472332287304    -0.080215544112     1.007825032230

  Basis Set: AUG-CC-PVTZ
    Blend: AUG-CC-PVTZ
  Basis Set: (AUG-CC-PVTZ AUX)
    Blend: AUG-CC-PVTZ-JKFIT
	 Reference Energy          =    -570.4777400185598708 [Eh]
	 Singles Energy            =      -0.0000000000000000 [Eh]
	 Same-Spin Energy          =      -0.6390244199966770 [Eh]
	 Opposite-Spin Energy      =      -1.9764800942225034 [Eh]
	 Correlation Energy        =      -2.6155045142191806 [Eh]
	 Total Energy              =    -573.0932445327790674 [Eh]

	 ================> DF-SCS-MP2 Energies <==================
	-----------------------------------------------------------
	 SCS Same-Spin Scale       =       0.3333333333333333 [-]
	 SCS Opposite-Spin Scale   =       1.2000000000000000 [-]
	 SCS Same-Spin Energy      =      -0.2130081399988923 [Eh]
	 SCS Opposite-Spin Energy  =      -2.3717761130670039 [Eh]
	 SCS Correlation Energy    =      -2.5847842530658962 [Eh]
	 SCS Total Energy          =    -573.0625242716257617 [Eh]
	-----------------------------------------------------------

  Dipole Moment: [D]
     X:    -1.7551      Y:    -0.4235      Z:     0.2581     Total:     1.8238

*** Psi4 exiting successfully. Buy a developer a beer!
