                               Psi4 1.3.2 release

  ==> Input File <==

--------------------------------------------------------------------------
#psi4
#
memory 32 gb

molecule  {
0 1
  N        0.9996340     1.7721850     0.3204360
  N       -1.4856460     0.8456190    -0.6184330
  C        0.4210120    -0.5622280    -0.0768460
  C        1.3501746     0.4464977     0.0997769
  C       -1.0315900    -0.2881510    -0.0320430
  C        0.8423560    -1.8835050    -0.2823050
  C        2.7530010     0.0889630     0.1086070
  C        2.1912380    -2.2332610    -0.2798300
  C        3.1442100    -1.2359490    -0.0781950
  C       -1.9074690    -1.1902190     0.5957330
  C       -3.2772020    -0.9437210     0.5761060
  C        1.9752090     2.8430570     0.2492220
  C       -2.8095250     1.0776250    -0.6159580
  C       -3.7438200     0.2120800    -0.0497060
  H        0.0898220    -2.6479260    -0.4670950
  H        3.5165330     0.8472870     0.2502520
  H        0.1131400     1.9772450    -0.1334260
  H        2.4918570    -3.2637390    -0.4496120
  H        4.2036760    -1.4834020    -0.0698800
  H       -1.5082140    -2.0621420     1.1053590
  H       -3.9675240    -1.6332930     1.0562410
  H        2.5505250     2.8512150    -0.6889090
  H        2.6804910     2.7762290     1.0829750
  H        1.4421210     3.7916170     0.3400310
  H       -3.1269050     2.0013970    -1.0972120
  H       -4.8034740     0.4484120    -0.0854480
units angstrom
no_reorient  #important for SAPT in psi4, default
symmetry c1  #important for SAPT in psi4, default
}

set PROPERTIES_ORIGIN ["COM"]
properties('MP2/aug-cc-pvtz', properties = ['dipole'])
--------------------------------------------------------------------------

    Molecular point group: c1
  Charge       = 0
  Multiplicity = 1
  Basis Set: AUG-CC-PVTZ
    Blend: AUG-CC-PVTZ
  Basis Set: (AUG-CC-PVTZ AUX)
    Blend: AUG-CC-PVTZ-JKFIT

    Orbital Energies [Eh]
    ---------------------

    Doubly Occupied:

       1A    -15.568468     2A    -15.550360     3A    -11.289251
       4A    -11.281280     5A    -11.279241     6A    -11.263121
       7A    -11.250153     8A    -11.242267     9A    -11.241209
      10A    -11.237632    11A    -11.235034    12A    -11.228588
      13A    -11.224359    14A    -11.218431    15A     -1.263533
      16A     -1.228250    17A     -1.133118    18A     -1.088777
      19A     -1.060738    20A     -0.996870    21A     -0.994341
      22A     -0.916177    23A     -0.869378    24A     -0.860465
      25A     -0.807952    26A     -0.796127    27A     -0.720557
      28A     -0.696106    29A     -0.671363    30A     -0.657518
      31A     -0.651134    32A     -0.621163    33A     -0.608787
      34A     -0.600508    35A     -0.590292    36A     -0.577060
      37A     -0.569097    38A     -0.548145    39A     -0.533609
      40A     -0.529458    41A     -0.504118    42A     -0.499220
      43A     -0.487997    44A     -0.422013    45A     -0.416587
      46A     -0.387673    47A     -0.366955    48A     -0.316738
      49A     -0.280045

  @DF-RHF Final Energy:  -570.48718364790886

   => Energetics <=

    Nuclear Repulsion Energy =            818.9163255086151594
    One-Electron Energy =               -2398.0444878248308669
    Two-Electron Energy =                1008.6409786683069569
    Total Energy =                       -570.4871836479088643
  Basis Set: (AUG-CC-PVTZ AUX)
    Blend: AUG-CC-PVTZ-RI
    Molecular point group: c1

    Geometry (in Angstrom), charge = 0, multiplicity = 1:

       Center              X                  Y                   Z               Mass
    ------------   -----------------  -----------------  -----------------  -----------------
         N            1.022467598880     1.792485590265     0.324500401877    14.003074004430
         N           -1.462812401120     0.865919590265    -0.614368598123    14.003074004430
         C            0.443845598880    -0.541927409735    -0.072781598123    12.000000000000
         C            1.373008198880     0.466798290265     0.103841301877    12.000000000000
         C           -1.008756401120    -0.267850409735    -0.027978598123    12.000000000000
         C            0.865189598880    -1.863204409735    -0.278240598123    12.000000000000
         C            2.775834598880     0.109263590265     0.112671401877    12.000000000000
         C            2.214071598880    -2.212960409735    -0.275765598123    12.000000000000
         C            3.167043598880    -1.215648409735    -0.074130598123    12.000000000000
         C           -1.884635401120    -1.169918409735     0.599797401877    12.000000000000
         C           -3.254368401120    -0.923420409735     0.580170401877    12.000000000000
         C            1.998042598880     2.863357590265     0.253286401877    12.000000000000
         C           -2.786691401120     1.097925590265    -0.611893598123    12.000000000000
         C           -3.720986401120     0.232380590265    -0.045641598123    12.000000000000
         H            0.112655598880    -2.627625409735    -0.463030598123     1.007825032230
         H            3.539366598880     0.867587590265     0.254316401877     1.007825032230
         H            0.135973598880     1.997545590265    -0.129361598123     1.007825032230
         H            2.514690598880    -3.243438409735    -0.445547598123     1.007825032230
         H            4.226509598880    -1.463101409735    -0.065815598123     1.007825032230
         H           -1.485380401120    -2.041841409735     1.109423401877     1.007825032230
         H           -3.944690401120    -1.612992409735     1.060305401877     1.007825032230
         H            2.573358598880     2.871515590265    -0.684844598123     1.007825032230
         H            2.703324598880     2.796529590265     1.087039401877     1.007825032230
         H            1.464954598880     3.811917590265     0.344095401877     1.007825032230
         H           -3.104071401120     2.021697590265    -1.093147598123     1.007825032230
         H           -4.780640401120     0.468712590265    -0.081383598123     1.007825032230

  Basis Set: AUG-CC-PVTZ
    Blend: AUG-CC-PVTZ
  Basis Set: (AUG-CC-PVTZ AUX)
    Blend: AUG-CC-PVTZ-JKFIT
	 Reference Energy          =    -570.4871836479088643 [Eh]
	 Singles Energy            =      -0.0000000000000000 [Eh]
	 Same-Spin Energy          =      -0.6394149633501983 [Eh]
	 Opposite-Spin Energy      =      -1.9765640824959085 [Eh]
	 Correlation Energy        =      -2.6159790458461067 [Eh]
	 Total Energy              =    -573.1031626937549390 [Eh]

	 ================> DF-SCS-MP2 Energies <==================
	-----------------------------------------------------------
	 SCS Same-Spin Scale       =       0.3333333333333333 [-]
	 SCS Opposite-Spin Scale   =       1.2000000000000000 [-]
	 SCS Same-Spin Energy      =      -0.2131383211167328 [Eh]
	 SCS Opposite-Spin Energy  =      -2.3718768989950902 [Eh]
	 SCS Correlation Energy    =      -2.5850152201118228 [Eh]
	 SCS Total Energy          =    -573.0721988680206778 [Eh]
	-----------------------------------------------------------

  Dipole Moment: [D]
     X:    -1.7360      Y:     0.1919      Z:     0.3665     Total:     1.7846

*** Psi4 exiting successfully. Buy a developer a beer!
