                               Psi4 1.3.2 release

  ==> Input File <==

--------------------------------------------------------------------------
#psi4
#
memory 32 gb

molecule  {
0 1
  N        0.9996340     1.7721850     0.3204360
  N       -1.4856460     0.8456190    -0.6184330
  C        0.4210120    -0.5622280    -0.0768460
  C        1.3959190     0.4607190     0.0923330
  C       -1.0315900    -0.2881510    -0.0320430
  C        0.8423560    -1.8835050    -0.2823050
  C        2.7530010     0.0889630     0.1086070
  C        2.1912380    -2.2332610    -0.2798300
  C        3.1442100    -1.2359490    -0.0781950
  C       -2.0321187    -1.3185958     0.6850742
  C       -3.2772020    -0.9437210     0.5761060
  C        1.9752090     2.8430570     0.2492220
  C       -2.8095250     1.0776250    -0.6159580
  C       -3.7438200     0.2120800    -0.0497060
  H        0.0898220    -2.6479260    -0.4670950
  H        3.5165330     0.8472870     0.2502520
  H        0.1131400     1.9772450    -0.1334260
  H        2.4918570    -3.2637390    -0.4496120
  H        4.2036760    -1.4834020    -0.0698800
  H       -1.5082140    -2.0621420     1.1053590
  H       -3.9675240    -1.6332930     1.0562410
  H        2.5505250     2.8512150    -0.6889090
  H        2.6804910     2.7762290     1.0829750
  H        1.4421210     3.7916170     0.3400310
  H       -3.1269050     2.0013970    -1.0972120
  H       -4.8034740     0.4484120    -0.0854480
units angstrom
no_reorient  #important for SAPT in psi4, default
symmetry c1  #important for SAPT in psi4, default
}

set PROPERTIES_ORIGIN ["COM"]
properties('MP2/aug-cc-pvtz', properties = ['dipole'])
--------------------------------------------------------------------------

    Molecular point group: c1
  Charge       = 0
  Multiplicity = 1
  Basis Set: AUG-CC-PVTZ
    Blend: AUG-CC-PVTZ
  Basis Set: (AUG-CC-PVTZ AUX)
    Blend: AUG-CC-PVTZ-JKFIT

    Orbital Energies [Eh]
    ---------------------

    Doubly Occupied:

       1A    -15.567536     2A    -15.553052     3A    -11.310241
       4A    -11.283436     5A    -11.277994     6A    -11.250521
       7A    -11.248753     8A    -11.244155     9A    -11.242288
      10A    -11.240192    11A    -11.237510    12A    -11.237487
      13A    -11.223297    14A    -11.221828    15A     -1.257758
      16A     -1.230104    17A     -1.135330    18A     -1.098841
      19A     -1.053016    20A     -1.002213    21A     -0.991795
      22A     -0.918119    23A     -0.880667    24A     -0.847890
      25A     -0.806099    26A     -0.795779    27A     -0.717310
      28A     -0.705006    29A     -0.685604    30A     -0.660682
      31A     -0.653216    32A     -0.617291    33A     -0.609999
      34A     -0.603361    35A     -0.591539    36A     -0.572608
      37A     -0.555296    38A     -0.551240    39A     -0.540824
      40A     -0.528094    41A     -0.506767    42A     -0.501581
      43A     -0.493106    44A     -0.423155    45A     -0.406546
      46A     -0.401061    47A     -0.360037    48A     -0.313943
      49A     -0.280481

  @DF-RHF Final Energy:  -570.45013397086711

   => Energetics <=

    Nuclear Repulsion Energy =            815.4196949851915406
    One-Electron Energy =               -2390.8703628502298670
    Two-Electron Energy =                1005.0005338941710988
    Total Energy =                       -570.4501339708671139
  Basis Set: (AUG-CC-PVTZ AUX)
    Blend: AUG-CC-PVTZ-RI
    Molecular point group: c1

    Geometry (in Angstrom), charge = 0, multiplicity = 1:

       Center              X                  Y                   Z               Mass
    ------------   -----------------  -----------------  -----------------  -----------------
         N            1.027610800135     1.799926468266     0.319162176230    14.003074004430
         N           -1.457669199865     0.873360468266    -0.619706823770    14.003074004430
         C            0.448988800135    -0.534486531734    -0.078119823770    12.000000000000
         C            1.423895800135     0.488460468266     0.091059176230    12.000000000000
         C           -1.003613199865    -0.260409531734    -0.033316823770    12.000000000000
         C            0.870332800135    -1.855763531734    -0.283578823770    12.000000000000
         C            2.780977800135     0.116704468266     0.107333176230    12.000000000000
         C            2.219214800135    -2.205519531734    -0.281103823770    12.000000000000
         C            3.172186800135    -1.208207531734    -0.079468823770    12.000000000000
         C           -2.004141899865    -1.290854331734     0.683800376230    12.000000000000
         C           -3.249225199865    -0.915979531734     0.574832176230    12.000000000000
         C            2.003185800135     2.870798468266     0.247948176230    12.000000000000
         C           -2.781548199865     1.105366468266    -0.617231823770    12.000000000000
         C           -3.715843199865     0.239821468266    -0.050979823770    12.000000000000
         H            0.117798800135    -2.620184531734    -0.468368823770     1.007825032230
         H            3.544509800135     0.875028468266     0.248978176230     1.007825032230
         H            0.141116800135     2.004986468266    -0.134699823770     1.007825032230
         H            2.519833800135    -3.235997531734    -0.450885823770     1.007825032230
         H            4.231652800135    -1.455660531734    -0.071153823770     1.007825032230
         H           -1.480237199865    -2.034400531734     1.104085176230     1.007825032230
         H           -3.939547199865    -1.605551531734     1.054967176230     1.007825032230
         H            2.578501800135     2.878956468266    -0.690182823770     1.007825032230
         H            2.708467800135     2.803970468266     1.081701176230     1.007825032230
         H            1.470097800135     3.819358468266     0.338757176230     1.007825032230
         H           -3.098928199865     2.029138468266    -1.098485823770     1.007825032230
         H           -4.775497199865     0.476153468266    -0.086721823770     1.007825032230

  Basis Set: AUG-CC-PVTZ
    Blend: AUG-CC-PVTZ
  Basis Set: (AUG-CC-PVTZ AUX)
    Blend: AUG-CC-PVTZ-JKFIT
	 Reference Energy          =    -570.4501339708671139 [Eh]
	 Singles Energy            =      -0.0000000000000000 [Eh]
	 Same-Spin Energy          =      -0.6387599148695444 [Eh]
	 Opposite-Spin Energy      =      -1.9777520458768176 [Eh]
	 Correlation Energy        =      -2.6165119607463621 [Eh]
	 Total Energy              =    -573.0666459316134933 [Eh]

	 ================> DF-SCS-MP2 Energies <==================
	-----------------------------------------------------------
	 SCS Same-Spin Scale       =       0.3333333333333333 [-]
	 SCS Opposite-Spin Scale   =       1.2000000000000000 [-]
	 SCS Same-Spin Energy      =      -0.2129199716231815 [Eh]
	 SCS Opposite-Spin Energy  =      -2.3733024550521811 [Eh]
	 SCS Correlation Energy    =      -2.5862224266753624 [Eh]
	 SCS Total Energy          =    -573.0363563975424768 [Eh]
	-----------------------------------------------------------

  Dipole Moment: [D]
     X:    -1.3991      Y:     0.1791      Z:     0.3411     Total:     1.4512

*** Psi4 exiting successfully. Buy a developer a beer!
