                               Psi4 1.4a3.dev225

  ==> Input File <==

--------------------------------------------------------------------------
#psi4
#
memory 32 gb

molecule  {
0 1
  N        0.9996340     1.7721850     0.3204360
  N       -1.4856460     0.8456190    -0.6184330
  C        0.4210120    -0.5622280    -0.0768460
  C        1.3959190     0.4607190     0.0923330
  C       -1.0315900    -0.2881510    -0.0320430
  C        0.8423560    -1.8835050    -0.2823050
  C        2.7530010     0.0889630     0.1086070
  C        2.1912380    -2.2332610    -0.2798300
  C        3.1442100    -1.2359490    -0.0781950
  C       -1.9386314    -1.2223132     0.6180683
  C       -3.2772020    -0.9437210     0.5761060
  C        1.9752090     2.8430570     0.2492220
  C       -2.8095250     1.0776250    -0.6159580
  C       -3.7438200     0.2120800    -0.0497060
  H        0.0898220    -2.6479260    -0.4670950
  H        3.5165330     0.8472870     0.2502520
  H        0.1131400     1.9772450    -0.1334260
  H        2.4918570    -3.2637390    -0.4496120
  H        4.2036760    -1.4834020    -0.0698800
  H       -1.5082140    -2.0621420     1.1053590
  H       -3.9675240    -1.6332930     1.0562410
  H        2.5505250     2.8512150    -0.6889090
  H        2.6804910     2.7762290     1.0829750
  H        1.4421210     3.7916170     0.3400310
  H       -3.1269050     2.0013970    -1.0972120
  H       -4.8034740     0.4484120    -0.0854480
units angstrom
no_reorient  #important for SAPT in psi4, default
symmetry c1  #important for SAPT in psi4, default
}

set PROPERTIES_ORIGIN ["COM"]
properties('MP2/aug-cc-pvtz', properties = ['dipole'])
--------------------------------------------------------------------------

    Molecular point group: c1
  Charge       = 0
  Multiplicity = 1
  Basis Set: AUG-CC-PVTZ
    Blend: AUG-CC-PVTZ
  Basis Set: (AUG-CC-PVTZ AUX)
    Blend: AUG-CC-PVTZ-JKFIT

    Orbital Energies [Eh]
    ---------------------

    Doubly Occupied:

       1A    -15.568534     2A    -15.551242     3A    -11.296567
       4A    -11.280250     5A    -11.280196     6A    -11.259125
       7A    -11.249234     8A    -11.242220     9A    -11.241085
      10A    -11.238814    11A    -11.237138    12A    -11.234418
      13A    -11.220930    14A    -11.219357    15A     -1.261550
      16A     -1.229278    17A     -1.133198    18A     -1.091281
      19A     -1.057940    20A     -0.999765    21A     -0.992355
      22A     -0.916307    23A     -0.873774    24A     -0.855991
      25A     -0.805501    26A     -0.796436    27A     -0.720063
      28A     -0.699220    29A     -0.671625    30A     -0.659969
      31A     -0.651108    32A     -0.620409    33A     -0.609184
      34A     -0.602745    35A     -0.590676    36A     -0.573917
      37A     -0.567128    38A     -0.546947    39A     -0.537974
      40A     -0.530369    41A     -0.504730    42A     -0.498899
      43A     -0.490634    44A     -0.422653    45A     -0.415040
      46A     -0.391737    47A     -0.364771    48A     -0.316543
      49A     -0.279814

  @DF-RHF Final Energy:  -570.48686418596708

   => Energetics <=

    Nuclear Repulsion Energy =            817.7527308749146187
    One-Electron Energy =               -2395.6819079643437362
    Two-Electron Energy =                1007.4423129034621525
    Total Energy =                       -570.4868641859670788
  Basis Set: (AUG-CC-PVTZ AUX)
    Blend: AUG-CC-PVTZ-RI
    Molecular point group: c1

    Geometry (in Angstrom), charge = 0, multiplicity = 1:

       Center              X                  Y                   Z               Mass
    ------------   -----------------  -----------------  -----------------  -----------------
         N            1.021517115696     1.793650580725     0.323529751399    14.003074004430
         N           -1.463762884304     0.867084580725    -0.615339248601    14.003074004430
         C            0.442895115696    -0.540762419275    -0.073752248601    12.000000000000
         C            1.417802115696     0.482184580725     0.095426751399    12.000000000000
         C           -1.009706884304    -0.266685419275    -0.028949248601    12.000000000000
         C            0.864239115696    -1.862039419275    -0.279211248601    12.000000000000
         C            2.774884115696     0.110428580725     0.111700751399    12.000000000000
         C            2.213121115696    -2.211795419275    -0.276736248601    12.000000000000
         C            3.166093115696    -1.214483419275    -0.075101248601    12.000000000000
         C           -1.916748284304    -1.200847619275     0.621162051399    12.000000000000
         C           -3.255318884304    -0.922255419275     0.579199751399    12.000000000000
         C            1.997092115696     2.864522580725     0.252315751399    12.000000000000
         C           -2.787641884304     1.099090580725    -0.612864248601    12.000000000000
         C           -3.721936884304     0.233545580725    -0.046612248601    12.000000000000
         H            0.111705115696    -2.626460419275    -0.464001248601     1.007825032230
         H            3.538416115696     0.868752580725     0.253345751399     1.007825032230
         H            0.135023115696     1.998710580725    -0.130332248601     1.007825032230
         H            2.513740115696    -3.242273419275    -0.446518248601     1.007825032230
         H            4.225559115696    -1.461936419275    -0.066786248601     1.007825032230
         H           -1.486330884304    -2.040676419275     1.108452751399     1.007825032230
         H           -3.945640884304    -1.611827419275     1.059334751399     1.007825032230
         H            2.572408115696     2.872680580725    -0.685815248601     1.007825032230
         H            2.702374115696     2.797694580725     1.086068751399     1.007825032230
         H            1.464004115696     3.813082580725     0.343124751399     1.007825032230
         H           -3.105021884304     2.022862580725    -1.094118248601     1.007825032230
         H           -4.781590884304     0.469877580725    -0.082354248601     1.007825032230

  Basis Set: AUG-CC-PVTZ
    Blend: AUG-CC-PVTZ
  Basis Set: (AUG-CC-PVTZ AUX)
    Blend: AUG-CC-PVTZ-JKFIT
	 Reference Energy          =    -570.4868641859670788 [Eh]
	 Singles Energy            =      -0.0000000000000000 [Eh]
	 Same-Spin Energy          =      -0.6393151765424360 [Eh]
	 Opposite-Spin Energy      =      -1.9764527123080970 [Eh]
	 Correlation Energy        =      -2.6157678888505331 [Eh]
	 Total Energy              =    -573.1026320748176204 [Eh]

	 ================> DF-SCS-MP2 Energies <==================
	-----------------------------------------------------------
	 SCS Same-Spin Scale       =       0.3333333333333333 [-]
	 SCS Opposite-Spin Scale   =       1.2000000000000000 [-]
	 SCS Same-Spin Energy      =      -0.2131050588474787 [Eh]
	 SCS Opposite-Spin Energy  =      -2.3717432547697164 [Eh]
	 SCS Correlation Energy    =      -2.5848483136171949 [Eh]
	 SCS Total Energy          =    -573.0717124995842369 [Eh]
	-----------------------------------------------------------

  Dipole Moment: [D]
     X:    -1.6668      Y:     0.1606      Z:     0.3598     Total:     1.7127

*** Psi4 exiting successfully. Buy a developer a beer!
