                               Psi4 1.3.2 release

  ==> Input File <==

--------------------------------------------------------------------------
#psi4
#
memory 32 gb

molecule  {
0 1
  N        0.9996340     1.7721850     0.3204360
  N       -1.4856460     0.8456190    -0.6184330
  C        0.4210120    -0.5622280    -0.0768460
  C        1.3959190     0.4607190     0.0923330
  C       -0.9333690    -0.3066834    -0.0350725
  C        0.8423560    -1.8835050    -0.2823050
  C        2.7530010     0.0889630     0.1086070
  C        2.1912380    -2.2332610    -0.2798300
  C        3.1442100    -1.2359490    -0.0781950
  C       -1.9074690    -1.1902190     0.5957330
  C       -3.2772020    -0.9437210     0.5761060
  C        1.9752090     2.8430570     0.2492220
  C       -2.8095250     1.0776250    -0.6159580
  C       -3.7438200     0.2120800    -0.0497060
  H        0.0898220    -2.6479260    -0.4670950
  H        3.5165330     0.8472870     0.2502520
  H        0.1131400     1.9772450    -0.1334260
  H        2.4918570    -3.2637390    -0.4496120
  H        4.2036760    -1.4834020    -0.0698800
  H       -1.5082140    -2.0621420     1.1053590
  H       -3.9675240    -1.6332930     1.0562410
  H        2.5505250     2.8512150    -0.6889090
  H        2.6804910     2.7762290     1.0829750
  H        1.4421210     3.7916170     0.3400310
  H       -3.1269050     2.0013970    -1.0972120
  H       -4.8034740     0.4484120    -0.0854480
units angstrom
no_reorient  #important for SAPT in psi4, default
symmetry c1  #important for SAPT in psi4, default
}

set PROPERTIES_ORIGIN ["COM"]
properties('MP2/aug-cc-pvtz', properties = ['dipole'])
--------------------------------------------------------------------------

    Molecular point group: c1
  Charge       = 0
  Multiplicity = 1
  Basis Set: AUG-CC-PVTZ
    Blend: AUG-CC-PVTZ
  Basis Set: (AUG-CC-PVTZ AUX)
    Blend: AUG-CC-PVTZ-JKFIT

    Orbital Energies [Eh]
    ---------------------

    Doubly Occupied:

       1A    -15.566401     2A    -15.554020     3A    -11.293927
       4A    -11.284725     5A    -11.277658     6A    -11.259366
       7A    -11.250945     8A    -11.244242     9A    -11.243024
      10A    -11.241650    11A    -11.238689    12A    -11.229540
      13A    -11.223588    14A    -11.221991    15A     -1.251855
      16A     -1.226307    17A     -1.140119    18A     -1.080608
      19A     -1.068595    20A     -1.002831    21A     -0.990327
      22A     -0.920091    23A     -0.880124    24A     -0.849911
      25A     -0.804798    26A     -0.798957    27A     -0.725137
      28A     -0.697855    29A     -0.671901    30A     -0.663424
      31A     -0.645306    32A     -0.620552    33A     -0.610934
      34A     -0.604878    35A     -0.591628    36A     -0.575505
      37A     -0.571280    38A     -0.541288    39A     -0.534735
      40A     -0.531826    41A     -0.506773    42A     -0.499647
      43A     -0.494734    44A     -0.423987    45A     -0.407283
      46A     -0.384124    47A     -0.368681    48A     -0.314319
      49A     -0.278456

  @DF-RHF Final Energy:  -570.47139459499692

   => Energetics <=

    Nuclear Repulsion Energy =            818.7641217892373788
    One-Electron Energy =               -2397.6539457595704334
    Two-Electron Energy =                1008.4184293753361317
    Total Energy =                       -570.4713945949969229
  Basis Set: (AUG-CC-PVTZ AUX)
    Blend: AUG-CC-PVTZ-RI
    Molecular point group: c1

    Geometry (in Angstrom), charge = 0, multiplicity = 1:

       Center              X                  Y                   Z               Mass
    ------------   -----------------  -----------------  -----------------  -----------------
         N            1.013083653492     1.792766596166     0.325183078503    14.003074004430
         N           -1.472196346508     0.866200596166    -0.613685921497    14.003074004430
         C            0.434461653492    -0.541646403834    -0.072098921497    12.000000000000
         C            1.409368653492     0.481300596166     0.097080078503    12.000000000000
         C           -0.919919346508    -0.286101803834    -0.030325421497    12.000000000000
         C            0.855805653492    -1.862923403834    -0.277557921497    12.000000000000
         C            2.766450653492     0.109544596166     0.113354078503    12.000000000000
         C            2.204687653492    -2.212679403834    -0.275082921497    12.000000000000
         C            3.157659653492    -1.215367403834    -0.073447921497    12.000000000000
         C           -1.894019346508    -1.169637403834     0.600480078503    12.000000000000
         C           -3.263752346508    -0.923139403834     0.580853078503    12.000000000000
         C            1.988658653492     2.863638596166     0.253969078503    12.000000000000
         C           -2.796075346508     1.098206596166    -0.611210921497    12.000000000000
         C           -3.730370346508     0.232661596166    -0.044958921497    12.000000000000
         H            0.103271653492    -2.627344403834    -0.462347921497     1.007825032230
         H            3.529982653492     0.867868596166     0.254999078503     1.007825032230
         H            0.126589653492     1.997826596166    -0.128678921497     1.007825032230
         H            2.505306653492    -3.243157403834    -0.444864921497     1.007825032230
         H            4.217125653492    -1.462820403834    -0.065132921497     1.007825032230
         H           -1.494764346508    -2.041560403834     1.110106078503     1.007825032230
         H           -3.954074346508    -1.612711403834     1.060988078503     1.007825032230
         H            2.563974653492     2.871796596166    -0.684161921497     1.007825032230
         H            2.693940653492     2.796810596166     1.087722078503     1.007825032230
         H            1.455570653492     3.812198596166     0.344778078503     1.007825032230
         H           -3.113455346508     2.021978596166    -1.092464921497     1.007825032230
         H           -4.790024346508     0.468993596166    -0.080700921497     1.007825032230

  Basis Set: AUG-CC-PVTZ
    Blend: AUG-CC-PVTZ
  Basis Set: (AUG-CC-PVTZ AUX)
    Blend: AUG-CC-PVTZ-JKFIT
	 Reference Energy          =    -570.4713945949969229 [Eh]
	 Singles Energy            =      -0.0000000000000000 [Eh]
	 Same-Spin Energy          =      -0.6418074439701422 [Eh]
	 Opposite-Spin Energy      =      -1.9801963458766643 [Eh]
	 Correlation Energy        =      -2.6220037898468065 [Eh]
	 Total Energy              =    -573.0933983848436810 [Eh]

	 ================> DF-SCS-MP2 Energies <==================
	-----------------------------------------------------------
	 SCS Same-Spin Scale       =       0.3333333333333333 [-]
	 SCS Opposite-Spin Scale   =       1.2000000000000000 [-]
	 SCS Same-Spin Energy      =      -0.2139358146567141 [Eh]
	 SCS Opposite-Spin Energy  =      -2.3762356150519972 [Eh]
	 SCS Correlation Energy    =      -2.5901714297087111 [Eh]
	 SCS Total Energy          =    -573.0615660247055985 [Eh]
	-----------------------------------------------------------

  Dipole Moment: [D]
     X:    -1.2513      Y:     0.1267      Z:     0.3576     Total:     1.3076

*** Psi4 exiting successfully. Buy a developer a beer!
