                               Psi4 1.3.2 release

  ==> Input File <==

--------------------------------------------------------------------------
#psi4
#
memory 32 gb

molecule  {
0 1
  N        0.9996340     1.7721850     0.3204360
  N       -1.4856460     0.8456190    -0.6184330
  C        0.4210120    -0.5622280    -0.0768460
  C        1.3959190     0.4607190     0.0923330
  C       -1.0315900    -0.2881510    -0.0320430
  C        0.8423560    -1.8835050    -0.2823050
  C        2.7530010     0.0889630     0.1086070
  C        2.1912380    -2.2332610    -0.2798300
  C        3.1442100    -1.2359490    -0.0781950
  C       -1.9074690    -1.1902190     0.5957330
  C       -3.2772020    -0.9437210     0.5761060
  C        1.9752090     2.8430570     0.2492220
  C       -2.8095250     1.0776250    -0.6159580
  C       -3.7438200     0.2120800    -0.0497060
  H        0.0898220    -2.6479260    -0.4670950
  H        3.5165330     0.8472870     0.2502520
  H        0.1131400     1.9772450    -0.1334260
  H        2.4918570    -3.2637390    -0.4496120
  H        4.2036760    -1.4834020    -0.0698800
  H       -1.5082140    -2.0621420     1.1053590
  H       -3.9675240    -1.6332930     1.0562410
  H        2.5505250     2.8512150    -0.6889090
  H        2.6804910     2.7762290     1.0829750
  H        1.4421210     3.7916170     0.3400310
  H       -3.1269050     2.0013970    -1.0972120
  H       -4.8034740     0.4484120    -0.0854480
units angstrom
no_reorient  #important for SAPT in psi4, default
symmetry c1  #important for SAPT in psi4, default
}

set PROPERTIES_ORIGIN ["COM"]
properties('MP2/aug-cc-pvtz', properties = ['dipole'])
--------------------------------------------------------------------------

    Molecular point group: c1
  Charge       = 0
  Multiplicity = 1
  Basis Set: AUG-CC-PVTZ
    Blend: AUG-CC-PVTZ
  Basis Set: (AUG-CC-PVTZ AUX)
    Blend: AUG-CC-PVTZ-JKFIT

    Orbital Energies [Eh]
    ---------------------

    Doubly Occupied:

       1A    -15.568643     2A    -15.550495     3A    -11.289923
       4A    -11.281385     5A    -11.278949     6A    -11.263245
       7A    -11.248708     8A    -11.242452     9A    -11.241539
      10A    -11.237427    11A    -11.235923    12A    -11.233111
      13A    -11.219969    14A    -11.218367    15A     -1.263236
      16A     -1.228832    17A     -1.132391    18A     -1.088904
      19A     -1.060644    20A     -0.998821    21A     -0.992829
      22A     -0.915606    23A     -0.871029    24A     -0.860220
      25A     -0.805385    26A     -0.796137    27A     -0.720711
      28A     -0.697795    29A     -0.670762    30A     -0.658282
      31A     -0.649873    32A     -0.621942    33A     -0.608620
      34A     -0.602368    35A     -0.589795    36A     -0.576483
      37A     -0.567854    38A     -0.548457    39A     -0.533971
      40A     -0.528883    41A     -0.503651    42A     -0.497405
      43A     -0.489311    44A     -0.423160    45A     -0.416377
      46A     -0.388103    47A     -0.367295    48A     -0.317535
      49A     -0.279482

  @DF-RHF Final Energy:  -570.48973774144849

   => Energetics <=

    Nuclear Repulsion Energy =            818.5844355368523111
    One-Electron Energy =               -2397.3837732361967028
    Two-Electron Energy =                1008.3095999578960118
    Total Energy =                       -570.4897377414484936
  Basis Set: (AUG-CC-PVTZ AUX)
    Blend: AUG-CC-PVTZ-RI
    Molecular point group: c1

    Geometry (in Angstrom), charge = 0, multiplicity = 1:

       Center              X                  Y                   Z               Mass
    ------------   -----------------  -----------------  -----------------  -----------------
         N            1.019485889723     1.791558618211     0.324985609788    14.003074004430
         N           -1.465794110277     0.864992618211    -0.613883390212    14.003074004430
         C            0.440863889723    -0.542854381789    -0.072296390212    12.000000000000
         C            1.415770889723     0.480092618211     0.096882609788    12.000000000000
         C           -1.011738110277    -0.268777381789    -0.027493390212    12.000000000000
         C            0.862207889723    -1.864131381789    -0.277755390212    12.000000000000
         C            2.772852889723     0.108336618211     0.113156609788    12.000000000000
         C            2.211089889723    -2.213887381789    -0.275280390212    12.000000000000
         C            3.164061889723    -1.216575381789    -0.073645390212    12.000000000000
         C           -1.887617110277    -1.170845381789     0.600282609788    12.000000000000
         C           -3.257350110277    -0.924347381789     0.580655609788    12.000000000000
         C            1.995060889723     2.862430618211     0.253771609788    12.000000000000
         C           -2.789673110277     1.096998618211    -0.611408390212    12.000000000000
         C           -3.723968110277     0.231453618211    -0.045156390212    12.000000000000
         H            0.109673889723    -2.628552381789    -0.462545390212     1.007825032230
         H            3.536384889723     0.866660618211     0.254801609788     1.007825032230
         H            0.132991889723     1.996618618211    -0.128876390212     1.007825032230
         H            2.511708889723    -3.244365381789    -0.445062390212     1.007825032230
         H            4.223527889723    -1.464028381789    -0.065330390212     1.007825032230
         H           -1.488362110277    -2.042768381789     1.109908609788     1.007825032230
         H           -3.947672110277    -1.613919381789     1.060790609788     1.007825032230
         H            2.570376889723     2.870588618211    -0.684359390212     1.007825032230
         H            2.700342889723     2.795602618211     1.087524609788     1.007825032230
         H            1.461972889723     3.810990618211     0.344580609788     1.007825032230
         H           -3.107053110277     2.020770618211    -1.092662390212     1.007825032230
         H           -4.783622110277     0.467785618211    -0.080898390212     1.007825032230

  Basis Set: AUG-CC-PVTZ
    Blend: AUG-CC-PVTZ
  Basis Set: (AUG-CC-PVTZ AUX)
    Blend: AUG-CC-PVTZ-JKFIT
	 Reference Energy          =    -570.4897377414484936 [Eh]
	 Singles Energy            =      -0.0000000000000000 [Eh]
	 Same-Spin Energy          =      -0.6394810496614118 [Eh]
	 Opposite-Spin Energy      =      -1.9764445337010341 [Eh]
	 Correlation Energy        =      -2.6159255833624462 [Eh]
	 Total Energy              =    -573.1056633248109620 [Eh]

	 ================> DF-SCS-MP2 Energies <==================
	-----------------------------------------------------------
	 SCS Same-Spin Scale       =       0.3333333333333333 [-]
	 SCS Opposite-Spin Scale   =       1.2000000000000000 [-]
	 SCS Same-Spin Energy      =      -0.2131603498871373 [Eh]
	 SCS Opposite-Spin Energy  =      -2.3717334404412407 [Eh]
	 SCS Correlation Energy    =      -2.5848937903283780 [Eh]
	 SCS Total Energy          =    -573.0746315317768449 [Eh]
	-----------------------------------------------------------

  Dipole Moment: [D]
     X:    -1.7623      Y:     0.1623      Z:     0.3619     Total:     1.8064

*** Psi4 exiting successfully. Buy a developer a beer!
