                               Psi4 1.3.2 release

  ==> Input File <==

--------------------------------------------------------------------------
#psi4
#
memory 32 gb

molecule  {
0 1
  N        1.0068055     1.7644213     0.2974346
  N       -1.4856460     0.8456190    -0.6184330
  C        0.4210120    -0.5622280    -0.0768460
  C        1.3959190     0.4607190     0.0923330
  C       -1.0315900    -0.2881510    -0.0320430
  C        0.8423560    -1.8835050    -0.2823050
  C        2.7530010     0.0889630     0.1086070
  C        2.1912380    -2.2332610    -0.2798300
  C        3.1442100    -1.2359490    -0.0781950
  C       -1.9074690    -1.1902190     0.5957330
  C       -3.2772020    -0.9437210     0.5761060
  C        1.9752090     2.8430570     0.2492220
  C       -2.8095250     1.0776250    -0.6159580
  C       -3.7438200     0.2120800    -0.0497060
  H        0.0898220    -2.6479260    -0.4670950
  H        3.5165330     0.8472870     0.2502520
  H        0.1131400     1.9772450    -0.1334260
  H        2.4918570    -3.2637390    -0.4496120
  H        4.2036760    -1.4834020    -0.0698800
  H       -1.5082140    -2.0621420     1.1053590
  H       -3.9675240    -1.6332930     1.0562410
  H        2.5505250     2.8512150    -0.6889090
  H        2.6804910     2.7762290     1.0829750
  H        1.4421210     3.7916170     0.3400310
  H       -3.1269050     2.0013970    -1.0972120
  H       -4.8034740     0.4484120    -0.0854480
units angstrom
no_reorient  #important for SAPT in psi4, default
symmetry c1  #important for SAPT in psi4, default
}

set PROPERTIES_ORIGIN ["COM"]
properties('MP2/aug-cc-pvtz', properties = ['dipole'])
--------------------------------------------------------------------------

    Molecular point group: c1
  Charge       = 0
  Multiplicity = 1
  Basis Set: AUG-CC-PVTZ
    Blend: AUG-CC-PVTZ
  Basis Set: (AUG-CC-PVTZ AUX)
    Blend: AUG-CC-PVTZ-JKFIT

    Orbital Energies [Eh]
    ---------------------

    Doubly Occupied:

       1A    -15.568397     2A    -15.550550     3A    -11.289700
       4A    -11.281266     5A    -11.278734     6A    -11.263097
       7A    -11.249961     8A    -11.242247     9A    -11.241280
      10A    -11.237017    11A    -11.235493    12A    -11.231955
      13A    -11.218744    14A    -11.216989    15A     -1.263527
      16A     -1.232153    17A     -1.131866    18A     -1.088740
      19A     -1.060255    20A     -0.998522    21A     -0.992818
      22A     -0.917147    23A     -0.870869    24A     -0.860074
      25A     -0.805526    26A     -0.796033    27A     -0.721083
      28A     -0.699144    29A     -0.670717    30A     -0.658539
      31A     -0.650189    32A     -0.622448    33A     -0.608829
      34A     -0.602231    35A     -0.589516    36A     -0.576626
      37A     -0.568866    38A     -0.548787    39A     -0.534124
      40A     -0.529911    41A     -0.503209    42A     -0.498375
      43A     -0.488840    44A     -0.423071    45A     -0.416789
      46A     -0.388036    47A     -0.367133    48A     -0.317001
      49A     -0.277199

  @DF-RHF Final Energy:  -570.49006994108368

   => Energetics <=

    Nuclear Repulsion Energy =            818.9016764409730058
    One-Electron Energy =               -2398.0162432654296936
    Two-Electron Energy =                1008.6244968833730127
    Total Energy =                       -570.4900699410836751
  Basis Set: (AUG-CC-PVTZ AUX)
    Blend: AUG-CC-PVTZ-RI
    Molecular point group: c1

    Geometry (in Angstrom), charge = 0, multiplicity = 1:

       Center              X                  Y                   Z               Mass
    ------------   -----------------  -----------------  -----------------  -----------------
         N            1.026111908904     1.784385443127     0.303733749287    14.003074004430
         N           -1.466339591096     0.865583143127    -0.612133850713    14.003074004430
         C            0.440318408904    -0.542263856873    -0.070546850713    12.000000000000
         C            1.415225408904     0.480683143127     0.098632149287    12.000000000000
         C           -1.012283591096    -0.268186856873    -0.025743850713    12.000000000000
         C            0.861662408904    -1.863540856873    -0.276005850713    12.000000000000
         C            2.772307408904     0.108927143127     0.114906149287    12.000000000000
         C            2.210544408904    -2.213296856873    -0.273530850713    12.000000000000
         C            3.163516408904    -1.215984856873    -0.071895850713    12.000000000000
         C           -1.888162591096    -1.170254856873     0.602032149287    12.000000000000
         C           -3.257895591096    -0.923756856873     0.582405149287    12.000000000000
         C            1.994515408904     2.863021143127     0.255521149287    12.000000000000
         C           -2.790218591096     1.097589143127    -0.609658850713    12.000000000000
         C           -3.724513591096     0.232044143127    -0.043406850713    12.000000000000
         H            0.109128408904    -2.627961856873    -0.460795850713     1.007825032230
         H            3.535839408904     0.867251143127     0.256551149287     1.007825032230
         H            0.132446408904     1.997209143127    -0.127126850713     1.007825032230
         H            2.511163408904    -3.243774856873    -0.443312850713     1.007825032230
         H            4.222982408904    -1.463437856873    -0.063580850713     1.007825032230
         H           -1.488907591096    -2.042177856873     1.111658149287     1.007825032230
         H           -3.948217591096    -1.613328856873     1.062540149287     1.007825032230
         H            2.569831408904     2.871179143127    -0.682609850713     1.007825032230
         H            2.699797408904     2.796193143127     1.089274149287     1.007825032230
         H            1.461427408904     3.811581143127     0.346330149287     1.007825032230
         H           -3.107598591096     2.021361143127    -1.090912850713     1.007825032230
         H           -4.784167591096     0.468376143127    -0.079148850713     1.007825032230

  Basis Set: AUG-CC-PVTZ
    Blend: AUG-CC-PVTZ
  Basis Set: (AUG-CC-PVTZ AUX)
    Blend: AUG-CC-PVTZ-JKFIT
	 Reference Energy          =    -570.4900699410836751 [Eh]
	 Singles Energy            =      -0.0000000000000000 [Eh]
	 Same-Spin Energy          =      -0.6395074402057478 [Eh]
	 Opposite-Spin Energy      =      -1.9762765537239551 [Eh]
	 Correlation Energy        =      -2.6157839939297030 [Eh]
	 Total Energy              =    -573.1058539350133287 [Eh]

	 ================> DF-SCS-MP2 Energies <==================
	-----------------------------------------------------------
	 SCS Same-Spin Scale       =       0.3333333333333333 [-]
	 SCS Opposite-Spin Scale   =       1.2000000000000000 [-]
	 SCS Same-Spin Energy      =      -0.2131691467352493 [Eh]
	 SCS Opposite-Spin Energy  =      -2.3715318644687460 [Eh]
	 SCS Correlation Energy    =      -2.5847010112039954 [Eh]
	 SCS Total Energy          =    -573.0747709522876221 [Eh]
	-----------------------------------------------------------

  Dipole Moment: [D]
     X:    -1.7825      Y:     0.2800      Z:     0.4161     Total:     1.8517

*** Psi4 exiting successfully. Buy a developer a beer!
