                               Psi4 1.3.2 release

  ==> Input File <==

--------------------------------------------------------------------------
#psi4
#
memory 32 gb

molecule  {
0 1
  N        0.9077449     1.7416402     0.3158118
  N       -1.4856460     0.8456190    -0.6184330
  C        0.4210120    -0.5622280    -0.0768460
  C        1.3959190     0.4607190     0.0923330
  C       -1.0315900    -0.2881510    -0.0320430
  C        0.8423560    -1.8835050    -0.2823050
  C        2.7530010     0.0889630     0.1086070
  C        2.1912380    -2.2332610    -0.2798300
  C        3.1442100    -1.2359490    -0.0781950
  C       -1.9074690    -1.1902190     0.5957330
  C       -3.2772020    -0.9437210     0.5761060
  C        1.9752090     2.8430570     0.2492220
  C       -2.8095250     1.0776250    -0.6159580
  C       -3.7438200     0.2120800    -0.0497060
  H        0.0898220    -2.6479260    -0.4670950
  H        3.5165330     0.8472870     0.2502520
  H        0.1131400     1.9772450    -0.1334260
  H        2.4918570    -3.2637390    -0.4496120
  H        4.2036760    -1.4834020    -0.0698800
  H       -1.5082140    -2.0621420     1.1053590
  H       -3.9675240    -1.6332930     1.0562410
  H        2.5505250     2.8512150    -0.6889090
  H        2.6804910     2.7762290     1.0829750
  H        1.4421210     3.7916170     0.3400310
  H       -3.1269050     2.0013970    -1.0972120
  H       -4.8034740     0.4484120    -0.0854480
units angstrom
no_reorient  #important for SAPT in psi4, default
symmetry c1  #important for SAPT in psi4, default
}

set PROPERTIES_ORIGIN ["COM"]
properties('MP2/aug-cc-pvtz', properties = ['dipole'])
--------------------------------------------------------------------------

    Molecular point group: c1
  Charge       = 0
  Multiplicity = 1
  Basis Set: AUG-CC-PVTZ
    Blend: AUG-CC-PVTZ
  Basis Set: (AUG-CC-PVTZ AUX)
    Blend: AUG-CC-PVTZ-JKFIT

    Orbital Energies [Eh]
    ---------------------

    Doubly Occupied:

       1A    -15.566695     2A    -15.548745     3A    -11.288444
       4A    -11.279937     5A    -11.278646     6A    -11.262026
       7A    -11.254544     8A    -11.241524     9A    -11.240717
      10A    -11.236487    11A    -11.236251    12A    -11.231144
      13A    -11.222174    14A    -11.218627    15A     -1.262395
      16A     -1.223879    17A     -1.130371    18A     -1.087613
      19A     -1.059901    20A     -0.997411    21A     -0.989305
      22A     -0.920209    23A     -0.870724    24A     -0.859539
      25A     -0.804084    26A     -0.802653    27A     -0.721766
      28A     -0.702552    29A     -0.668982    30A     -0.659860
      31A     -0.645242    32A     -0.622145    33A     -0.604567
      34A     -0.598650    35A     -0.588700    36A     -0.574797
      37A     -0.559804    38A     -0.545131    39A     -0.534797
      40A     -0.531625    41A     -0.504231    42A     -0.498994
      43A     -0.485739    44A     -0.426782    45A     -0.417796
      46A     -0.386613    47A     -0.366333    48A     -0.317506
      49A     -0.281304

  @DF-RHF Final Energy:  -570.47882094077863

   => Energetics <=

    Nuclear Repulsion Energy =            818.8556106814082796
    One-Electron Energy =               -2397.9529405475968815
    Two-Electron Energy =                1008.6185089254099694
    Total Energy =                       -570.4788209407786326
  Basis Set: (AUG-CC-PVTZ AUX)
    Blend: AUG-CC-PVTZ-RI
    Molecular point group: c1

    Geometry (in Angstrom), charge = 0, multiplicity = 1:

       Center              X                  Y                   Z               Mass
    ------------   -----------------  -----------------  -----------------  -----------------
         N            0.934586086460     1.763337126100     0.320713137098    14.003074004430
         N           -1.458804813540     0.867315926100    -0.613531662902    14.003074004430
         C            0.447853186460    -0.540531073900    -0.071944662902    12.000000000000
         C            1.422760186460     0.482415926100     0.097234337098    12.000000000000
         C           -1.004748813540    -0.266454073900    -0.027141662902    12.000000000000
         C            0.869197186460    -1.861808073900    -0.277403662902    12.000000000000
         C            2.779842186460     0.110659926100     0.113508337098    12.000000000000
         C            2.218079186460    -2.211564073900    -0.274928662902    12.000000000000
         C            3.171051186460    -1.214252073900    -0.073293662902    12.000000000000
         C           -1.880627813540    -1.168522073900     0.600634337098    12.000000000000
         C           -3.250360813540    -0.922024073900     0.581007337098    12.000000000000
         C            2.002050186460     2.864753926100     0.254123337098    12.000000000000
         C           -2.782683813540     1.099321926100    -0.611056662902    12.000000000000
         C           -3.716978813540     0.233776926100    -0.044804662902    12.000000000000
         H            0.116663186460    -2.626229073900    -0.462193662902     1.007825032230
         H            3.543374186460     0.868983926100     0.255153337098     1.007825032230
         H            0.139981186460     1.998941926100    -0.128524662902     1.007825032230
         H            2.518698186460    -3.242042073900    -0.444710662902     1.007825032230
         H            4.230517186460    -1.461705073900    -0.064978662902     1.007825032230
         H           -1.481372813540    -2.040445073900     1.110260337098     1.007825032230
         H           -3.940682813540    -1.611596073900     1.061142337098     1.007825032230
         H            2.577366186460     2.872911926100    -0.684007662902     1.007825032230
         H            2.707332186460     2.797925926100     1.087876337098     1.007825032230
         H            1.468962186460     3.813313926100     0.344932337098     1.007825032230
         H           -3.100063813540     2.023093926100    -1.092310662902     1.007825032230
         H           -4.776632813540     0.470108926100    -0.080546662902     1.007825032230

  Basis Set: AUG-CC-PVTZ
    Blend: AUG-CC-PVTZ
  Basis Set: (AUG-CC-PVTZ AUX)
    Blend: AUG-CC-PVTZ-JKFIT
	 Reference Energy          =    -570.4788209407786326 [Eh]
	 Singles Energy            =      -0.0000000000000000 [Eh]
	 Same-Spin Energy          =      -0.6390245887925033 [Eh]
	 Opposite-Spin Energy      =      -1.9767394322488794 [Eh]
	 Correlation Energy        =      -2.6157640210413828 [Eh]
	 Total Energy              =    -573.0945849618200327 [Eh]

	 ================> DF-SCS-MP2 Energies <==================
	-----------------------------------------------------------
	 SCS Same-Spin Scale       =       0.3333333333333333 [-]
	 SCS Opposite-Spin Scale   =       1.2000000000000000 [-]
	 SCS Same-Spin Energy      =      -0.2130081962641678 [Eh]
	 SCS Opposite-Spin Energy  =      -2.3720873186986551 [Eh]
	 SCS Correlation Energy    =      -2.5850955149628230 [Eh]
	 SCS Total Energy          =    -573.0639164557414915 [Eh]
	-----------------------------------------------------------

  Dipole Moment: [D]
     X:    -1.5307      Y:     0.2202      Z:     0.3280     Total:     1.5809

*** Psi4 exiting successfully. Buy a developer a beer!
