                               Psi4 1.3.2 release

  ==> Input File <==

--------------------------------------------------------------------------
#psi4
#
memory 32 gb

molecule  {
0 1
  N        0.9996340     1.7721850     0.3204360
  N       -1.4856460     0.8456190    -0.6184330
  C        0.4210120    -0.5622280    -0.0768460
  C        1.3959190     0.4607190     0.0923330
  C       -1.2280321    -0.2510863    -0.0259841
  C        0.8423560    -1.8835050    -0.2823050
  C        2.7530010     0.0889630     0.1086070
  C        2.1912380    -2.2332610    -0.2798300
  C        3.1442100    -1.2359490    -0.0781950
  C       -1.9074690    -1.1902190     0.5957330
  C       -3.2772020    -0.9437210     0.5761060
  C        1.9752090     2.8430570     0.2492220
  C       -2.8095250     1.0776250    -0.6159580
  C       -3.7438200     0.2120800    -0.0497060
  H        0.0898220    -2.6479260    -0.4670950
  H        3.5165330     0.8472870     0.2502520
  H        0.1131400     1.9772450    -0.1334260
  H        2.4918570    -3.2637390    -0.4496120
  H        4.2036760    -1.4834020    -0.0698800
  H       -1.5082140    -2.0621420     1.1053590
  H       -3.9675240    -1.6332930     1.0562410
  H        2.5505250     2.8512150    -0.6889090
  H        2.6804910     2.7762290     1.0829750
  H        1.4421210     3.7916170     0.3400310
  H       -3.1269050     2.0013970    -1.0972120
  H       -4.8034740     0.4484120    -0.0854480
units angstrom
no_reorient  #important for SAPT in psi4, default
symmetry c1  #important for SAPT in psi4, default
}

set PROPERTIES_ORIGIN ["COM"]
properties('MP2/aug-cc-pvtz', properties = ['dipole'])
--------------------------------------------------------------------------

    Molecular point group: c1
  Charge       = 0
  Multiplicity = 1
  Basis Set: AUG-CC-PVTZ
    Blend: AUG-CC-PVTZ
  Basis Set: (AUG-CC-PVTZ AUX)
    Blend: AUG-CC-PVTZ-JKFIT

    Orbital Energies [Eh]
    ---------------------

    Doubly Occupied:

       1A    -15.572813     2A    -15.545135     3A    -11.289230
       4A    -11.285967     5A    -11.270960     6A    -11.269391
       7A    -11.247589     8A    -11.245102     9A    -11.238174
      10A    -11.231880    11A    -11.227482    12A    -11.226561
      13A    -11.213565    14A    -11.211993    15A     -1.300948
      16A     -1.224810    17A     -1.121868    18A     -1.111263
      19A     -1.055353    20A     -0.992911    21A     -0.988470
      22A     -0.909000    23A     -0.881175    24A     -0.858695
      25A     -0.802897    26A     -0.789185    27A     -0.724534
      28A     -0.694306    29A     -0.678047    30A     -0.658100
      31A     -0.648822    32A     -0.619875    33A     -0.603283
      34A     -0.595800    35A     -0.589845    36A     -0.577884
      37A     -0.571260    38A     -0.560388    39A     -0.531857
      40A     -0.518081    41A     -0.496815    42A     -0.489445
      43A     -0.484655    44A     -0.415496    45A     -0.412375
      46A     -0.398876    47A     -0.369457    48A     -0.319684
      49A     -0.275588

  @DF-RHF Final Energy:  -570.45136912332873

   => Energetics <=

    Nuclear Repulsion Energy =            818.6885193601544870
    One-Electron Energy =               -2397.5859989050381955
    Two-Electron Energy =                1008.4461104215549767
    Total Energy =                       -570.4513691233287318
  Basis Set: (AUG-CC-PVTZ AUX)
    Blend: AUG-CC-PVTZ-RI
    Molecular point group: c1

    Geometry (in Angstrom), charge = 0, multiplicity = 1:

       Center              X                  Y                   Z               Mass
    ------------   -----------------  -----------------  -----------------  -----------------
         N            1.032290368704     1.789142668819     0.324590678876    14.003074004430
         N           -1.452989631296     0.862576668819    -0.614278321124    14.003074004430
         C            0.453668368704    -0.545270331181    -0.072691321124    12.000000000000
         C            1.428575368704     0.477676668819     0.096487678876    12.000000000000
         C           -1.195375731296    -0.234128631181    -0.021829421124    12.000000000000
         C            0.875012368704    -1.866547331181    -0.278150321124    12.000000000000
         C            2.785657368704     0.105920668819     0.112761678876    12.000000000000
         C            2.223894368704    -2.216303331181    -0.275675321124    12.000000000000
         C            3.176866368704    -1.218991331181    -0.074040321124    12.000000000000
         C           -1.874812631296    -1.173261331181     0.599887678876    12.000000000000
         C           -3.244545631296    -0.926763331181     0.580260678876    12.000000000000
         C            2.007865368704     2.860014668819     0.253376678876    12.000000000000
         C           -2.776868631296     1.094582668819    -0.611803321124    12.000000000000
         C           -3.711163631296     0.229037668819    -0.045551321124    12.000000000000
         H            0.122478368704    -2.630968331181    -0.462940321124     1.007825032230
         H            3.549189368704     0.864244668819     0.254406678876     1.007825032230
         H            0.145796368704     1.994202668819    -0.129271321124     1.007825032230
         H            2.524513368704    -3.246781331181    -0.445457321124     1.007825032230
         H            4.236332368704    -1.466444331181    -0.065725321124     1.007825032230
         H           -1.475557631296    -2.045184331181     1.109513678876     1.007825032230
         H           -3.934867631296    -1.616335331181     1.060395678876     1.007825032230
         H            2.583181368704     2.868172668819    -0.684754321124     1.007825032230
         H            2.713147368704     2.793186668819     1.087129678876     1.007825032230
         H            1.474777368704     3.808574668819     0.344185678876     1.007825032230
         H           -3.094248631296     2.018354668819    -1.093057321124     1.007825032230
         H           -4.770817631296     0.465369668819    -0.081293321124     1.007825032230

  Basis Set: AUG-CC-PVTZ
    Blend: AUG-CC-PVTZ
  Basis Set: (AUG-CC-PVTZ AUX)
    Blend: AUG-CC-PVTZ-JKFIT
	 Reference Energy          =    -570.4513691233287318 [Eh]
	 Singles Energy            =      -0.0000000000000000 [Eh]
	 Same-Spin Energy          =      -0.6384954089029513 [Eh]
	 Opposite-Spin Energy      =      -1.9753525722143745 [Eh]
	 Correlation Energy        =      -2.6138479811173259 [Eh]
	 Total Energy              =    -573.0652171044461056 [Eh]

	 ================> DF-SCS-MP2 Energies <==================
	-----------------------------------------------------------
	 SCS Same-Spin Scale       =       0.3333333333333333 [-]
	 SCS Opposite-Spin Scale   =       1.2000000000000000 [-]
	 SCS Same-Spin Energy      =      -0.2128318029676504 [Eh]
	 SCS Opposite-Spin Energy  =      -2.3704230866572495 [Eh]
	 SCS Correlation Energy    =      -2.5832548896249001 [Eh]
	 SCS Total Energy          =    -573.0346240129536000 [Eh]
	-----------------------------------------------------------

  Dipole Moment: [D]
     X:    -2.7014      Y:     0.2662      Z:     0.3732     Total:     2.7400

*** Psi4 exiting successfully. Buy a developer a beer!
