                               Psi4 1.3.2 release

  ==> Input File <==

--------------------------------------------------------------------------
#psi4
#
memory 32 gb

molecule  {
0 1
  N        0.9996340     1.7721850     0.3204360
  N       -1.4856460     0.8456190    -0.6184330
  C        0.4210120    -0.5622280    -0.0768460
  C        1.4989579     0.3545653     0.0748394
  C       -1.0315900    -0.2881510    -0.0320430
  C        0.8423560    -1.8835050    -0.2823050
  C        2.7530010     0.0889630     0.1086070
  C        2.1912380    -2.2332610    -0.2798300
  C        3.1442100    -1.2359490    -0.0781950
  C       -1.9074690    -1.1902190     0.5957330
  C       -3.2772020    -0.9437210     0.5761060
  C        1.9752090     2.8430570     0.2492220
  C       -2.8095250     1.0776250    -0.6159580
  C       -3.7438200     0.2120800    -0.0497060
  H        0.0898220    -2.6479260    -0.4670950
  H        3.5165330     0.8472870     0.2502520
  H        0.1131400     1.9772450    -0.1334260
  H        2.4918570    -3.2637390    -0.4496120
  H        4.2036760    -1.4834020    -0.0698800
  H       -1.5082140    -2.0621420     1.1053590
  H       -3.9675240    -1.6332930     1.0562410
  H        2.5505250     2.8512150    -0.6889090
  H        2.6804910     2.7762290     1.0829750
  H        1.4421210     3.7916170     0.3400310
  H       -3.1269050     2.0013970    -1.0972120
  H       -4.8034740     0.4484120    -0.0854480
units angstrom
no_reorient  #important for SAPT in psi4, default
symmetry c1  #important for SAPT in psi4, default
}

set PROPERTIES_ORIGIN ["COM"]
properties('MP2/aug-cc-pvtz', properties = ['dipole'])
--------------------------------------------------------------------------

    Molecular point group: c1
  Charge       = 0
  Multiplicity = 1
  Basis Set: AUG-CC-PVTZ
    Blend: AUG-CC-PVTZ
  Basis Set: (AUG-CC-PVTZ AUX)
    Blend: AUG-CC-PVTZ-JKFIT

    Orbital Energies [Eh]
    ---------------------

    Doubly Occupied:

       1A    -15.570098     2A    -15.534665     3A    -11.294700
       4A    -11.282124     5A    -11.267312     6A    -11.264858
       7A    -11.245047     8A    -11.244713     9A    -11.241473
      10A    -11.240078    11A    -11.239580    12A    -11.236211
      13A    -11.225491    14A    -11.211652    15A     -1.262667
      16A     -1.200287    17A     -1.136214    18A     -1.090588
      19A     -1.067398    20A     -1.015997    21A     -0.993117
      22A     -0.896520    23A     -0.877301    24A     -0.860303
      25A     -0.813374    26A     -0.795148    27A     -0.724614
      28A     -0.692068    29A     -0.673346    30A     -0.656918
      31A     -0.642742    32A     -0.620702    33A     -0.613400
      34A     -0.595638    35A     -0.587748    36A     -0.578058
      37A     -0.562996    38A     -0.545840    39A     -0.535482
      40A     -0.522628    41A     -0.510903    42A     -0.503927
      43A     -0.474400    44A     -0.422851    45A     -0.399431
      46A     -0.388823    47A     -0.370722    48A     -0.324921
      49A     -0.291884

  @DF-RHF Final Energy:  -570.46203737315432

   => Energetics <=

    Nuclear Repulsion Energy =            818.4937858491937277
    One-Electron Energy =               -2397.2177320638984384
    Two-Electron Energy =                1008.2619088415503938
    Total Energy =                       -570.4620373731543168
  Basis Set: (AUG-CC-PVTZ AUX)
    Blend: AUG-CC-PVTZ-RI
    Molecular point group: c1

    Geometry (in Angstrom), charge = 0, multiplicity = 1:

       Center              X                  Y                   Z               Mass
    ------------   -----------------  -----------------  -----------------  -----------------
         N            1.012769613379     1.798477923291     0.326125876735    14.003074004430
         N           -1.472510386621     0.871911923291    -0.612743123265    14.003074004430
         C            0.434147613379    -0.535935076709    -0.071156123265    12.000000000000
         C            1.512093513379     0.380858223291     0.080529276735    12.000000000000
         C           -1.018454386621    -0.261858076709    -0.026353123265    12.000000000000
         C            0.855491613379    -1.857212076709    -0.276615123265    12.000000000000
         C            2.766136613379     0.115255923291     0.114296876735    12.000000000000
         C            2.204373613379    -2.206968076709    -0.274140123265    12.000000000000
         C            3.157345613379    -1.209656076709    -0.072505123265    12.000000000000
         C           -1.894333386621    -1.163926076709     0.601422876735    12.000000000000
         C           -3.264066386621    -0.917428076709     0.581795876735    12.000000000000
         C            1.988344613379     2.869349923291     0.254911876735    12.000000000000
         C           -2.796389386621     1.103917923291    -0.610268123265    12.000000000000
         C           -3.730684386621     0.238372923291    -0.044016123265    12.000000000000
         H            0.102957613379    -2.621633076709    -0.461405123265     1.007825032230
         H            3.529668613379     0.873579923291     0.255941876735     1.007825032230
         H            0.126275613379     2.003537923291    -0.127736123265     1.007825032230
         H            2.504992613379    -3.237446076709    -0.443922123265     1.007825032230
         H            4.216811613379    -1.457109076709    -0.064190123265     1.007825032230
         H           -1.495078386621    -2.035849076709     1.111048876735     1.007825032230
         H           -3.954388386621    -1.607000076709     1.061930876735     1.007825032230
         H            2.563660613379     2.877507923291    -0.683219123265     1.007825032230
         H            2.693626613379     2.802521923291     1.088664876735     1.007825032230
         H            1.455256613379     3.817909923291     0.345720876735     1.007825032230
         H           -3.113769386621     2.027689923291    -1.091522123265     1.007825032230
         H           -4.790338386621     0.474704923291    -0.079758123265     1.007825032230

  Basis Set: AUG-CC-PVTZ
    Blend: AUG-CC-PVTZ
  Basis Set: (AUG-CC-PVTZ AUX)
    Blend: AUG-CC-PVTZ-JKFIT
	 Reference Energy          =    -570.4620373731543168 [Eh]
	 Singles Energy            =      -0.0000000000000000 [Eh]
	 Same-Spin Energy          =      -0.6389744604673889 [Eh]
	 Opposite-Spin Energy      =      -1.9769936932285439 [Eh]
	 Correlation Energy        =      -2.6159681536959329 [Eh]
	 Total Energy              =    -573.0780055268502338 [Eh]

	 ================> DF-SCS-MP2 Energies <==================
	-----------------------------------------------------------
	 SCS Same-Spin Scale       =       0.3333333333333333 [-]
	 SCS Opposite-Spin Scale   =       1.2000000000000000 [-]
	 SCS Same-Spin Energy      =      -0.2129914868224630 [Eh]
	 SCS Opposite-Spin Energy  =      -2.3723924318742524 [Eh]
	 SCS Correlation Energy    =      -2.5853839186967154 [Eh]
	 SCS Total Energy          =    -573.0474212918510375 [Eh]
	-----------------------------------------------------------

  Dipole Moment: [D]
     X:    -1.7412      Y:    -0.6931      Z:     0.2097     Total:     1.8858

*** Psi4 exiting successfully. Buy a developer a beer!
