                               Psi4 1.4a3.dev225

  ==> Input File <==

--------------------------------------------------------------------------
#psi4
#
memory 32 gb

molecule  {
0 1
  N        0.9996340     1.7721850     0.3204360
  N       -1.4856460     0.8456190    -0.6184330
  C        0.4210120    -0.5622280    -0.0768460
  C        1.3959190     0.4607190     0.0923330
  C       -1.0148326    -0.3299940    -0.0104016
  C        0.8423560    -1.8835050    -0.2823050
  C        2.7530010     0.0889630     0.1086070
  C        2.1912380    -2.2332610    -0.2798300
  C        3.1442100    -1.2359490    -0.0781950
  C       -1.9074690    -1.1902190     0.5957330
  C       -3.2772020    -0.9437210     0.5761060
  C        1.9752090     2.8430570     0.2492220
  C       -2.8095250     1.0776250    -0.6159580
  C       -3.7438200     0.2120800    -0.0497060
  H        0.0898220    -2.6479260    -0.4670950
  H        3.5165330     0.8472870     0.2502520
  H        0.1131400     1.9772450    -0.1334260
  H        2.4918570    -3.2637390    -0.4496120
  H        4.2036760    -1.4834020    -0.0698800
  H       -1.5082140    -2.0621420     1.1053590
  H       -3.9675240    -1.6332930     1.0562410
  H        2.5505250     2.8512150    -0.6889090
  H        2.6804910     2.7762290     1.0829750
  H        1.4421210     3.7916170     0.3400310
  H       -3.1269050     2.0013970    -1.0972120
  H       -4.8034740     0.4484120    -0.0854480
units angstrom
no_reorient  #important for SAPT in psi4, default
symmetry c1  #important for SAPT in psi4, default
}

set PROPERTIES_ORIGIN ["COM"]
properties('MP2/aug-cc-pvtz', properties = ['dipole'])
--------------------------------------------------------------------------

    Molecular point group: c1
  Charge       = 0
  Multiplicity = 1
  Basis Set: AUG-CC-PVTZ
    Blend: AUG-CC-PVTZ
  Basis Set: (AUG-CC-PVTZ AUX)
    Blend: AUG-CC-PVTZ-JKFIT

    Orbital Energies [Eh]
    ---------------------

    Doubly Occupied:

       1A    -15.570231     2A    -15.550614     3A    -11.288993
       4A    -11.281154     5A    -11.280395     6A    -11.264087
       7A    -11.248778     8A    -11.242149     9A    -11.238929
      10A    -11.237630    11A    -11.236733    12A    -11.232563
      13A    -11.220589    14A    -11.218542    15A     -1.253397
      16A     -1.227148    17A     -1.133876    18A     -1.086432
      19A     -1.064474    20A     -0.999280    21A     -0.993584
      22A     -0.916305    23A     -0.871788    24A     -0.859203
      25A     -0.803871    26A     -0.797067    27A     -0.721746
      28A     -0.696412    29A     -0.672264    30A     -0.656987
      31A     -0.647679    32A     -0.623128    33A     -0.609213
      34A     -0.602989    35A     -0.591528    36A     -0.575985
      37A     -0.567835    38A     -0.544667    39A     -0.533044
      40A     -0.529945    41A     -0.502301    42A     -0.496860
      43A     -0.489291    44A     -0.423823    45A     -0.416319
      46A     -0.383217    47A     -0.372007    48A     -0.317237
      49A     -0.279248

  @DF-RHF Final Energy:  -570.48466211885807

   => Energetics <=

    Nuclear Repulsion Energy =            818.4241645945365917
    One-Electron Energy =               -2397.0745819457001744
    Two-Electron Energy =                1008.1657552323054006
    Total Energy =                       -570.4846621188580684
  Basis Set: (AUG-CC-PVTZ AUX)
    Blend: AUG-CC-PVTZ-RI
    Molecular point group: c1

    Geometry (in Angstrom), charge = 0, multiplicity = 1:

       Center              X                  Y                   Z               Mass
    ------------   -----------------  -----------------  -----------------  -----------------
         N            1.018393609728     1.794286026511     0.323574981153    14.003074004430
         N           -1.466886390272     0.867720026511    -0.615294018847    14.003074004430
         C            0.439771609728    -0.540126973489    -0.073707018847    12.000000000000
         C            1.414678609728     0.482820026511     0.095471981153    12.000000000000
         C           -0.996072990272    -0.307892973489    -0.007262618847    12.000000000000
         C            0.861115609728    -1.861403973489    -0.279166018847    12.000000000000
         C            2.771760609728     0.111064026511     0.111745981153    12.000000000000
         C            2.209997609728    -2.211159973489    -0.276691018847    12.000000000000
         C            3.162969609728    -1.213847973489    -0.075056018847    12.000000000000
         C           -1.888709390272    -1.168117973489     0.598871981153    12.000000000000
         C           -3.258442390272    -0.921619973489     0.579244981153    12.000000000000
         C            1.993968609728     2.865158026511     0.252360981153    12.000000000000
         C           -2.790765390272     1.099726026511    -0.612819018847    12.000000000000
         C           -3.725060390272     0.234181026511    -0.046567018847    12.000000000000
         H            0.108581609728    -2.625824973489    -0.463956018847     1.007825032230
         H            3.535292609728     0.869388026511     0.253390981153     1.007825032230
         H            0.131899609728     1.999346026511    -0.130287018847     1.007825032230
         H            2.510616609728    -3.241637973489    -0.446473018847     1.007825032230
         H            4.222435609728    -1.461300973489    -0.066741018847     1.007825032230
         H           -1.489454390272    -2.040040973489     1.108497981153     1.007825032230
         H           -3.948764390272    -1.611191973489     1.059379981153     1.007825032230
         H            2.569284609728     2.873316026511    -0.685770018847     1.007825032230
         H            2.699250609728     2.798330026511     1.086113981153     1.007825032230
         H            1.460880609728     3.813718026511     0.343169981153     1.007825032230
         H           -3.108145390272     2.023498026511    -1.094073018847     1.007825032230
         H           -4.784714390272     0.470513026511    -0.082309018847     1.007825032230

  Basis Set: AUG-CC-PVTZ
    Blend: AUG-CC-PVTZ
  Basis Set: (AUG-CC-PVTZ AUX)
    Blend: AUG-CC-PVTZ-JKFIT
	 Reference Energy          =    -570.4846621188580684 [Eh]
	 Singles Energy            =      -0.0000000000000000 [Eh]
	 Same-Spin Energy          =      -0.6401738678826446 [Eh]
	 Opposite-Spin Energy      =      -1.9779682066957061 [Eh]
	 Correlation Energy        =      -2.6181420745783508 [Eh]
	 Total Energy              =    -573.1028041934364410 [Eh]

	 ================> DF-SCS-MP2 Energies <==================
	-----------------------------------------------------------
	 SCS Same-Spin Scale       =       0.3333333333333333 [-]
	 SCS Opposite-Spin Scale   =       1.2000000000000000 [-]
	 SCS Same-Spin Energy      =      -0.2133912892942149 [Eh]
	 SCS Opposite-Spin Energy  =      -2.3735618480348473 [Eh]
	 SCS Correlation Energy    =      -2.5869531373290622 [Eh]
	 SCS Total Energy          =    -573.0716152561871013 [Eh]
	-----------------------------------------------------------

  Dipole Moment: [D]
     X:    -1.6916      Y:     0.1519      Z:     0.3706     Total:     1.7383

*** Psi4 exiting successfully. Buy a developer a beer!
