                               Psi4 1.4a3.dev225

  ==> Input File <==

--------------------------------------------------------------------------
#psi4
#
memory 32 gb

molecule  {
0 1
  N        0.9996340     1.7721850     0.3204360
  N       -1.4856460     0.8456190    -0.6184330
  C        0.4210120    -0.5622280    -0.0768460
  C        1.3959190     0.4607190     0.0923330
  C       -1.0807005    -0.2788848    -0.0305283
  C        0.8423560    -1.8835050    -0.2823050
  C        2.7530010     0.0889630     0.1086070
  C        2.1912380    -2.2332610    -0.2798300
  C        3.1442100    -1.2359490    -0.0781950
  C       -1.9074690    -1.1902190     0.5957330
  C       -3.2772020    -0.9437210     0.5761060
  C        1.9752090     2.8430570     0.2492220
  C       -2.8095250     1.0776250    -0.6159580
  C       -3.7438200     0.2120800    -0.0497060
  H        0.0898220    -2.6479260    -0.4670950
  H        3.5165330     0.8472870     0.2502520
  H        0.1131400     1.9772450    -0.1334260
  H        2.4918570    -3.2637390    -0.4496120
  H        4.2036760    -1.4834020    -0.0698800
  H       -1.5082140    -2.0621420     1.1053590
  H       -3.9675240    -1.6332930     1.0562410
  H        2.5505250     2.8512150    -0.6889090
  H        2.6804910     2.7762290     1.0829750
  H        1.4421210     3.7916170     0.3400310
  H       -3.1269050     2.0013970    -1.0972120
  H       -4.8034740     0.4484120    -0.0854480
units angstrom
no_reorient  #important for SAPT in psi4, default
symmetry c1  #important for SAPT in psi4, default
}

set PROPERTIES_ORIGIN ["COM"]
properties('MP2/aug-cc-pvtz', properties = ['dipole'])
--------------------------------------------------------------------------

    Molecular point group: c1
  Charge       = 0
  Multiplicity = 1
  Basis Set: AUG-CC-PVTZ
    Blend: AUG-CC-PVTZ
  Basis Set: (AUG-CC-PVTZ AUX)
    Blend: AUG-CC-PVTZ-JKFIT

    Orbital Energies [Eh]
    ---------------------

    Doubly Occupied:

       1A    -15.569468     2A    -15.549026     3A    -11.288051
       4A    -11.283173     5A    -11.276457     6A    -11.265065
       7A    -11.247748     8A    -11.243869     9A    -11.240199
      10A    -11.235153    11A    -11.233731    12A    -11.233445
      13A    -11.218355    14A    -11.216758    15A     -1.271590
      16A     -1.228282    17A     -1.129268    18A     -1.093765
      19A     -1.058067    20A     -0.997296    21A     -0.992642
      22A     -0.913736    23A     -0.868588    24A     -0.864098
      25A     -0.805251    26A     -0.794470    27A     -0.720085
      28A     -0.697357    29A     -0.671248    30A     -0.657778
      31A     -0.650160    32A     -0.622398    33A     -0.607200
      34A     -0.600806    35A     -0.589227    36A     -0.576850
      37A     -0.566087    38A     -0.553036    39A     -0.533885
      40A     -0.526201    41A     -0.501901    42A     -0.495453
      43A     -0.486861    44A     -0.424725    45A     -0.416917
      46A     -0.390501    47A     -0.366925    48A     -0.318904
      49A     -0.279028

  @DF-RHF Final Energy:  -570.48876370898665

   => Energetics <=

    Nuclear Repulsion Energy =            818.5622045663501467
    One-Electron Energy =               -2397.3597673365347873
    Two-Electron Energy =                1008.3087990611979876
    Total Energy =                       -570.4887637089866530
  Basis Set: (AUG-CC-PVTZ AUX)
    Blend: AUG-CC-PVTZ-RI
    Molecular point group: c1

    Geometry (in Angstrom), charge = 0, multiplicity = 1:

       Center              X                  Y                   Z               Mass
    ------------   -----------------  -----------------  -----------------  -----------------
         N            1.022687007839     1.790954629234     0.324886878690    14.003074004430
         N           -1.462592992161     0.864388629234    -0.613982121310    14.003074004430
         C            0.444065007839    -0.543458370766    -0.072395121310    12.000000000000
         C            1.418972007839     0.479488629234     0.096783878690    12.000000000000
         C           -1.057647492161    -0.260115170766    -0.026077421310    12.000000000000
         C            0.865409007839    -1.864735370766    -0.277854121310    12.000000000000
         C            2.776054007839     0.107732629234     0.113057878690    12.000000000000
         C            2.214291007839    -2.214491370766    -0.275379121310    12.000000000000
         C            3.167263007839    -1.217179370766    -0.073744121310    12.000000000000
         C           -1.884415992161    -1.171449370766     0.600183878690    12.000000000000
         C           -3.254148992161    -0.924951370766     0.580556878690    12.000000000000
         C            1.998262007839     2.861826629234     0.253672878690    12.000000000000
         C           -2.786471992161     1.096394629234    -0.611507121310    12.000000000000
         C           -3.720766992161     0.230849629234    -0.045255121310    12.000000000000
         H            0.112875007839    -2.629156370766    -0.462644121310     1.007825032230
         H            3.539586007839     0.866056629234     0.254702878690     1.007825032230
         H            0.136193007839     1.996014629234    -0.128975121310     1.007825032230
         H            2.514910007839    -3.244969370766    -0.445161121310     1.007825032230
         H            4.226729007839    -1.464632370766    -0.065429121310     1.007825032230
         H           -1.485160992161    -2.043372370766     1.109809878690     1.007825032230
         H           -3.944470992161    -1.614523370766     1.060691878690     1.007825032230
         H            2.573578007839     2.869984629234    -0.684458121310     1.007825032230
         H            2.703544007839     2.794998629234     1.087425878690     1.007825032230
         H            1.465174007839     3.810386629234     0.344481878690     1.007825032230
         H           -3.103851992161     2.020166629234    -1.092761121310     1.007825032230
         H           -4.780420992161     0.467181629234    -0.080997121310     1.007825032230

  Basis Set: AUG-CC-PVTZ
    Blend: AUG-CC-PVTZ
  Basis Set: (AUG-CC-PVTZ AUX)
    Blend: AUG-CC-PVTZ-JKFIT
	 Reference Energy          =    -570.4887637089866530 [Eh]
	 Singles Energy            =      -0.0000000000000000 [Eh]
	 Same-Spin Energy          =      -0.6387758241266157 [Eh]
	 Opposite-Spin Energy      =      -1.9753772485855234 [Eh]
	 Correlation Energy        =      -2.6141530727121394 [Eh]
	 Total Energy              =    -573.1029167816988092 [Eh]

	 ================> DF-SCS-MP2 Energies <==================
	-----------------------------------------------------------
	 SCS Same-Spin Scale       =       0.3333333333333333 [-]
	 SCS Opposite-Spin Scale   =       1.2000000000000000 [-]
	 SCS Same-Spin Energy      =      -0.2129252747088719 [Eh]
	 SCS Opposite-Spin Energy  =      -2.3704526983026279 [Eh]
	 SCS Correlation Energy    =      -2.5833779730114999 [Eh]
	 SCS Total Energy          =    -573.0721416819981187 [Eh]
	-----------------------------------------------------------

  Dipole Moment: [D]
     X:    -2.0011      Y:     0.1837      Z:     0.3649     Total:     2.0423

*** Psi4 exiting successfully. Buy a developer a beer!
