                               Psi4 1.3.2 release

  ==> Input File <==

--------------------------------------------------------------------------
#psi4
#
memory 32 gb

molecule  {
0 1
  N        0.9996340     1.7721850     0.3204360
  N       -1.4856460     0.8456190    -0.6184330
  C        0.4210120    -0.5622280    -0.0768460
  C        1.3959190     0.4607190     0.0923330
  C       -1.0986198    -0.1207789    -0.1186085
  C        0.8423560    -1.8835050    -0.2823050
  C        2.7530010     0.0889630     0.1086070
  C        2.1912380    -2.2332610    -0.2798300
  C        3.1442100    -1.2359490    -0.0781950
  C       -1.9074690    -1.1902190     0.5957330
  C       -3.2772020    -0.9437210     0.5761060
  C        1.9752090     2.8430570     0.2492220
  C       -2.8095250     1.0776250    -0.6159580
  C       -3.7438200     0.2120800    -0.0497060
  H        0.0898220    -2.6479260    -0.4670950
  H        3.5165330     0.8472870     0.2502520
  H        0.1131400     1.9772450    -0.1334260
  H        2.4918570    -3.2637390    -0.4496120
  H        4.2036760    -1.4834020    -0.0698800
  H       -1.5082140    -2.0621420     1.1053590
  H       -3.9675240    -1.6332930     1.0562410
  H        2.5505250     2.8512150    -0.6889090
  H        2.6804910     2.7762290     1.0829750
  H        1.4421210     3.7916170     0.3400310
  H       -3.1269050     2.0013970    -1.0972120
  H       -4.8034740     0.4484120    -0.0854480
units angstrom
no_reorient  #important for SAPT in psi4, default
symmetry c1  #important for SAPT in psi4, default
}

set PROPERTIES_ORIGIN ["COM"]
properties('MP2/aug-cc-pvtz', properties = ['dipole'])
--------------------------------------------------------------------------

    Molecular point group: c1
  Charge       = 0
  Multiplicity = 1
  Basis Set: AUG-CC-PVTZ
    Blend: AUG-CC-PVTZ
  Basis Set: (AUG-CC-PVTZ AUX)
    Blend: AUG-CC-PVTZ-JKFIT

    Orbital Energies [Eh]
    ---------------------

    Doubly Occupied:

       1A    -15.557126     2A    -15.550580     3A    -11.288039
       4A    -11.282344     5A    -11.272998     6A    -11.258195
       7A    -11.250244     8A    -11.248702     9A    -11.246296
      10A    -11.235840    11A    -11.232744    12A    -11.232294
      13A    -11.217171    14A    -11.217104    15A     -1.331646
      16A     -1.230591    17A     -1.126875    18A     -1.101756
      19A     -1.043027    20A     -0.996708    21A     -0.990790
      22A     -0.913450    23A     -0.884264    24A     -0.850529
      25A     -0.804721    26A     -0.792673    27A     -0.721570
      28A     -0.703333    29A     -0.670153    30A     -0.664755
      31A     -0.649478    32A     -0.617957    33A     -0.607316
      34A     -0.599010    35A     -0.586195    36A     -0.580541
      37A     -0.578453    38A     -0.565006    39A     -0.536637
      40A     -0.524417    41A     -0.509994    42A     -0.497628
      43A     -0.489146    44A     -0.419613    45A     -0.413200
      46A     -0.394592    47A     -0.350450    48A     -0.318002
      49A     -0.279704

  @DF-RHF Final Energy:  -570.43836947821592

   => Energetics <=

    Nuclear Repulsion Energy =            819.6659952010192001
    One-Electron Energy =               -2399.3410191864750232
    Two-Electron Energy =                1009.2366545072400186
    Total Energy =                       -570.4383694782159182
  Basis Set: (AUG-CC-PVTZ AUX)
    Blend: AUG-CC-PVTZ-RI
    Molecular point group: c1

    Geometry (in Angstrom), charge = 0, multiplicity = 1:

       Center              X                  Y                   Z               Mass
    ------------   -----------------  -----------------  -----------------  -----------------
         N            1.023855022741     1.780648978494     0.330628117811    14.003074004430
         N           -1.461424977259     0.854082978494    -0.608240882189    14.003074004430
         C            0.445233022741    -0.553764021506    -0.066653882189    12.000000000000
         C            1.420140022741     0.469182978494     0.102525117811    12.000000000000
         C           -1.074398777259    -0.112314921506    -0.108416382189    12.000000000000
         C            0.866577022741    -1.875041021506    -0.272112882189    12.000000000000
         C            2.777222022741     0.097426978494     0.118799117811    12.000000000000
         C            2.215459022741    -2.224797021506    -0.269637882189    12.000000000000
         C            3.168431022741    -1.227485021506    -0.068002882189    12.000000000000
         C           -1.883247977259    -1.181755021506     0.605925117811    12.000000000000
         C           -3.252980977259    -0.935257021506     0.586298117811    12.000000000000
         C            1.999430022741     2.851520978494     0.259414117811    12.000000000000
         C           -2.785303977259     1.086088978494    -0.605765882189    12.000000000000
         C           -3.719598977259     0.220543978494    -0.039513882189    12.000000000000
         H            0.114043022741    -2.639462021506    -0.456902882189     1.007825032230
         H            3.540754022741     0.855750978494     0.260444117811     1.007825032230
         H            0.137361022741     1.985708978494    -0.123233882189     1.007825032230
         H            2.516078022741    -3.255275021506    -0.439419882189     1.007825032230
         H            4.227897022741    -1.474938021506    -0.059687882189     1.007825032230
         H           -1.483992977259    -2.053678021506     1.115551117811     1.007825032230
         H           -3.943302977259    -1.624829021506     1.066433117811     1.007825032230
         H            2.574746022741     2.859678978494    -0.678716882189     1.007825032230
         H            2.704712022741     2.784692978494     1.093167117811     1.007825032230
         H            1.466342022741     3.800080978494     0.350223117811     1.007825032230
         H           -3.102683977259     2.009860978494    -1.087019882189     1.007825032230
         H           -4.779252977259     0.456875978494    -0.075255882189     1.007825032230

  Basis Set: AUG-CC-PVTZ
    Blend: AUG-CC-PVTZ
  Basis Set: (AUG-CC-PVTZ AUX)
    Blend: AUG-CC-PVTZ-JKFIT
	 Reference Energy          =    -570.4383694782159182 [Eh]
	 Singles Energy            =      -0.0000000000000000 [Eh]
	 Same-Spin Energy          =      -0.6361327402830039 [Eh]
	 Opposite-Spin Energy      =      -1.9731994277691680 [Eh]
	 Correlation Energy        =      -2.6093321680521719 [Eh]
	 Total Energy              =    -573.0477016462681377 [Eh]

	 ================> DF-SCS-MP2 Energies <==================
	-----------------------------------------------------------
	 SCS Same-Spin Scale       =       0.3333333333333333 [-]
	 SCS Opposite-Spin Scale   =       1.2000000000000000 [-]
	 SCS Same-Spin Energy      =      -0.2120442467610013 [Eh]
	 SCS Opposite-Spin Energy  =      -2.3678393133230013 [Eh]
	 SCS Correlation Energy    =      -2.5798835600840029 [Eh]
	 SCS Total Energy          =    -573.0182530382999175 [Eh]
	-----------------------------------------------------------

  Dipole Moment: [D]
     X:    -1.9843      Y:     0.3366      Z:     0.2500     Total:     2.0281

*** Psi4 exiting successfully. Buy a developer a beer!
