                               Psi4 1.3.2 release

  ==> Input File <==

--------------------------------------------------------------------------
#psi4
#
memory 32 gb

molecule  {
0 1
  N        0.9996340     1.7721850     0.3204360
  N       -1.4856460     0.8456190    -0.6184330
  C        0.4210120    -0.5622280    -0.0768460
  C        1.4138659     0.4437751     0.0895412
  C       -1.0315900    -0.2881510    -0.0320430
  C        0.8423560    -1.8835050    -0.2823050
  C        2.7530010     0.0889630     0.1086070
  C        2.1912380    -2.2332610    -0.2798300
  C        3.1442100    -1.2359490    -0.0781950
  C       -1.9074690    -1.1902190     0.5957330
  C       -3.2772020    -0.9437210     0.5761060
  C        1.9752090     2.8430570     0.2492220
  C       -2.8095250     1.0776250    -0.6159580
  C       -3.7438200     0.2120800    -0.0497060
  H        0.0898220    -2.6479260    -0.4670950
  H        3.5165330     0.8472870     0.2502520
  H        0.1131400     1.9772450    -0.1334260
  H        2.4918570    -3.2637390    -0.4496120
  H        4.2036760    -1.4834020    -0.0698800
  H       -1.5082140    -2.0621420     1.1053590
  H       -3.9675240    -1.6332930     1.0562410
  H        2.5505250     2.8512150    -0.6889090
  H        2.6804910     2.7762290     1.0829750
  H        1.4421210     3.7916170     0.3400310
  H       -3.1269050     2.0013970    -1.0972120
  H       -4.8034740     0.4484120    -0.0854480
units angstrom
no_reorient  #important for SAPT in psi4, default
symmetry c1  #important for SAPT in psi4, default
}

set PROPERTIES_ORIGIN ["COM"]
properties('MP2/aug-cc-pvtz', properties = ['dipole'])
--------------------------------------------------------------------------

    Molecular point group: c1
  Charge       = 0
  Multiplicity = 1
  Basis Set: AUG-CC-PVTZ
    Blend: AUG-CC-PVTZ
  Basis Set: (AUG-CC-PVTZ AUX)
    Blend: AUG-CC-PVTZ-JKFIT

    Orbital Energies [Eh]
    ---------------------

    Doubly Occupied:

       1A    -15.568949     2A    -15.547710     3A    -11.290767
       4A    -11.281543     5A    -11.276928     6A    -11.263563
       7A    -11.246398     8A    -11.242906     9A    -11.242209
      10A    -11.237854    11A    -11.236614    12A    -11.234482
      13A    -11.219725    14A    -11.218753    15A     -1.262861
      16A     -1.222518    17A     -1.133622    18A     -1.089243
      19A     -1.061604    20A     -1.001559    21A     -0.992788
      22A     -0.912276    23A     -0.872145    24A     -0.860383
      25A     -0.806520    26A     -0.795986    27A     -0.721145
      28A     -0.696330    29A     -0.671066    30A     -0.657999
      31A     -0.648688    32A     -0.621043    33A     -0.607953
      34A     -0.602169    35A     -0.590309    36A     -0.577029
      37A     -0.566874    38A     -0.548346    39A     -0.534153
      40A     -0.527297    41A     -0.504182    42A     -0.496493
      43A     -0.491129    44A     -0.422469    45A     -0.414147
      46A     -0.388281    47A     -0.367793    48A     -0.318613
      49A     -0.281949

  @DF-RHF Final Energy:  -570.48914235624238

   => Energetics <=

    Nuclear Repulsion Energy =            818.5361493574481528
    One-Electron Energy =               -2397.2998642140732954
    Two-Electron Energy =                1008.2745725003826465
    Total Energy =                       -570.4891423562423824
  Basis Set: (AUG-CC-PVTZ AUX)
    Blend: AUG-CC-PVTZ-RI
    Molecular point group: c1

    Geometry (in Angstrom), charge = 0, multiplicity = 1:

       Center              X                  Y                   Z               Mass
    ------------   -----------------  -----------------  -----------------  -----------------
         N            1.018316075799     1.792663054640     0.325167584754    14.003074004430
         N           -1.466963924201     0.866097054640    -0.613701415246    14.003074004430
         C            0.439694075799    -0.541749945360    -0.072114415246    12.000000000000
         C            1.432547975799     0.464253154640     0.094272784754    12.000000000000
         C           -1.012907924201    -0.267672945360    -0.027311415246    12.000000000000
         C            0.861038075799    -1.863026945360    -0.277573415246    12.000000000000
         C            2.771683075799     0.109441054640     0.113338584754    12.000000000000
         C            2.209920075799    -2.212782945360    -0.275098415246    12.000000000000
         C            3.162892075799    -1.215470945360    -0.073463415246    12.000000000000
         C           -1.888786924201    -1.169740945360     0.600464584754    12.000000000000
         C           -3.258519924201    -0.923242945360     0.580837584754    12.000000000000
         C            1.993891075799     2.863535054640     0.253953584754    12.000000000000
         C           -2.790842924201     1.098103054640    -0.611226415246    12.000000000000
         C           -3.725137924201     0.232558054640    -0.044974415246    12.000000000000
         H            0.108504075799    -2.627447945360    -0.462363415246     1.007825032230
         H            3.535215075799     0.867765054640     0.254983584754     1.007825032230
         H            0.131822075799     1.997723054640    -0.128694415246     1.007825032230
         H            2.510539075799    -3.243260945360    -0.444880415246     1.007825032230
         H            4.222358075799    -1.462923945360    -0.065148415246     1.007825032230
         H           -1.489531924201    -2.041663945360     1.110090584754     1.007825032230
         H           -3.948841924201    -1.612814945360     1.060972584754     1.007825032230
         H            2.569207075799     2.871693054640    -0.684177415246     1.007825032230
         H            2.699173075799     2.796707054640     1.087706584754     1.007825032230
         H            1.460803075799     3.812095054640     0.344762584754     1.007825032230
         H           -3.108222924201     2.021875054640    -1.092480415246     1.007825032230
         H           -4.784791924201     0.468890054640    -0.080716415246     1.007825032230

  Basis Set: AUG-CC-PVTZ
    Blend: AUG-CC-PVTZ
  Basis Set: (AUG-CC-PVTZ AUX)
    Blend: AUG-CC-PVTZ-JKFIT
	 Reference Energy          =    -570.4891423562423824 [Eh]
	 Singles Energy            =      -0.0000000000000000 [Eh]
	 Same-Spin Energy          =      -0.6393356891149947 [Eh]
	 Opposite-Spin Energy      =      -1.9763419211850002 [Eh]
	 Correlation Energy        =      -2.6156776102999948 [Eh]
	 Total Energy              =    -573.1048199665423226 [Eh]

	 ================> DF-SCS-MP2 Energies <==================
	-----------------------------------------------------------
	 SCS Same-Spin Scale       =       0.3333333333333333 [-]
	 SCS Opposite-Spin Scale   =       1.2000000000000000 [-]
	 SCS Same-Spin Energy      =      -0.2131118963716649 [Eh]
	 SCS Opposite-Spin Energy  =      -2.3716103054220001 [Eh]
	 SCS Correlation Energy    =      -2.5847222017936651 [Eh]
	 SCS Total Energy          =    -573.0738645580360071 [Eh]
	-----------------------------------------------------------

  Dipole Moment: [D]
     X:    -1.7631      Y:     0.0108      Z:     0.3351     Total:     1.7947

*** Psi4 exiting successfully. Buy a developer a beer!
