                               Psi4 1.3.2 release

  ==> Input File <==

--------------------------------------------------------------------------
#psi4
#
memory 32 gb

molecule  {
0 1
  N        0.9996340     1.7721850     0.3204360
  N       -1.4856460     0.8456190    -0.6184330
  C        0.4210120    -0.5622280    -0.0768460
  C        1.4158469     0.4646644     0.1055583
  C       -1.0315900    -0.2881510    -0.0320430
  C        0.8423560    -1.8835050    -0.2823050
  C        2.7530010     0.0889630     0.1086070
  C        2.1912380    -2.2332610    -0.2798300
  C        3.1442100    -1.2359490    -0.0781950
  C       -1.9074690    -1.1902190     0.5957330
  C       -3.2772020    -0.9437210     0.5761060
  C        1.9752090     2.8430570     0.2492220
  C       -2.8095250     1.0776250    -0.6159580
  C       -3.7438200     0.2120800    -0.0497060
  H        0.0898220    -2.6479260    -0.4670950
  H        3.5165330     0.8472870     0.2502520
  H        0.1131400     1.9772450    -0.1334260
  H        2.4918570    -3.2637390    -0.4496120
  H        4.2036760    -1.4834020    -0.0698800
  H       -1.5082140    -2.0621420     1.1053590
  H       -3.9675240    -1.6332930     1.0562410
  H        2.5505250     2.8512150    -0.6889090
  H        2.6804910     2.7762290     1.0829750
  H        1.4421210     3.7916170     0.3400310
  H       -3.1269050     2.0013970    -1.0972120
  H       -4.8034740     0.4484120    -0.0854480
units angstrom
no_reorient  #important for SAPT in psi4, default
symmetry c1  #important for SAPT in psi4, default
}

set PROPERTIES_ORIGIN ["COM"]
properties('MP2/aug-cc-pvtz', properties = ['dipole'])
--------------------------------------------------------------------------

    Molecular point group: c1
  Charge       = 0
  Multiplicity = 1
  Basis Set: AUG-CC-PVTZ
    Blend: AUG-CC-PVTZ
  Basis Set: (AUG-CC-PVTZ AUX)
    Blend: AUG-CC-PVTZ-JKFIT

    Orbital Energies [Eh]
    ---------------------

    Doubly Occupied:

       1A    -15.568756     2A    -15.550358     3A    -11.290211
       4A    -11.281434     5A    -11.278709     6A    -11.263311
       7A    -11.248076     8A    -11.242587     9A    -11.241720
      10A    -11.237364    11A    -11.236286    12A    -11.234898
      13A    -11.218388    14A    -11.217801    15A     -1.263110
      16A     -1.228858    17A     -1.132178    18A     -1.088986
      19A     -1.060723    20A     -1.000880    21A     -0.991218
      22A     -0.915296    23A     -0.871822    24A     -0.860130
      25A     -0.805409    26A     -0.794958    27A     -0.720836
      28A     -0.698846    29A     -0.670471    30A     -0.658729
      31A     -0.649261    32A     -0.622744    33A     -0.608463
      34A     -0.603017    35A     -0.589493    36A     -0.576260
      37A     -0.567258    38A     -0.548584    39A     -0.534152
      40A     -0.528580    41A     -0.503577    42A     -0.498064
      43A     -0.487967    44A     -0.423323    45A     -0.416195
      46A     -0.388261    47A     -0.367344    48A     -0.318203
      49A     -0.279162

  @DF-RHF Final Energy:  -570.48920417408522

   => Energetics <=

    Nuclear Repulsion Energy =            818.4418151266615951
    One-Electron Energy =               -2397.0975229072478214
    Two-Electron Energy =                1008.1665036065010099
    Total Energy =                       -570.4892041740852164
  Basis Set: (AUG-CC-PVTZ AUX)
    Blend: AUG-CC-PVTZ-RI
    Molecular point group: c1

    Geometry (in Angstrom), charge = 0, multiplicity = 1:

       Center              X                  Y                   Z               Mass
    ------------   -----------------  -----------------  -----------------  -----------------
         N            1.018186950358     1.791301449349     0.324123558956    14.003074004430
         N           -1.467093049642     0.864735449349    -0.614745441044    14.003074004430
         C            0.439564950358    -0.543111550651    -0.073158441044    12.000000000000
         C            1.434399850358     0.483780849349     0.109245858956    12.000000000000
         C           -1.013037049642    -0.269034550651    -0.028355441044    12.000000000000
         C            0.860908950358    -1.864388550651    -0.278617441044    12.000000000000
         C            2.771553950358     0.108079449349     0.112294558956    12.000000000000
         C            2.209790950358    -2.214144550651    -0.276142441044    12.000000000000
         C            3.162762950358    -1.216832550651    -0.074507441044    12.000000000000
         C           -1.888916049642    -1.171102550651     0.599420558956    12.000000000000
         C           -3.258649049642    -0.924604550651     0.579793558956    12.000000000000
         C            1.993761950358     2.862173449349     0.252909558956    12.000000000000
         C           -2.790972049642     1.096741449349    -0.612270441044    12.000000000000
         C           -3.725267049642     0.231196449349    -0.046018441044    12.000000000000
         H            0.108374950358    -2.628809550651    -0.463407441044     1.007825032230
         H            3.535085950358     0.866403449349     0.253939558956     1.007825032230
         H            0.131692950358     1.996361449349    -0.129738441044     1.007825032230
         H            2.510409950358    -3.244622550651    -0.445924441044     1.007825032230
         H            4.222228950358    -1.464285550651    -0.066192441044     1.007825032230
         H           -1.489661049642    -2.043025550651     1.109046558956     1.007825032230
         H           -3.948971049642    -1.614176550651     1.059928558956     1.007825032230
         H            2.569077950358     2.870331449349    -0.685221441044     1.007825032230
         H            2.699043950358     2.795345449349     1.086662558956     1.007825032230
         H            1.460673950358     3.810733449349     0.343718558956     1.007825032230
         H           -3.108352049642     2.020513449349    -1.093524441044     1.007825032230
         H           -4.784921049642     0.467528449349    -0.081760441044     1.007825032230

  Basis Set: AUG-CC-PVTZ
    Blend: AUG-CC-PVTZ
  Basis Set: (AUG-CC-PVTZ AUX)
    Blend: AUG-CC-PVTZ-JKFIT
	 Reference Energy          =    -570.4892041740852164 [Eh]
	 Singles Energy            =      -0.0000000000000000 [Eh]
	 Same-Spin Energy          =      -0.6394640135949218 [Eh]
	 Opposite-Spin Energy      =      -1.9764476515533698 [Eh]
	 Correlation Energy        =      -2.6159116651482917 [Eh]
	 Total Energy              =    -573.1051158392334628 [Eh]

	 ================> DF-SCS-MP2 Energies <==================
	-----------------------------------------------------------
	 SCS Same-Spin Scale       =       0.3333333333333333 [-]
	 SCS Opposite-Spin Scale   =       1.2000000000000000 [-]
	 SCS Same-Spin Energy      =      -0.2131546711983072 [Eh]
	 SCS Opposite-Spin Energy  =      -2.3717371818640438 [Eh]
	 SCS Correlation Energy    =      -2.5848918530623513 [Eh]
	 SCS Total Energy          =    -573.0740960271475615 [Eh]
	-----------------------------------------------------------

  Dipole Moment: [D]
     X:    -1.7776      Y:     0.1473      Z:     0.3632     Total:     1.8203

*** Psi4 exiting successfully. Buy a developer a beer!
