                               Psi4 1.3.2 release

  ==> Input File <==

--------------------------------------------------------------------------
#psi4
#
memory 32 gb

molecule  {
0 1
  N        0.9996340     1.7721850     0.3204360
  N       -1.4856460     0.8456190    -0.6184330
  C        0.4210120    -0.5622280    -0.0768460
  C        1.3557071     0.4540278     0.0660948
  C       -1.0315900    -0.2881510    -0.0320430
  C        0.8423560    -1.8835050    -0.2823050
  C        2.7530010     0.0889630     0.1086070
  C        2.1912380    -2.2332610    -0.2798300
  C        3.1442100    -1.2359490    -0.0781950
  C       -1.9074690    -1.1902190     0.5957330
  C       -3.2772020    -0.9437210     0.5761060
  C        1.9752090     2.8430570     0.2492220
  C       -2.8095250     1.0776250    -0.6159580
  C       -3.7438200     0.2120800    -0.0497060
  H        0.0898220    -2.6479260    -0.4670950
  H        3.5165330     0.8472870     0.2502520
  H        0.1131400     1.9772450    -0.1334260
  H        2.4918570    -3.2637390    -0.4496120
  H        4.2036760    -1.4834020    -0.0698800
  H       -1.5082140    -2.0621420     1.1053590
  H       -3.9675240    -1.6332930     1.0562410
  H        2.5505250     2.8512150    -0.6889090
  H        2.6804910     2.7762290     1.0829750
  H        1.4421210     3.7916170     0.3400310
  H       -3.1269050     2.0013970    -1.0972120
  H       -4.8034740     0.4484120    -0.0854480
units angstrom
no_reorient  #important for SAPT in psi4, default
symmetry c1  #important for SAPT in psi4, default
}

set PROPERTIES_ORIGIN ["COM"]
properties('MP2/aug-cc-pvtz', properties = ['dipole'])
--------------------------------------------------------------------------

    Molecular point group: c1
  Charge       = 0
  Multiplicity = 1
  Basis Set: AUG-CC-PVTZ
    Blend: AUG-CC-PVTZ
  Basis Set: (AUG-CC-PVTZ AUX)
    Blend: AUG-CC-PVTZ-JKFIT

    Orbital Energies [Eh]
    ---------------------

    Doubly Occupied:

       1A    -15.568426     2A    -15.550705     3A    -11.289301
       4A    -11.281290     5A    -11.279173     6A    -11.263106
       7A    -11.249932     8A    -11.242186     9A    -11.241165
      10A    -11.237586    11A    -11.235131    12A    -11.229322
      13A    -11.224173    14A    -11.218563    15A     -1.263530
      16A     -1.228747    17A     -1.132996    18A     -1.088742
      19A     -1.060658    20A     -0.996379    21A     -0.994610
      22A     -0.916261    23A     -0.869465    24A     -0.860451
      25A     -0.807298    26A     -0.796172    27A     -0.720404
      28A     -0.695924    29A     -0.671338    30A     -0.657503
      31A     -0.650867    32A     -0.621101    33A     -0.609074
      34A     -0.600682    35A     -0.590242    36A     -0.576719
      37A     -0.568961    38A     -0.548131    39A     -0.533606
      40A     -0.529394    41A     -0.504276    42A     -0.498302
      43A     -0.488021    44A     -0.422859    45A     -0.416595
      46A     -0.387785    47A     -0.367236    48A     -0.316497
      49A     -0.280113

  @DF-RHF Final Energy:  -570.48716029033289

   => Energetics <=

    Nuclear Repulsion Energy =            818.8711135313409386
    One-Electron Energy =               -2397.9545455960305844
    Two-Electron Energy =                1008.5962717743566373
    Total Energy =                       -570.4871602903328949
  Basis Set: (AUG-CC-PVTZ AUX)
    Blend: AUG-CC-PVTZ-RI
    Molecular point group: c1

    Geometry (in Angstrom), charge = 0, multiplicity = 1:

       Center              X                  Y                   Z               Mass
    ------------   -----------------  -----------------  -----------------  -----------------
         N            1.022106979746     1.791994763670     0.326695866808    14.003074004430
         N           -1.463173020254     0.865428763670    -0.612173133192    14.003074004430
         C            0.443484979746    -0.542418236330    -0.070586133192    12.000000000000
         C            1.378180079746     0.473837563670     0.072354666808    12.000000000000
         C           -1.009117020254    -0.268341236330    -0.025783133192    12.000000000000
         C            0.864828979746    -1.863695236330    -0.276045133192    12.000000000000
         C            2.775473979746     0.108772763670     0.114866866808    12.000000000000
         C            2.213710979746    -2.213451236330    -0.273570133192    12.000000000000
         C            3.166682979746    -1.216139236330    -0.071935133192    12.000000000000
         C           -1.884996020254    -1.170409236330     0.601992866808    12.000000000000
         C           -3.254729020254    -0.923911236330     0.582365866808    12.000000000000
         C            1.997681979746     2.862866763670     0.255481866808    12.000000000000
         C           -2.787052020254     1.097434763670    -0.609698133192    12.000000000000
         C           -3.721347020254     0.231889763670    -0.043446133192    12.000000000000
         H            0.112294979746    -2.628116236330    -0.460835133192     1.007825032230
         H            3.539005979746     0.867096763670     0.256511866808     1.007825032230
         H            0.135612979746     1.997054763670    -0.127166133192     1.007825032230
         H            2.514329979746    -3.243929236330    -0.443352133192     1.007825032230
         H            4.226148979746    -1.463592236330    -0.063620133192     1.007825032230
         H           -1.485741020254    -2.042332236330     1.111618866808     1.007825032230
         H           -3.945051020254    -1.613483236330     1.062500866808     1.007825032230
         H            2.572997979746     2.871024763670    -0.682649133192     1.007825032230
         H            2.702963979746     2.796038763670     1.089234866808     1.007825032230
         H            1.464593979746     3.811426763670     0.346290866808     1.007825032230
         H           -3.104432020254     2.021206763670    -1.090952133192     1.007825032230
         H           -4.781001020254     0.468221763670    -0.079188133192     1.007825032230

  Basis Set: AUG-CC-PVTZ
    Blend: AUG-CC-PVTZ
  Basis Set: (AUG-CC-PVTZ AUX)
    Blend: AUG-CC-PVTZ-JKFIT
	 Reference Energy          =    -570.4871602903328949 [Eh]
	 Singles Energy            =      -0.0000000000000000 [Eh]
	 Same-Spin Energy          =      -0.6394799617027169 [Eh]
	 Opposite-Spin Energy      =      -1.9766346769993570 [Eh]
	 Correlation Energy        =      -2.6161146387020739 [Eh]
	 Total Energy              =    -573.1032749290350239 [Eh]

	 ================> DF-SCS-MP2 Energies <==================
	-----------------------------------------------------------
	 SCS Same-Spin Scale       =       0.3333333333333333 [-]
	 SCS Opposite-Spin Scale   =       1.2000000000000000 [-]
	 SCS Same-Spin Energy      =      -0.2131599872342390 [Eh]
	 SCS Opposite-Spin Energy  =      -2.3719616123992284 [Eh]
	 SCS Correlation Energy    =      -2.5851215996334673 [Eh]
	 SCS Total Energy          =    -573.0722818899663480 [Eh]
	-----------------------------------------------------------

  Dipole Moment: [D]
     X:    -1.7297      Y:     0.1882      Z:     0.3585     Total:     1.7764

*** Psi4 exiting successfully. Buy a developer a beer!
