                               Psi4 1.3.2 release

  ==> Input File <==

--------------------------------------------------------------------------
#psi4
#
memory 32 gb

molecule  {
0 1
  N        0.9996340     1.7721850     0.3204360
  N       -1.4856460     0.8456190    -0.6184330
  C        0.4210120    -0.5622280    -0.0768460
  C        1.3040031     0.4338916     0.1074896
  C       -1.0315900    -0.2881510    -0.0320430
  C        0.8423560    -1.8835050    -0.2823050
  C        2.7530010     0.0889630     0.1086070
  C        2.1912380    -2.2332610    -0.2798300
  C        3.1442100    -1.2359490    -0.0781950
  C       -1.9074690    -1.1902190     0.5957330
  C       -3.2772020    -0.9437210     0.5761060
  C        1.9752090     2.8430570     0.2492220
  C       -2.8095250     1.0776250    -0.6159580
  C       -3.7438200     0.2120800    -0.0497060
  H        0.0898220    -2.6479260    -0.4670950
  H        3.5165330     0.8472870     0.2502520
  H        0.1131400     1.9772450    -0.1334260
  H        2.4918570    -3.2637390    -0.4496120
  H        4.2036760    -1.4834020    -0.0698800
  H       -1.5082140    -2.0621420     1.1053590
  H       -3.9675240    -1.6332930     1.0562410
  H        2.5505250     2.8512150    -0.6889090
  H        2.6804910     2.7762290     1.0829750
  H        1.4421210     3.7916170     0.3400310
  H       -3.1269050     2.0013970    -1.0972120
  H       -4.8034740     0.4484120    -0.0854480
units angstrom
no_reorient  #important for SAPT in psi4, default
symmetry c1  #important for SAPT in psi4, default
}

set PROPERTIES_ORIGIN ["COM"]
properties('MP2/aug-cc-pvtz', properties = ['dipole'])
--------------------------------------------------------------------------

    Molecular point group: c1
  Charge       = 0
  Multiplicity = 1
  Basis Set: AUG-CC-PVTZ
    Blend: AUG-CC-PVTZ
  Basis Set: (AUG-CC-PVTZ AUX)
    Blend: AUG-CC-PVTZ-JKFIT

    Orbital Energies [Eh]
    ---------------------

    Doubly Occupied:

       1A    -15.568290     2A    -15.550111     3A    -11.288554
       4A    -11.281175     5A    -11.278994     6A    -11.262992
       7A    -11.251572     8A    -11.242073     9A    -11.240859
      10A    -11.237795    11A    -11.234099    12A    -11.228344
      13A    -11.223840    14A    -11.218845    15A     -1.263898
      16A     -1.227626    17A     -1.134213    18A     -1.088653
      19A     -1.061152    20A     -1.000519    21A     -0.990663
      22A     -0.916867    23A     -0.867847    24A     -0.860770
      25A     -0.812309    26A     -0.793766    27A     -0.720342
      28A     -0.694728    29A     -0.671941    30A     -0.656927
      31A     -0.652107    32A     -0.621434    33A     -0.609286
      34A     -0.598782    35A     -0.590090    36A     -0.577269
      37A     -0.570212    38A     -0.547724    39A     -0.533258
      40A     -0.529858    41A     -0.505603    42A     -0.501662
      43A     -0.483231    44A     -0.420723    45A     -0.416597
      46A     -0.387251    47A     -0.366717    48A     -0.316585
      49A     -0.280529

  @DF-RHF Final Energy:  -570.47909735005612

   => Energetics <=

    Nuclear Repulsion Energy =            819.2677208500670076
    One-Electron Energy =               -2398.7362814211369368
    Two-Electron Energy =                1008.9894632210138070
    Total Energy =                       -570.4790973500561222
  Basis Set: (AUG-CC-PVTZ AUX)
    Blend: AUG-CC-PVTZ-RI
    Molecular point group: c1

    Geometry (in Angstrom), charge = 0, multiplicity = 1:

       Center              X                  Y                   Z               Mass
    ------------   -----------------  -----------------  -----------------  -----------------
         N            1.025477147246     1.793307280435     0.323997673057    14.003074004430
         N           -1.459802852754     0.866741280435    -0.614871326943    14.003074004430
         C            0.446855147246    -0.541105719565    -0.073284326943    12.000000000000
         C            1.329846247246     0.455013880435     0.111051273057    12.000000000000
         C           -1.005746852754    -0.267028719565    -0.028481326943    12.000000000000
         C            0.868199147246    -1.862382719565    -0.278743326943    12.000000000000
         C            2.778844147246     0.110085280435     0.112168673057    12.000000000000
         C            2.217081147246    -2.212138719565    -0.276268326943    12.000000000000
         C            3.170053147246    -1.214826719565    -0.074633326943    12.000000000000
         C           -1.881625852754    -1.169096719565     0.599294673057    12.000000000000
         C           -3.251358852754    -0.922598719565     0.579667673057    12.000000000000
         C            2.001052147246     2.864179280435     0.252783673057    12.000000000000
         C           -2.783681852754     1.098747280435    -0.612396326943    12.000000000000
         C           -3.717976852754     0.233202280435    -0.046144326943    12.000000000000
         H            0.115665147246    -2.626803719565    -0.463533326943     1.007825032230
         H            3.542376147246     0.868409280435     0.253813673057     1.007825032230
         H            0.138983147246     1.998367280435    -0.129864326943     1.007825032230
         H            2.517700147246    -3.242616719565    -0.446050326943     1.007825032230
         H            4.229519147246    -1.462279719565    -0.066318326943     1.007825032230
         H           -1.482370852754    -2.041019719565     1.108920673057     1.007825032230
         H           -3.941680852754    -1.612170719565     1.059802673057     1.007825032230
         H            2.576368147246     2.872337280435    -0.685347326943     1.007825032230
         H            2.706334147246     2.797351280435     1.086536673057     1.007825032230
         H            1.467964147246     3.812739280435     0.343592673057     1.007825032230
         H           -3.101061852754     2.022519280435    -1.093650326943     1.007825032230
         H           -4.777630852754     0.469534280435    -0.081886326943     1.007825032230

  Basis Set: AUG-CC-PVTZ
    Blend: AUG-CC-PVTZ
  Basis Set: (AUG-CC-PVTZ AUX)
    Blend: AUG-CC-PVTZ-JKFIT
	 Reference Energy          =    -570.4790973500561222 [Eh]
	 Singles Energy            =      -0.0000000000000000 [Eh]
	 Same-Spin Energy          =      -0.6392698592439530 [Eh]
	 Opposite-Spin Energy      =      -1.9769463342427058 [Eh]
	 Correlation Energy        =      -2.6162161934866588 [Eh]
	 Total Energy              =    -573.0953135435428294 [Eh]

	 ================> DF-SCS-MP2 Energies <==================
	-----------------------------------------------------------
	 SCS Same-Spin Scale       =       0.3333333333333333 [-]
	 SCS Opposite-Spin Scale   =       1.2000000000000000 [-]
	 SCS Same-Spin Energy      =      -0.2130899530813176 [Eh]
	 SCS Opposite-Spin Energy  =      -2.3723356010912471 [Eh]
	 SCS Correlation Energy    =      -2.5854255541725646 [Eh]
	 SCS Total Energy          =    -573.0645229042287383 [Eh]
	-----------------------------------------------------------

  Dipole Moment: [D]
     X:    -1.7069      Y:     0.2154      Z:     0.3698     Total:     1.7597

*** Psi4 exiting successfully. Buy a developer a beer!
