                               Psi4 1.3.2 release

  ==> Input File <==

--------------------------------------------------------------------------
#psi4
#
memory 32 gb

molecule  {
0 1
  N        1.0470410     1.7305747     0.1823473
  N       -1.4856460     0.8456190    -0.6184330
  C        0.4210120    -0.5622280    -0.0768460
  C        1.3959190     0.4607190     0.0923330
  C       -1.0315900    -0.2881510    -0.0320430
  C        0.8423560    -1.8835050    -0.2823050
  C        2.7530010     0.0889630     0.1086070
  C        2.1912380    -2.2332610    -0.2798300
  C        3.1442100    -1.2359490    -0.0781950
  C       -1.9074690    -1.1902190     0.5957330
  C       -3.2772020    -0.9437210     0.5761060
  C        1.9752090     2.8430570     0.2492220
  C       -2.8095250     1.0776250    -0.6159580
  C       -3.7438200     0.2120800    -0.0497060
  H        0.0898220    -2.6479260    -0.4670950
  H        3.5165330     0.8472870     0.2502520
  H        0.1131400     1.9772450    -0.1334260
  H        2.4918570    -3.2637390    -0.4496120
  H        4.2036760    -1.4834020    -0.0698800
  H       -1.5082140    -2.0621420     1.1053590
  H       -3.9675240    -1.6332930     1.0562410
  H        2.5505250     2.8512150    -0.6889090
  H        2.6804910     2.7762290     1.0829750
  H        1.4421210     3.7916170     0.3400310
  H       -3.1269050     2.0013970    -1.0972120
  H       -4.8034740     0.4484120    -0.0854480
units angstrom
no_reorient  #important for SAPT in psi4, default
symmetry c1  #important for SAPT in psi4, default
}

set PROPERTIES_ORIGIN ["COM"]
properties('MP2/aug-cc-pvtz', properties = ['dipole'])
--------------------------------------------------------------------------

    Molecular point group: c1
  Charge       = 0
  Multiplicity = 1
  Basis Set: AUG-CC-PVTZ
    Blend: AUG-CC-PVTZ
  Basis Set: (AUG-CC-PVTZ AUX)
    Blend: AUG-CC-PVTZ-JKFIT

    Orbital Energies [Eh]
    ---------------------

    Doubly Occupied:

       1A    -15.567279     2A    -15.553397     3A    -11.288674
       4A    -11.280725     5A    -11.277288     6A    -11.262406
       7A    -11.255896     8A    -11.241258     9A    -11.240029
      10A    -11.235094    11A    -11.233349    12A    -11.226481
      13A    -11.212862    14A    -11.210405    15A     -1.267118
      16A     -1.245860    17A     -1.129175    18A     -1.087977
      19A     -1.058407    20A     -0.998512    21A     -0.992243
      22A     -0.923243    23A     -0.870178    24A     -0.859281
      25A     -0.806902    26A     -0.794928    27A     -0.723960
      28A     -0.703058    29A     -0.671030    30A     -0.658996
      31A     -0.651894    32A     -0.624509    33A     -0.611403
      34A     -0.601307    35A     -0.588286    36A     -0.578326
      37A     -0.570644    38A     -0.549784    39A     -0.538253
      40A     -0.530257    41A     -0.504210    42A     -0.498380
      43A     -0.486271    44A     -0.423589    45A     -0.417642
      46A     -0.387793    47A     -0.366401    48A     -0.314712
      49A     -0.266988

  @DF-RHF Final Energy:  -570.48604443500108

   => Energetics <=

    Nuclear Repulsion Energy =            820.2264554729963493
    One-Electron Energy =               -2400.6516709780239580
    Two-Electron Energy =                1009.9391710700265321
    Total Energy =                       -570.4860444350010766
  Basis Set: (AUG-CC-PVTZ AUX)
    Blend: AUG-CC-PVTZ-RI
    Molecular point group: c1

    Geometry (in Angstrom), charge = 0, multiplicity = 1:

       Center              X                  Y                   Z               Mass
    ------------   -----------------  -----------------  -----------------  -----------------
         N            1.063287004037     1.753113293535     0.197400254584    14.003074004430
         N           -1.469399995963     0.868157593535    -0.603380045416    14.003074004430
         C            0.437258004037    -0.539689406465    -0.061793045416    12.000000000000
         C            1.412165004037     0.483257593535     0.107385954584    12.000000000000
         C           -1.015343995963    -0.265612406465    -0.016990045416    12.000000000000
         C            0.858602004037    -1.860966406465    -0.267252045416    12.000000000000
         C            2.769247004037     0.111501593535     0.123659954584    12.000000000000
         C            2.207484004037    -2.210722406465    -0.264777045416    12.000000000000
         C            3.160456004037    -1.213410406465    -0.063142045416    12.000000000000
         C           -1.891222995963    -1.167680406465     0.610785954584    12.000000000000
         C           -3.260955995963    -0.921182406465     0.591158954584    12.000000000000
         C            1.991455004037     2.865595593535     0.264274954584    12.000000000000
         C           -2.793278995963     1.100163593535    -0.600905045416    12.000000000000
         C           -3.727573995963     0.234618593535    -0.034653045416    12.000000000000
         H            0.106068004037    -2.625387406465    -0.452042045416     1.007825032230
         H            3.532779004037     0.869825593535     0.265304954584     1.007825032230
         H            0.129386004037     1.999783593535    -0.118373045416     1.007825032230
         H            2.508103004037    -3.241200406465    -0.434559045416     1.007825032230
         H            4.219922004037    -1.460863406465    -0.054827045416     1.007825032230
         H           -1.491967995963    -2.039603406465     1.120411954584     1.007825032230
         H           -3.951277995963    -1.610754406465     1.071293954584     1.007825032230
         H            2.566771004037     2.873753593535    -0.673856045416     1.007825032230
         H            2.696737004037     2.798767593535     1.098027954584     1.007825032230
         H            1.458367004037     3.814155593535     0.355083954584     1.007825032230
         H           -3.110658995963     2.023935593535    -1.082159045416     1.007825032230
         H           -4.787227995963     0.470950593535    -0.070395045416     1.007825032230

  Basis Set: AUG-CC-PVTZ
    Blend: AUG-CC-PVTZ
  Basis Set: (AUG-CC-PVTZ AUX)
    Blend: AUG-CC-PVTZ-JKFIT
	 Reference Energy          =    -570.4860444350010766 [Eh]
	 Singles Energy            =      -0.0000000000000000 [Eh]
	 Same-Spin Energy          =      -0.6397928799611420 [Eh]
	 Opposite-Spin Energy      =      -1.9760551351274083 [Eh]
	 Correlation Energy        =      -2.6158480150885501 [Eh]
	 Total Energy              =    -573.1018924500896219 [Eh]

	 ================> DF-SCS-MP2 Energies <==================
	-----------------------------------------------------------
	 SCS Same-Spin Scale       =       0.3333333333333333 [-]
	 SCS Opposite-Spin Scale   =       1.2000000000000000 [-]
	 SCS Same-Spin Energy      =      -0.2132642933203807 [Eh]
	 SCS Opposite-Spin Energy  =      -2.3712661621528897 [Eh]
	 SCS Correlation Energy    =      -2.5845304554732702 [Eh]
	 SCS Total Energy          =    -573.0705748904742904 [Eh]
	-----------------------------------------------------------

  Dipole Moment: [D]
     X:    -1.8729      Y:     0.8297      Z:     0.6702     Total:     2.1553

*** Psi4 exiting successfully. Buy a developer a beer!
