                               Psi4 1.3.2 release

  ==> Input File <==

--------------------------------------------------------------------------
#psi4
#
memory 32 gb

molecule  {
0 1
  N        0.9996340     1.7721850     0.3204360
  N       -1.4856460     0.8456190    -0.6184330
  C        0.4210120    -0.5622280    -0.0768460
  C        1.4356481     0.4690080     0.1188491
  C       -1.0315900    -0.2881510    -0.0320430
  C        0.8423560    -1.8835050    -0.2823050
  C        2.7530010     0.0889630     0.1086070
  C        2.1912380    -2.2332610    -0.2798300
  C        3.1442100    -1.2359490    -0.0781950
  C       -1.9074690    -1.1902190     0.5957330
  C       -3.2772020    -0.9437210     0.5761060
  C        1.9752090     2.8430570     0.2492220
  C       -2.8095250     1.0776250    -0.6159580
  C       -3.7438200     0.2120800    -0.0497060
  H        0.0898220    -2.6479260    -0.4670950
  H        3.5165330     0.8472870     0.2502520
  H        0.1131400     1.9772450    -0.1334260
  H        2.4918570    -3.2637390    -0.4496120
  H        4.2036760    -1.4834020    -0.0698800
  H       -1.5082140    -2.0621420     1.1053590
  H       -3.9675240    -1.6332930     1.0562410
  H        2.5505250     2.8512150    -0.6889090
  H        2.6804910     2.7762290     1.0829750
  H        1.4421210     3.7916170     0.3400310
  H       -3.1269050     2.0013970    -1.0972120
  H       -4.8034740     0.4484120    -0.0854480
units angstrom
no_reorient  #important for SAPT in psi4, default
symmetry c1  #important for SAPT in psi4, default
}

set PROPERTIES_ORIGIN ["COM"]
properties('MP2/aug-cc-pvtz', properties = ['dipole'])
--------------------------------------------------------------------------

    Molecular point group: c1
  Charge       = 0
  Multiplicity = 1
  Basis Set: AUG-CC-PVTZ
    Blend: AUG-CC-PVTZ
  Basis Set: (AUG-CC-PVTZ AUX)
    Blend: AUG-CC-PVTZ-JKFIT

    Orbital Energies [Eh]
    ---------------------

    Doubly Occupied:

       1A    -15.568870     2A    -15.550201     3A    -11.290481
       4A    -11.281483     5A    -11.278391     6A    -11.263374
       7A    -11.247436     8A    -11.242719     9A    -11.241893
      10A    -11.237554    11A    -11.236625    12A    -11.236346
      13A    -11.218485    14A    -11.215619    15A     -1.262994
      16A     -1.228877    17A     -1.132024    18A     -1.089067
      19A     -1.060858    20A     -1.003013    21A     -0.989614
      22A     -0.914992    23A     -0.872613    24A     -0.860056
      25A     -0.805886    26A     -0.793228    27A     -0.720943
      28A     -0.699972    29A     -0.670186    30A     -0.659215
      31A     -0.648571    32A     -0.623744    33A     -0.608370
      34A     -0.603485    35A     -0.589189    36A     -0.575990
      37A     -0.566641    38A     -0.548683    39A     -0.534332
      40A     -0.528250    41A     -0.503644    42A     -0.499095
      43A     -0.485682    44A     -0.423479    45A     -0.415987
      46A     -0.388414    47A     -0.367400    48A     -0.318961
      49A     -0.278846

  @DF-RHF Final Energy:  -570.48745221614558

   => Energetics <=

    Nuclear Repulsion Energy =            818.2996569732174521
    One-Electron Energy =               -2396.8106651564071399
    Two-Electron Energy =                1008.0235559670441035
    Total Energy =                       -570.4874522161455843
  Basis Set: (AUG-CC-PVTZ AUX)
    Blend: AUG-CC-PVTZ-RI
    Molecular point group: c1

    Geometry (in Angstrom), charge = 0, multiplicity = 1:

       Center              X                  Y                   Z               Mass
    ------------   -----------------  -----------------  -----------------  -----------------
         N            1.016896269546     1.791018325034     0.323257238706    14.003074004430
         N           -1.468383730454     0.864452325034    -0.615611761294    14.003074004430
         C            0.438274269546    -0.543394674966    -0.074024761294    12.000000000000
         C            1.452910369546     0.487841325034     0.121670338706    12.000000000000
         C           -1.014327730454    -0.269317674966    -0.029221761294    12.000000000000
         C            0.859618269546    -1.864671674966    -0.279483761294    12.000000000000
         C            2.770263269546     0.107796325034     0.111428238706    12.000000000000
         C            2.208500269546    -2.214427674966    -0.277008761294    12.000000000000
         C            3.161472269546    -1.217115674966    -0.075373761294    12.000000000000
         C           -1.890206730454    -1.171385674966     0.598554238706    12.000000000000
         C           -3.259939730454    -0.924887674966     0.578927238706    12.000000000000
         C            1.992471269546     2.861890325034     0.252043238706    12.000000000000
         C           -2.792262730454     1.096458325034    -0.613136761294    12.000000000000
         C           -3.726557730454     0.230913325034    -0.046884761294    12.000000000000
         H            0.107084269546    -2.629092674966    -0.464273761294     1.007825032230
         H            3.533795269546     0.866120325034     0.253073238706     1.007825032230
         H            0.130402269546     1.996078325034    -0.130604761294     1.007825032230
         H            2.509119269546    -3.244905674966    -0.446790761294     1.007825032230
         H            4.220938269546    -1.464568674966    -0.067058761294     1.007825032230
         H           -1.490951730454    -2.043308674966     1.108180238706     1.007825032230
         H           -3.950261730454    -1.614459674966     1.059062238706     1.007825032230
         H            2.567787269546     2.870048325034    -0.686087761294     1.007825032230
         H            2.697753269546     2.795062325034     1.085796238706     1.007825032230
         H            1.459383269546     3.810450325034     0.342852238706     1.007825032230
         H           -3.109642730454     2.020230325034    -1.094390761294     1.007825032230
         H           -4.786211730454     0.467245325034    -0.082626761294     1.007825032230

  Basis Set: AUG-CC-PVTZ
    Blend: AUG-CC-PVTZ
  Basis Set: (AUG-CC-PVTZ AUX)
    Blend: AUG-CC-PVTZ-JKFIT
	 Reference Energy          =    -570.4874522161455843 [Eh]
	 Singles Energy            =      -0.0000000000000000 [Eh]
	 Same-Spin Energy          =      -0.6394361860275074 [Eh]
	 Opposite-Spin Energy      =      -1.9765137437219229 [Eh]
	 Correlation Energy        =      -2.6159499297494304 [Eh]
	 Total Energy              =    -573.1034021458949610 [Eh]

	 ================> DF-SCS-MP2 Energies <==================
	-----------------------------------------------------------
	 SCS Same-Spin Scale       =       0.3333333333333333 [-]
	 SCS Opposite-Spin Scale   =       1.2000000000000000 [-]
	 SCS Same-Spin Energy      =      -0.2131453953425025 [Eh]
	 SCS Opposite-Spin Energy  =      -2.3718164924663072 [Eh]
	 SCS Correlation Energy    =      -2.5849618878088099 [Eh]
	 SCS Total Energy          =    -573.0724141039544293 [Eh]
	-----------------------------------------------------------

  Dipole Moment: [D]
     X:    -1.7919      Y:     0.1311      Z:     0.3642     Total:     1.8332

*** Psi4 exiting successfully. Buy a developer a beer!
