                               Psi4 1.3.2 release

  ==> Input File <==

--------------------------------------------------------------------------
#psi4
#
memory 32 gb

molecule  {
0 1
  N        1.0300807     1.7431103     0.2283702
  N       -1.4856460     0.8456190    -0.6184330
  C        0.4210120    -0.5622280    -0.0768460
  C        1.3959190     0.4607190     0.0923330
  C       -1.0315900    -0.2881510    -0.0320430
  C        0.8423560    -1.8835050    -0.2823050
  C        2.7530010     0.0889630     0.1086070
  C        2.1912380    -2.2332610    -0.2798300
  C        3.1442100    -1.2359490    -0.0781950
  C       -1.9074690    -1.1902190     0.5957330
  C       -3.2772020    -0.9437210     0.5761060
  C        1.9752090     2.8430570     0.2492220
  C       -2.8095250     1.0776250    -0.6159580
  C       -3.7438200     0.2120800    -0.0497060
  H        0.0898220    -2.6479260    -0.4670950
  H        3.5165330     0.8472870     0.2502520
  H        0.1131400     1.9772450    -0.1334260
  H        2.4918570    -3.2637390    -0.4496120
  H        4.2036760    -1.4834020    -0.0698800
  H       -1.5082140    -2.0621420     1.1053590
  H       -3.9675240    -1.6332930     1.0562410
  H        2.5505250     2.8512150    -0.6889090
  H        2.6804910     2.7762290     1.0829750
  H        1.4421210     3.7916170     0.3400310
  H       -3.1269050     2.0013970    -1.0972120
  H       -4.8034740     0.4484120    -0.0854480
units angstrom
no_reorient  #important for SAPT in psi4, default
symmetry c1  #important for SAPT in psi4, default
}

set PROPERTIES_ORIGIN ["COM"]
properties('MP2/aug-cc-pvtz', properties = ['dipole'])
--------------------------------------------------------------------------

    Molecular point group: c1
  Charge       = 0
  Multiplicity = 1
  Basis Set: AUG-CC-PVTZ
    Blend: AUG-CC-PVTZ
  Basis Set: (AUG-CC-PVTZ AUX)
    Blend: AUG-CC-PVTZ-JKFIT

    Orbital Energies [Eh]
    ---------------------

    Doubly Occupied:

       1A    -15.567698     2A    -15.551834     3A    -11.289059
       4A    -11.280929     5A    -11.277942     6A    -11.262668
       7A    -11.253642     8A    -11.241638     9A    -11.240510
      10A    -11.235823    11A    -11.234191    12A    -11.228559
      13A    -11.215118    14A    -11.212918    15A     -1.265143
      16A     -1.241161    17A     -1.130238    18A     -1.088266
      19A     -1.059111    20A     -0.998175    21A     -0.992610
      22A     -0.921155    23A     -0.870431    24A     -0.859603
      25A     -0.806250    26A     -0.795500    27A     -0.722724
      28A     -0.702074    29A     -0.670774    30A     -0.658940
      31A     -0.651179    32A     -0.623763    33A     -0.610143
      34A     -0.601719    35A     -0.588729    36A     -0.577557
      37A     -0.570463    38A     -0.549517    39A     -0.536416
      40A     -0.530668    41A     -0.503156    42A     -0.499280
      43A     -0.487317    44A     -0.423181    45A     -0.417586
      46A     -0.387872    47A     -0.366674    48A     -0.315550
      49A     -0.270756

  @DF-RHF Final Energy:  -570.48872471426273

   => Energetics <=

    Nuclear Repulsion Energy =            819.7518286882175289
    One-Electron Energy =               -2399.7086913236230430
    Two-Electron Energy =                1009.4681379211427839
    Total Energy =                       -570.4887247142627302
  Basis Set: (AUG-CC-PVTZ AUX)
    Blend: AUG-CC-PVTZ-RI
    Molecular point group: c1

    Geometry (in Angstrom), charge = 0, multiplicity = 1:

       Center              X                  Y                   Z               Mass
    ------------   -----------------  -----------------  -----------------  -----------------
         N            1.047616743546     1.764695406906     0.239922546734    14.003074004430
         N           -1.468109956454     0.867204106906    -0.606880653266    14.003074004430
         C            0.438548043546    -0.540642893094    -0.065293653266    12.000000000000
         C            1.413455043546     0.482304106906     0.103885346734    12.000000000000
         C           -1.014053956454    -0.266565893094    -0.020490653266    12.000000000000
         C            0.859892043546    -1.861919893094    -0.270752653266    12.000000000000
         C            2.770537043546     0.110548106906     0.120159346734    12.000000000000
         C            2.208774043546    -2.211675893094    -0.268277653266    12.000000000000
         C            3.161746043546    -1.214363893094    -0.066642653266    12.000000000000
         C           -1.889932956454    -1.168633893094     0.607285346734    12.000000000000
         C           -3.259665956454    -0.922135893094     0.587658346734    12.000000000000
         C            1.992745043546     2.864642106906     0.260774346734    12.000000000000
         C           -2.791988956454     1.099210106906    -0.604405653266    12.000000000000
         C           -3.726283956454     0.233665106906    -0.038153653266    12.000000000000
         H            0.107358043546    -2.626340893094    -0.455542653266     1.007825032230
         H            3.534069043546     0.868872106906     0.261804346734     1.007825032230
         H            0.130676043546     1.998830106906    -0.121873653266     1.007825032230
         H            2.509393043546    -3.242153893094    -0.438059653266     1.007825032230
         H            4.221212043546    -1.461816893094    -0.058327653266     1.007825032230
         H           -1.490677956454    -2.040556893094     1.116911346734     1.007825032230
         H           -3.949987956454    -1.611707893094     1.067793346734     1.007825032230
         H            2.568061043546     2.872800106906    -0.677356653266     1.007825032230
         H            2.698027043546     2.797814106906     1.094527346734     1.007825032230
         H            1.459657043546     3.813202106906     0.351583346734     1.007825032230
         H           -3.109368956454     2.022982106906    -1.085659653266     1.007825032230
         H           -4.785937956454     0.469997106906    -0.073895653266     1.007825032230

  Basis Set: AUG-CC-PVTZ
    Blend: AUG-CC-PVTZ
  Basis Set: (AUG-CC-PVTZ AUX)
    Blend: AUG-CC-PVTZ-JKFIT
	 Reference Energy          =    -570.4887247142627302 [Eh]
	 Singles Energy            =      -0.0000000000000000 [Eh]
	 Same-Spin Energy          =      -0.6396521956838435 [Eh]
	 Opposite-Spin Energy      =      -1.9760323433108871 [Eh]
	 Correlation Energy        =      -2.6156845389947305 [Eh]
	 Total Energy              =    -573.1044092532574723 [Eh]

	 ================> DF-SCS-MP2 Energies <==================
	-----------------------------------------------------------
	 SCS Same-Spin Scale       =       0.3333333333333333 [-]
	 SCS Opposite-Spin Scale   =       1.2000000000000000 [-]
	 SCS Same-Spin Energy      =      -0.2132173985612811 [Eh]
	 SCS Opposite-Spin Energy  =      -2.3712388119730643 [Eh]
	 SCS Correlation Energy    =      -2.5844562105343454 [Eh]
	 SCS Total Energy          =    -573.0731809247970432 [Eh]
	-----------------------------------------------------------

  Dipole Moment: [D]
     X:    -1.8396      Y:     0.6220      Z:     0.5731     Total:     2.0247

*** Psi4 exiting successfully. Buy a developer a beer!
