                               Psi4 1.4a3.dev225

  ==> Input File <==

--------------------------------------------------------------------------
#psi4
#
memory 32 gb

molecule  {
0 1
  N        0.9996340     1.7721850     0.3204360
  N       -1.4856460     0.8456190    -0.6184330
  C        0.4210120    -0.5622280    -0.0768460
  C        1.3959190     0.4607190     0.0923330
  C       -1.0382930    -0.2714138    -0.0406995
  C        0.8423560    -1.8835050    -0.2823050
  C        2.7530010     0.0889630     0.1086070
  C        2.1912380    -2.2332610    -0.2798300
  C        3.1442100    -1.2359490    -0.0781950
  C       -1.9074690    -1.1902190     0.5957330
  C       -3.2772020    -0.9437210     0.5761060
  C        1.9752090     2.8430570     0.2492220
  C       -2.8095250     1.0776250    -0.6159580
  C       -3.7438200     0.2120800    -0.0497060
  H        0.0898220    -2.6479260    -0.4670950
  H        3.5165330     0.8472870     0.2502520
  H        0.1131400     1.9772450    -0.1334260
  H        2.4918570    -3.2637390    -0.4496120
  H        4.2036760    -1.4834020    -0.0698800
  H       -1.5082140    -2.0621420     1.1053590
  H       -3.9675240    -1.6332930     1.0562410
  H        2.5505250     2.8512150    -0.6889090
  H        2.6804910     2.7762290     1.0829750
  H        1.4421210     3.7916170     0.3400310
  H       -3.1269050     2.0013970    -1.0972120
  H       -4.8034740     0.4484120    -0.0854480
units angstrom
no_reorient  #important for SAPT in psi4, default
symmetry c1  #important for SAPT in psi4, default
}

set PROPERTIES_ORIGIN ["COM"]
properties('MP2/aug-cc-pvtz', properties = ['dipole'])
--------------------------------------------------------------------------

    Molecular point group: c1
  Charge       = 0
  Multiplicity = 1
  Basis Set: AUG-CC-PVTZ
    Blend: AUG-CC-PVTZ
  Basis Set: (AUG-CC-PVTZ AUX)
    Blend: AUG-CC-PVTZ-JKFIT

    Orbital Energies [Eh]
    ---------------------

    Doubly Occupied:

       1A    -15.567840     2A    -15.550464     3A    -11.290170
       4A    -11.281446     5A    -11.278375     6A    -11.262854
       7A    -11.248689     8A    -11.242640     9A    -11.242560
      10A    -11.237344    11A    -11.235597    12A    -11.233300
      13A    -11.219720    14A    -11.218293    15A     -1.268024
      16A     -1.229270    17A     -1.131822    18A     -1.090031
      19A     -1.058991    20A     -0.998640    21A     -0.992566
      22A     -0.915347    23A     -0.871227    24A     -0.860284
      25A     -0.805780    26A     -0.795784    27A     -0.720369
      28A     -0.698412    29A     -0.670202    30A     -0.659260
      31A     -0.650249    32A     -0.621471    33A     -0.608397
      34A     -0.602089    35A     -0.589043    36A     -0.576779
      37A     -0.567884    38A     -0.550232    39A     -0.534361
      40A     -0.528388    41A     -0.504274    42A     -0.497552
      43A     -0.489308    44A     -0.422604    45A     -0.416063
      46A     -0.390239    47A     -0.365429    48A     -0.317647
      49A     -0.279570

  @DF-RHF Final Energy:  -570.49019918351416

   => Energetics <=

    Nuclear Repulsion Energy =            818.6580578459283970
    One-Electron Energy =               -2397.5227547209424301
    Two-Electron Energy =                1008.3744976914998688
    Total Energy =                       -570.4901991835141644
  Basis Set: (AUG-CC-PVTZ AUX)
    Blend: AUG-CC-PVTZ-RI
    Molecular point group: c1

    Geometry (in Angstrom), charge = 0, multiplicity = 1:

       Center              X                  Y                   Z               Mass
    ------------   -----------------  -----------------  -----------------  -----------------
         N            1.019922804329     1.790467654891     0.325549857332    14.003074004430
         N           -1.465357195671     0.863901654891    -0.613319142668    14.003074004430
         C            0.441300804329    -0.543945345109    -0.071732142668    12.000000000000
         C            1.416207804329     0.479001654891     0.097446857332    12.000000000000
         C           -1.018004195671    -0.253131145109    -0.035585642668    12.000000000000
         C            0.862644804329    -1.865222345109    -0.277191142668    12.000000000000
         C            2.773289804329     0.107245654891     0.113720857332    12.000000000000
         C            2.211526804329    -2.214978345109    -0.274716142668    12.000000000000
         C            3.164498804329    -1.217666345109    -0.073081142668    12.000000000000
         C           -1.887180195671    -1.171936345109     0.600846857332    12.000000000000
         C           -3.256913195671    -0.925438345109     0.581219857332    12.000000000000
         C            1.995497804329     2.861339654891     0.254335857332    12.000000000000
         C           -2.789236195671     1.095907654891    -0.610844142668    12.000000000000
         C           -3.723531195671     0.230362654891    -0.044592142668    12.000000000000
         H            0.110110804329    -2.629643345109    -0.461981142668     1.007825032230
         H            3.536821804329     0.865569654891     0.255365857332     1.007825032230
         H            0.133428804329     1.995527654891    -0.128312142668     1.007825032230
         H            2.512145804329    -3.245456345109    -0.444498142668     1.007825032230
         H            4.223964804329    -1.465119345109    -0.064766142668     1.007825032230
         H           -1.487925195671    -2.043859345109     1.110472857332     1.007825032230
         H           -3.947235195671    -1.615010345109     1.061354857332     1.007825032230
         H            2.570813804329     2.869497654891    -0.683795142668     1.007825032230
         H            2.700779804329     2.794511654891     1.088088857332     1.007825032230
         H            1.462409804329     3.809899654891     0.345144857332     1.007825032230
         H           -3.106616195671     2.019679654891    -1.092098142668     1.007825032230
         H           -4.783185195671     0.466694654891    -0.080334142668     1.007825032230

  Basis Set: AUG-CC-PVTZ
    Blend: AUG-CC-PVTZ
  Basis Set: (AUG-CC-PVTZ AUX)
    Blend: AUG-CC-PVTZ-JKFIT
	 Reference Energy          =    -570.4901991835141644 [Eh]
	 Singles Energy            =      -0.0000000000000000 [Eh]
	 Same-Spin Energy          =      -0.6391825537725908 [Eh]
	 Opposite-Spin Energy      =      -1.9759100708435393 [Eh]
	 Correlation Energy        =      -2.6150926246161301 [Eh]
	 Total Energy              =    -573.1052918081303460 [Eh]

	 ================> DF-SCS-MP2 Energies <==================
	-----------------------------------------------------------
	 SCS Same-Spin Scale       =       0.3333333333333333 [-]
	 SCS Opposite-Spin Scale   =       1.2000000000000000 [-]
	 SCS Same-Spin Energy      =      -0.2130608512575303 [Eh]
	 SCS Opposite-Spin Energy  =      -2.3710920850122470 [Eh]
	 SCS Correlation Energy    =      -2.5841529362697773 [Eh]
	 SCS Total Energy          =    -573.0743521197839527 [Eh]
	-----------------------------------------------------------

  Dipole Moment: [D]
     X:    -1.7877      Y:     0.1688      Z:     0.3569     Total:     1.8308

*** Psi4 exiting successfully. Buy a developer a beer!
