                               Psi4 1.3.2 release

  ==> Input File <==

--------------------------------------------------------------------------
#psi4
#
memory 32 gb

molecule  {
0 1
  N        0.9996340     1.7721850     0.3204360
  N       -1.4856460     0.8456190    -0.6184330
  C        0.4210120    -0.5622280    -0.0768460
  C        1.3591398     0.4936670     0.0977612
  C       -1.0315900    -0.2881510    -0.0320430
  C        0.8423560    -1.8835050    -0.2823050
  C        2.7530010     0.0889630     0.1086070
  C        2.1912380    -2.2332610    -0.2798300
  C        3.1442100    -1.2359490    -0.0781950
  C       -1.9074690    -1.1902190     0.5957330
  C       -3.2772020    -0.9437210     0.5761060
  C        1.9752090     2.8430570     0.2492220
  C       -2.8095250     1.0776250    -0.6159580
  C       -3.7438200     0.2120800    -0.0497060
  H        0.0898220    -2.6479260    -0.4670950
  H        3.5165330     0.8472870     0.2502520
  H        0.1131400     1.9772450    -0.1334260
  H        2.4918570    -3.2637390    -0.4496120
  H        4.2036760    -1.4834020    -0.0698800
  H       -1.5082140    -2.0621420     1.1053590
  H       -3.9675240    -1.6332930     1.0562410
  H        2.5505250     2.8512150    -0.6889090
  H        2.6804910     2.7762290     1.0829750
  H        1.4421210     3.7916170     0.3400310
  H       -3.1269050     2.0013970    -1.0972120
  H       -4.8034740     0.4484120    -0.0854480
units angstrom
no_reorient  #important for SAPT in psi4, default
symmetry c1  #important for SAPT in psi4, default
}

set PROPERTIES_ORIGIN ["COM"]
properties('MP2/aug-cc-pvtz', properties = ['dipole'])
--------------------------------------------------------------------------

    Molecular point group: c1
  Charge       = 0
  Multiplicity = 1
  Basis Set: AUG-CC-PVTZ
    Blend: AUG-CC-PVTZ
  Basis Set: (AUG-CC-PVTZ AUX)
    Blend: AUG-CC-PVTZ-JKFIT

    Orbital Energies [Eh]
    ---------------------

    Doubly Occupied:

       1A    -15.567953     2A    -15.556290     3A    -11.288177
       4A    -11.282938     5A    -11.281026     6A    -11.262547
       7A    -11.253598     8A    -11.241451     9A    -11.240095
      10A    -11.236598    11A    -11.234502    12A    -11.230297
      13A    -11.222087    14A    -11.215469    15A     -1.265425
      16A     -1.241701    17A     -1.129632    18A     -1.088155
      19A     -1.058853    20A     -0.994423    21A     -0.992516
      22A     -0.922132    23A     -0.868808    24A     -0.859695
      25A     -0.803494    26A     -0.796456    27A     -0.720385
      28A     -0.700856    29A     -0.670461    30A     -0.658739
      31A     -0.652079    32A     -0.624307    33A     -0.613100
      34A     -0.600604    35A     -0.588424    36A     -0.574844
      37A     -0.569599    38A     -0.548330    39A     -0.535022
      40A     -0.531041    41A     -0.503433    42A     -0.498976
      43A     -0.483597    44A     -0.427469    45A     -0.417486
      46A     -0.387702    47A     -0.366348    48A     -0.315618
      49A     -0.274269

  @DF-RHF Final Energy:  -570.48617738517612

   => Energetics <=

    Nuclear Repulsion Energy =            818.7201789952308673
    One-Electron Energy =               -2397.6187055397408585
    Two-Electron Energy =                1008.4123491593337576
    Total Energy =                       -570.4861773851761200
  Basis Set: (AUG-CC-PVTZ AUX)
    Blend: AUG-CC-PVTZ-RI
    Molecular point group: c1

    Geometry (in Angstrom), charge = 0, multiplicity = 1:

       Center              X                  Y                   Z               Mass
    ------------   -----------------  -----------------  -----------------  -----------------
         N            1.021883229669     1.789411003349     0.324631789132    14.003074004430
         N           -1.463396770331     0.862845003349    -0.614237210868    14.003074004430
         C            0.443261229669    -0.545001996651    -0.072650210868    12.000000000000
         C            1.381389029669     0.510893003349     0.101956989132    12.000000000000
         C           -1.009340770331    -0.270924996651    -0.027847210868    12.000000000000
         C            0.864605229669    -1.866278996651    -0.278109210868    12.000000000000
         C            2.775250229669     0.106189003349     0.112802789132    12.000000000000
         C            2.213487229669    -2.216034996651    -0.275634210868    12.000000000000
         C            3.166459229669    -1.218722996651    -0.073999210868    12.000000000000
         C           -1.885219770331    -1.172992996651     0.599928789132    12.000000000000
         C           -3.254952770331    -0.926494996651     0.580301789132    12.000000000000
         C            1.997458229669     2.860283003349     0.253417789132    12.000000000000
         C           -2.787275770331     1.094851003349    -0.611762210868    12.000000000000
         C           -3.721570770331     0.229306003349    -0.045510210868    12.000000000000
         H            0.112071229669    -2.630699996651    -0.462899210868     1.007825032230
         H            3.538782229669     0.864513003349     0.254447789132     1.007825032230
         H            0.135389229669     1.994471003349    -0.129230210868     1.007825032230
         H            2.514106229669    -3.246512996651    -0.445416210868     1.007825032230
         H            4.225925229669    -1.466175996651    -0.065684210868     1.007825032230
         H           -1.485964770331    -2.044915996651     1.109554789132     1.007825032230
         H           -3.945274770331    -1.616066996651     1.060436789132     1.007825032230
         H            2.572774229669     2.868441003349    -0.684713210868     1.007825032230
         H            2.702740229669     2.793455003349     1.087170789132     1.007825032230
         H            1.464370229669     3.808843003349     0.344226789132     1.007825032230
         H           -3.104655770331     2.018623003349    -1.093016210868     1.007825032230
         H           -4.781224770331     0.465638003349    -0.081252210868     1.007825032230

  Basis Set: AUG-CC-PVTZ
    Blend: AUG-CC-PVTZ
  Basis Set: (AUG-CC-PVTZ AUX)
    Blend: AUG-CC-PVTZ-JKFIT
	 Reference Energy          =    -570.4861773851761200 [Eh]
	 Singles Energy            =      -0.0000000000000000 [Eh]
	 Same-Spin Energy          =      -0.6398085908516258 [Eh]
	 Opposite-Spin Energy      =      -1.9768423753103226 [Eh]
	 Correlation Energy        =      -2.6166509661619486 [Eh]
	 Total Energy              =    -573.1028283513380757 [Eh]

	 ================> DF-SCS-MP2 Energies <==================
	-----------------------------------------------------------
	 SCS Same-Spin Scale       =       0.3333333333333333 [-]
	 SCS Opposite-Spin Scale   =       1.2000000000000000 [-]
	 SCS Same-Spin Energy      =      -0.2132695302838752 [Eh]
	 SCS Opposite-Spin Energy  =      -2.3722108503723871 [Eh]
	 SCS Correlation Energy    =      -2.5854803806562625 [Eh]
	 SCS Total Energy          =    -573.0716577658323558 [Eh]
	-----------------------------------------------------------

  Dipole Moment: [D]
     X:    -1.7549      Y:     0.4730      Z:     0.4167     Total:     1.8647

*** Psi4 exiting successfully. Buy a developer a beer!
