                               Psi4 1.3.2 release

  ==> Input File <==

--------------------------------------------------------------------------
#psi4
#
memory 32 gb

molecule  {
0 1
  N        0.9739402     1.8064768     0.4121549
  N       -1.4856460     0.8456190    -0.6184330
  C        0.4210120    -0.5622280    -0.0768460
  C        1.3959190     0.4607190     0.0923330
  C       -1.0315900    -0.2881510    -0.0320430
  C        0.8423560    -1.8835050    -0.2823050
  C        2.7530010     0.0889630     0.1086070
  C        2.1912380    -2.2332610    -0.2798300
  C        3.1442100    -1.2359490    -0.0781950
  C       -1.9074690    -1.1902190     0.5957330
  C       -3.2772020    -0.9437210     0.5761060
  C        1.9752090     2.8430570     0.2492220
  C       -2.8095250     1.0776250    -0.6159580
  C       -3.7438200     0.2120800    -0.0497060
  H        0.0898220    -2.6479260    -0.4670950
  H        3.5165330     0.8472870     0.2502520
  H        0.1131400     1.9772450    -0.1334260
  H        2.4918570    -3.2637390    -0.4496120
  H        4.2036760    -1.4834020    -0.0698800
  H       -1.5082140    -2.0621420     1.1053590
  H       -3.9675240    -1.6332930     1.0562410
  H        2.5505250     2.8512150    -0.6889090
  H        2.6804910     2.7762290     1.0829750
  H        1.4421210     3.7916170     0.3400310
  H       -3.1269050     2.0013970    -1.0972120
  H       -4.8034740     0.4484120    -0.0854480
units angstrom
no_reorient  #important for SAPT in psi4, default
symmetry c1  #important for SAPT in psi4, default
}

set PROPERTIES_ORIGIN ["COM"]
properties('MP2/aug-cc-pvtz', properties = ['dipole'])
--------------------------------------------------------------------------

    Molecular point group: c1
  Charge       = 0
  Multiplicity = 1
  Basis Set: AUG-CC-PVTZ
    Blend: AUG-CC-PVTZ
  Basis Set: (AUG-CC-PVTZ AUX)
    Blend: AUG-CC-PVTZ-JKFIT

    Orbital Energies [Eh]
    ---------------------

    Doubly Occupied:

       1A    -15.569656     2A    -15.552505     3A    -11.290808
       4A    -11.281875     5A    -11.279647     6A    -11.263830
       7A    -11.243881     8A    -11.243246     9A    -11.242533
      10A    -11.239130    11A    -11.237544    12A    -11.237482
      13A    -11.224676    14A    -11.223645    15A     -1.262737
      16A     -1.215060    17A     -1.134247    18A     -1.089554
      19A     -1.062153    20A     -1.000441    21A     -0.992903
      22A     -0.908645    23A     -0.871710    24A     -0.860699
      25A     -0.805303    26A     -0.796357    27A     -0.720196
      28A     -0.691662    29A     -0.671096    30A     -0.656645
      31A     -0.648339    32A     -0.619562    33A     -0.608741
      34A     -0.602843    35A     -0.590891    36A     -0.576593
      37A     -0.562158    38A     -0.546401    39A     -0.534723
      40A     -0.523399    41A     -0.505546    42A     -0.491839
      43A     -0.490397    44A     -0.423881    45A     -0.414489
      46A     -0.388453    47A     -0.367962    48A     -0.319941
      49A     -0.288673

  @DF-RHF Final Energy:  -570.48395166523699

   => Energetics <=

    Nuclear Repulsion Energy =            817.1676072708544325
    One-Electron Energy =               -2394.5537226169963105
    Two-Electron Energy =                1006.9021636809048914
    Total Energy =                       -570.4839516652369866
  Basis Set: (AUG-CC-PVTZ AUX)
    Blend: AUG-CC-PVTZ-RI
    Molecular point group: c1

    Geometry (in Angstrom), charge = 0, multiplicity = 1:

       Center              X                  Y                   Z               Mass
    ------------   -----------------  -----------------  -----------------  -----------------
         N            0.995746419372     1.823242104866     0.409728158856    14.003074004430
         N           -1.463839780628     0.862384304866    -0.620859741144    14.003074004430
         C            0.442818219372    -0.545462695134    -0.079272741144    12.000000000000
         C            1.417725219372     0.477484304866     0.089906258856    12.000000000000
         C           -1.009783780628    -0.271385695134    -0.034469741144    12.000000000000
         C            0.864162219372    -1.866739695134    -0.284731741144    12.000000000000
         C            2.774807219372     0.105728304866     0.106180258856    12.000000000000
         C            2.213044219372    -2.216495695134    -0.282256741144    12.000000000000
         C            3.166016219372    -1.219183695134    -0.080621741144    12.000000000000
         C           -1.885662780628    -1.173453695134     0.593306258856    12.000000000000
         C           -3.255395780628    -0.926955695134     0.573679258856    12.000000000000
         C            1.997015219372     2.859822304866     0.246795258856    12.000000000000
         C           -2.787718780628     1.094390304866    -0.618384741144    12.000000000000
         C           -3.722013780628     0.228845304866    -0.052132741144    12.000000000000
         H            0.111628219372    -2.631160695134    -0.469521741144     1.007825032230
         H            3.538339219372     0.864052304866     0.247825258856     1.007825032230
         H            0.134946219372     1.994010304866    -0.135852741144     1.007825032230
         H            2.513663219372    -3.246973695134    -0.452038741144     1.007825032230
         H            4.225482219372    -1.466636695134    -0.072306741144     1.007825032230
         H           -1.486407780628    -2.045376695134     1.102932258856     1.007825032230
         H           -3.945717780628    -1.616527695134     1.053814258856     1.007825032230
         H            2.572331219372     2.867980304866    -0.691335741144     1.007825032230
         H            2.702297219372     2.792994304866     1.080548258856     1.007825032230
         H            1.463927219372     3.808382304866     0.337604258856     1.007825032230
         H           -3.105098780628     2.018162304866    -1.099638741144     1.007825032230
         H           -4.781667780628     0.465177304866    -0.087874741144     1.007825032230

  Basis Set: AUG-CC-PVTZ
    Blend: AUG-CC-PVTZ
  Basis Set: (AUG-CC-PVTZ AUX)
    Blend: AUG-CC-PVTZ-JKFIT
	 Reference Energy          =    -570.4839516652369866 [Eh]
	 Singles Energy            =      -0.0000000000000000 [Eh]
	 Same-Spin Energy          =      -0.6395472375622248 [Eh]
	 Opposite-Spin Energy      =      -1.9776634546257121 [Eh]
	 Correlation Energy        =      -2.6172106921879368 [Eh]
	 Total Energy              =    -573.1011623574248688 [Eh]

	 ================> DF-SCS-MP2 Energies <==================
	-----------------------------------------------------------
	 SCS Same-Spin Scale       =       0.3333333333333333 [-]
	 SCS Opposite-Spin Scale   =       1.2000000000000000 [-]
	 SCS Same-Spin Energy      =      -0.2131824125207416 [Eh]
	 SCS Opposite-Spin Energy  =      -2.3731961455508546 [Eh]
	 SCS Correlation Energy    =      -2.5863785580715963 [Eh]
	 SCS Total Energy          =    -573.0703302233085878 [Eh]
	-----------------------------------------------------------

  Dipole Moment: [D]
     X:    -1.6818      Y:    -0.3002      Z:     0.1452     Total:     1.7146

*** Psi4 exiting successfully. Buy a developer a beer!
