                               Psi4 1.3.2 release

  ==> Input File <==

--------------------------------------------------------------------------
#psi4
#
memory 32 gb

molecule  {
0 1
  N        0.9996340     1.7721850     0.3204360
  N       -1.5076943     0.8397554    -0.6122210
  C        0.4210120    -0.5622280    -0.0768460
  C        1.3959190     0.4607190     0.0923330
  C       -1.0315900    -0.2881510    -0.0320430
  C        0.8423560    -1.8835050    -0.2823050
  C        2.7530010     0.0889630     0.1086070
  C        2.1912380    -2.2332610    -0.2798300
  C        3.1442100    -1.2359490    -0.0781950
  C       -1.9074690    -1.1902190     0.5957330
  C       -3.2772020    -0.9437210     0.5761060
  C        1.9752090     2.8430570     0.2492220
  C       -2.8095250     1.0776250    -0.6159580
  C       -3.7438200     0.2120800    -0.0497060
  H        0.0898220    -2.6479260    -0.4670950
  H        3.5165330     0.8472870     0.2502520
  H        0.1131400     1.9772450    -0.1334260
  H        2.4918570    -3.2637390    -0.4496120
  H        4.2036760    -1.4834020    -0.0698800
  H       -1.5082140    -2.0621420     1.1053590
  H       -3.9675240    -1.6332930     1.0562410
  H        2.5505250     2.8512150    -0.6889090
  H        2.6804910     2.7762290     1.0829750
  H        1.4421210     3.7916170     0.3400310
  H       -3.1269050     2.0013970    -1.0972120
  H       -4.8034740     0.4484120    -0.0854480
units angstrom
no_reorient  #important for SAPT in psi4, default
symmetry c1  #important for SAPT in psi4, default
}

set PROPERTIES_ORIGIN ["COM"]
properties('MP2/aug-cc-pvtz', properties = ['dipole'])
--------------------------------------------------------------------------

    Molecular point group: c1
  Charge       = 0
  Multiplicity = 1
  Basis Set: AUG-CC-PVTZ
    Blend: AUG-CC-PVTZ
  Basis Set: (AUG-CC-PVTZ AUX)
    Blend: AUG-CC-PVTZ-JKFIT

    Orbital Energies [Eh]
    ---------------------

    Doubly Occupied:

       1A    -15.565693     2A    -15.551232     3A    -11.289676
       4A    -11.279279     5A    -11.278733     6A    -11.262093
       7A    -11.249106     8A    -11.241461     9A    -11.241051
      10A    -11.237770    11A    -11.236205    12A    -11.233728
      13A    -11.220254    14A    -11.218658    15A     -1.266852
      16A     -1.230031    17A     -1.132933    18A     -1.088090
      19A     -1.061861    20A     -0.999159    21A     -0.993023
      22A     -0.915841    23A     -0.872452    24A     -0.858817
      25A     -0.806792    26A     -0.796380    27A     -0.721216
      28A     -0.698548    29A     -0.670963    30A     -0.658367
      31A     -0.650592    32A     -0.622046    33A     -0.609158
      34A     -0.602711    35A     -0.590064    36A     -0.576498
      37A     -0.568301    38A     -0.550181    39A     -0.534363
      40A     -0.529489    41A     -0.504574    42A     -0.498054
      43A     -0.489329    44A     -0.421970    45A     -0.414188
      46A     -0.387956    47A     -0.368329    48A     -0.317297
      49A     -0.279637

  @DF-RHF Final Energy:  -570.49059424929055

   => Energetics <=

    Nuclear Repulsion Energy =            818.7808789521195649
    One-Electron Energy =               -2397.7609477226287709
    Two-Electron Energy =                1008.4894745212186535
    Total Energy =                       -570.4905942492905524
  Basis Set: (AUG-CC-PVTZ AUX)
    Blend: AUG-CC-PVTZ-RI
    Molecular point group: c1

    Geometry (in Angstrom), charge = 0, multiplicity = 1:

       Center              X                  Y                   Z               Mass
    ------------   -----------------  -----------------  -----------------  -----------------
         N            1.021162934239     1.792004617142     0.324513110751    14.003074004430
         N           -1.486165365761     0.859575017142    -0.608143889249    14.003074004430
         C            0.442540934239    -0.542408382858    -0.072768889249    12.000000000000
         C            1.417447934239     0.480538617142     0.096410110751    12.000000000000
         C           -1.010061065761    -0.268331382858    -0.027965889249    12.000000000000
         C            0.863884934239    -1.863685382858    -0.278227889249    12.000000000000
         C            2.774529934239     0.108782617142     0.112684110751    12.000000000000
         C            2.212766934239    -2.213441382858    -0.275752889249    12.000000000000
         C            3.165738934239    -1.216129382858    -0.074117889249    12.000000000000
         C           -1.885940065761    -1.170399382858     0.599810110751    12.000000000000
         C           -3.255673065761    -0.923901382858     0.580183110751    12.000000000000
         C            1.996737934239     2.862876617142     0.253299110751    12.000000000000
         C           -2.787996065761     1.097444617142    -0.611880889249    12.000000000000
         C           -3.722291065761     0.231899617142    -0.045628889249    12.000000000000
         H            0.111350934239    -2.628106382858    -0.463017889249     1.007825032230
         H            3.538061934239     0.867106617142     0.254329110751     1.007825032230
         H            0.134668934239     1.997064617142    -0.129348889249     1.007825032230
         H            2.513385934239    -3.243919382858    -0.445534889249     1.007825032230
         H            4.225204934239    -1.463582382858    -0.065802889249     1.007825032230
         H           -1.486685065761    -2.042322382858     1.109436110751     1.007825032230
         H           -3.945995065761    -1.613473382858     1.060318110751     1.007825032230
         H            2.572053934239     2.871034617142    -0.684831889249     1.007825032230
         H            2.702019934239     2.796048617142     1.087052110751     1.007825032230
         H            1.463649934239     3.811436617142     0.344108110751     1.007825032230
         H           -3.105376065761     2.021216617142    -1.093134889249     1.007825032230
         H           -4.781945065761     0.468231617142    -0.081370889249     1.007825032230

  Basis Set: AUG-CC-PVTZ
    Blend: AUG-CC-PVTZ
  Basis Set: (AUG-CC-PVTZ AUX)
    Blend: AUG-CC-PVTZ-JKFIT
	 Reference Energy          =    -570.4905942492905524 [Eh]
	 Singles Energy            =      -0.0000000000000000 [Eh]
	 Same-Spin Energy          =      -0.6392471787016932 [Eh]
	 Opposite-Spin Energy      =      -1.9757038175900272 [Eh]
	 Correlation Energy        =      -2.6149509962917206 [Eh]
	 Total Energy              =    -573.1055452455822206 [Eh]

	 ================> DF-SCS-MP2 Energies <==================
	-----------------------------------------------------------
	 SCS Same-Spin Scale       =       0.3333333333333333 [-]
	 SCS Opposite-Spin Scale   =       1.2000000000000000 [-]
	 SCS Same-Spin Energy      =      -0.2130823929005644 [Eh]
	 SCS Opposite-Spin Energy  =      -2.3708445811080328 [Eh]
	 SCS Correlation Energy    =      -2.5839269740085973 [Eh]
	 SCS Total Energy          =    -573.0745212232991435 [Eh]
	-----------------------------------------------------------

  Dipole Moment: [D]
     X:    -1.6968      Y:     0.1783      Z:     0.3491     Total:     1.7415

*** Psi4 exiting successfully. Buy a developer a beer!
