                               Psi4 1.3.2 release

  ==> Input File <==

--------------------------------------------------------------------------
#psi4
#
memory 32 gb

molecule  {
0 1
  N        0.9996340     1.7721850     0.3204360
  N       -1.4856460     0.8456190    -0.6184330
  C        0.4210120    -0.5622280    -0.0768460
  C        1.3959190     0.4607190     0.0923330
  C       -1.0315900    -0.2881510    -0.0320430
  C        0.8423560    -1.8835050    -0.2823050
  C        2.7530010     0.0889630     0.1086070
  C        2.1912380    -2.2332610    -0.2798300
  C        3.1442100    -1.2359490    -0.0781950
  C       -1.9697939    -1.2544074     0.6404036
  C       -3.2772020    -0.9437210     0.5761060
  C        1.9752090     2.8430570     0.2492220
  C       -2.8095250     1.0776250    -0.6159580
  C       -3.7438200     0.2120800    -0.0497060
  H        0.0898220    -2.6479260    -0.4670950
  H        3.5165330     0.8472870     0.2502520
  H        0.1131400     1.9772450    -0.1334260
  H        2.4918570    -3.2637390    -0.4496120
  H        4.2036760    -1.4834020    -0.0698800
  H       -1.5082140    -2.0621420     1.1053590
  H       -3.9675240    -1.6332930     1.0562410
  H        2.5505250     2.8512150    -0.6889090
  H        2.6804910     2.7762290     1.0829750
  H        1.4421210     3.7916170     0.3400310
  H       -3.1269050     2.0013970    -1.0972120
  H       -4.8034740     0.4484120    -0.0854480
units angstrom
no_reorient  #important for SAPT in psi4, default
symmetry c1  #important for SAPT in psi4, default
}

set PROPERTIES_ORIGIN ["COM"]
properties('MP2/aug-cc-pvtz', properties = ['dipole'])
--------------------------------------------------------------------------

    Molecular point group: c1
  Charge       = 0
  Multiplicity = 1
  Basis Set: AUG-CC-PVTZ
    Blend: AUG-CC-PVTZ
  Basis Set: (AUG-CC-PVTZ AUX)
    Blend: AUG-CC-PVTZ-JKFIT

    Orbital Energies [Eh]
    ---------------------

    Doubly Occupied:

       1A    -15.568330     2A    -15.551931     3A    -11.302190
       4A    -11.281452     5A    -11.279220     6A    -11.255217
       7A    -11.249722     8A    -11.242784     9A    -11.240107
      10A    -11.239804    11A    -11.238272    12A    -11.235609
      13A    -11.221820    14A    -11.220279    15A     -1.260114
      16A     -1.229651    17A     -1.133984    18A     -1.093719
      19A     -1.055863    20A     -1.000668    21A     -0.992017
      22A     -0.916976    23A     -0.876322    24A     -0.852486
      25A     -0.805613    26A     -0.796424    27A     -0.719286
      28A     -0.700780    29A     -0.675124    30A     -0.660587
      31A     -0.652024    32A     -0.618996    33A     -0.609633
      34A     -0.603067    35A     -0.591325    36A     -0.572634
      37A     -0.564242    38A     -0.546663    39A     -0.541195
      40A     -0.530457    41A     -0.505631    42A     -0.500021
      43A     -0.491659    44A     -0.422604    45A     -0.412472
      46A     -0.395620    47A     -0.362814    48A     -0.315587
      49A     -0.280094

  @DF-RHF Final Energy:  -570.47879800712508

   => Energetics <=

    Nuclear Repulsion Energy =            816.9519091431089919
    One-Electron Energy =               -2394.0352372816741990
    Two-Electron Energy =                1006.6045301314402423
    Total Energy =                       -570.4787980071250786
  Basis Set: (AUG-CC-PVTZ AUX)
    Blend: AUG-CC-PVTZ-RI
    Molecular point group: c1

    Geometry (in Angstrom), charge = 0, multiplicity = 1:

       Center              X                  Y                   Z               Mass
    ------------   -----------------  -----------------  -----------------  -----------------
         N            1.023548348188     1.795742543238     0.322073893009    14.003074004430
         N           -1.461731651812     0.869176543238    -0.616795106991    14.003074004430
         C            0.444926348188    -0.538670456762    -0.075208106991    12.000000000000
         C            1.419833348188     0.484276543238     0.093970893009    12.000000000000
         C           -1.007675651812    -0.264593456762    -0.030405106991    12.000000000000
         C            0.866270348188    -1.859947456762    -0.280667106991    12.000000000000
         C            2.776915348188     0.112520543238     0.110244893009    12.000000000000
         C            2.215152348188    -2.209703456762    -0.278192106991    12.000000000000
         C            3.168124348188    -1.212391456762    -0.076557106991    12.000000000000
         C           -1.945879551812    -1.230849856762     0.642041493009    12.000000000000
         C           -3.253287651812    -0.920163456762     0.577743893009    12.000000000000
         C            1.999123348188     2.866614543238     0.250859893009    12.000000000000
         C           -2.785610651812     1.101182543238    -0.614320106991    12.000000000000
         C           -3.719905651812     0.235637543238    -0.048068106991    12.000000000000
         H            0.113736348188    -2.624368456762    -0.465457106991     1.007825032230
         H            3.540447348188     0.870844543238     0.251889893009     1.007825032230
         H            0.137054348188     2.000802543238    -0.131788106991     1.007825032230
         H            2.515771348188    -3.240181456762    -0.447974106991     1.007825032230
         H            4.227590348188    -1.459844456762    -0.068242106991     1.007825032230
         H           -1.484299651812    -2.038584456762     1.106996893009     1.007825032230
         H           -3.943609651812    -1.609735456762     1.057878893009     1.007825032230
         H            2.574439348188     2.874772543238    -0.687271106991     1.007825032230
         H            2.704405348188     2.799786543238     1.084612893009     1.007825032230
         H            1.466035348188     3.815174543238     0.341668893009     1.007825032230
         H           -3.102990651812     2.024954543238    -1.095574106991     1.007825032230
         H           -4.779559651812     0.471969543238    -0.083810106991     1.007825032230

  Basis Set: AUG-CC-PVTZ
    Blend: AUG-CC-PVTZ
  Basis Set: (AUG-CC-PVTZ AUX)
    Blend: AUG-CC-PVTZ-JKFIT
	 Reference Energy          =    -570.4787980071250786 [Eh]
	 Singles Energy            =      -0.0000000000000000 [Eh]
	 Same-Spin Energy          =      -0.6391126686012244 [Eh]
	 Opposite-Spin Energy      =      -1.9766824029749714 [Eh]
	 Correlation Energy        =      -2.6157950715761960 [Eh]
	 Total Energy              =    -573.0945930787012230 [Eh]

	 ================> DF-SCS-MP2 Energies <==================
	-----------------------------------------------------------
	 SCS Same-Spin Scale       =       0.3333333333333333 [-]
	 SCS Opposite-Spin Scale   =       1.2000000000000000 [-]
	 SCS Same-Spin Energy      =      -0.2130375562004081 [Eh]
	 SCS Opposite-Spin Energy  =      -2.3720188835699658 [Eh]
	 SCS Correlation Energy    =      -2.5850564397703741 [Eh]
	 SCS Total Energy          =    -573.0638544468954478 [Eh]
	-----------------------------------------------------------

  Dipole Moment: [D]
     X:    -1.5746      Y:     0.1637      Z:     0.3551     Total:     1.6224

*** Psi4 exiting successfully. Buy a developer a beer!
