                               Psi4 1.3.2 release

  ==> Input File <==

--------------------------------------------------------------------------
#psi4
#
memory 32 gb

molecule  {
0 1
  N        1.0934537     1.7963405     0.3239489
  N       -1.4856460     0.8456190    -0.6184330
  C        0.4210120    -0.5622280    -0.0768460
  C        1.3959190     0.4607190     0.0923330
  C       -1.0315900    -0.2881510    -0.0320430
  C        0.8423560    -1.8835050    -0.2823050
  C        2.7530010     0.0889630     0.1086070
  C        2.1912380    -2.2332610    -0.2798300
  C        3.1442100    -1.2359490    -0.0781950
  C       -1.9074690    -1.1902190     0.5957330
  C       -3.2772020    -0.9437210     0.5761060
  C        1.9752090     2.8430570     0.2492220
  C       -2.8095250     1.0776250    -0.6159580
  C       -3.7438200     0.2120800    -0.0497060
  H        0.0898220    -2.6479260    -0.4670950
  H        3.5165330     0.8472870     0.2502520
  H        0.1131400     1.9772450    -0.1334260
  H        2.4918570    -3.2637390    -0.4496120
  H        4.2036760    -1.4834020    -0.0698800
  H       -1.5082140    -2.0621420     1.1053590
  H       -3.9675240    -1.6332930     1.0562410
  H        2.5505250     2.8512150    -0.6889090
  H        2.6804910     2.7762290     1.0829750
  H        1.4421210     3.7916170     0.3400310
  H       -3.1269050     2.0013970    -1.0972120
  H       -4.8034740     0.4484120    -0.0854480
units angstrom
no_reorient  #important for SAPT in psi4, default
symmetry c1  #important for SAPT in psi4, default
}

set PROPERTIES_ORIGIN ["COM"]
properties('MP2/aug-cc-pvtz', properties = ['dipole'])
--------------------------------------------------------------------------

    Molecular point group: c1
  Charge       = 0
  Multiplicity = 1
  Basis Set: AUG-CC-PVTZ
    Blend: AUG-CC-PVTZ
  Basis Set: (AUG-CC-PVTZ AUX)
    Blend: AUG-CC-PVTZ-JKFIT

    Orbital Energies [Eh]
    ---------------------

    Doubly Occupied:

       1A    -15.570777     2A    -15.551775     3A    -11.291516
       4A    -11.282918     5A    -11.280740     6A    -11.264560
       7A    -11.243518     8A    -11.242561     9A    -11.242520
      10A    -11.238782    11A    -11.235493    12A    -11.235468
      13A    -11.218437    14A    -11.218191    15A     -1.264800
      16A     -1.238054    17A     -1.135751    18A     -1.090283
      19A     -1.061483    20A     -1.004237    21A     -0.994782
      22A     -0.911315    23A     -0.871404    24A     -0.860803
      25A     -0.807423    26A     -0.790913    27A     -0.721027
      28A     -0.694182    29A     -0.673322    30A     -0.658927
      31A     -0.653601    32A     -0.624948    33A     -0.615563
      34A     -0.603551    35A     -0.591410    36A     -0.581367
      37A     -0.575178    38A     -0.550028    39A     -0.533947
      40A     -0.520236    41A     -0.503562    42A     -0.496982
      43A     -0.486317    44A     -0.420244    45A     -0.411856
      46A     -0.389518    47A     -0.368373    48A     -0.317728
      49A     -0.277483

  @DF-RHF Final Energy:  -570.47617521658970

   => Energetics <=

    Nuclear Repulsion Energy =            818.5055080871753717
    One-Electron Energy =               -2397.1276565509247121
    Two-Electron Energy =                1008.1459732471597590
    Total Energy =                       -570.4761752165896951
  Basis Set: (AUG-CC-PVTZ AUX)
    Blend: AUG-CC-PVTZ-RI
    Molecular point group: c1

    Geometry (in Angstrom), charge = 0, multiplicity = 1:

       Center              X                  Y                   Z               Mass
    ------------   -----------------  -----------------  -----------------  -----------------
         N            1.106169447101     1.813876795206     0.328231310518    14.003074004430
         N           -1.472930252899     0.863155295206    -0.614150589482    14.003074004430
         C            0.433727747101    -0.544691704794    -0.072563589482    12.000000000000
         C            1.408634747101     0.478255295206     0.096615410518    12.000000000000
         C           -1.018874252899    -0.270614704794    -0.027760589482    12.000000000000
         C            0.855071747101    -1.865968704794    -0.278022589482    12.000000000000
         C            2.765716747101     0.106499295206     0.112889410518    12.000000000000
         C            2.203953747101    -2.215724704794    -0.275547589482    12.000000000000
         C            3.156925747101    -1.218412704794    -0.073912589482    12.000000000000
         C           -1.894753252899    -1.172682704794     0.600015410518    12.000000000000
         C           -3.264486252899    -0.926184704794     0.580388410518    12.000000000000
         C            1.987924747101     2.860593295206     0.253504410518    12.000000000000
         C           -2.796809252899     1.095161295206    -0.611675589482    12.000000000000
         C           -3.731104252899     0.229616295206    -0.045423589482    12.000000000000
         H            0.102537747101    -2.630389704794    -0.462812589482     1.007825032230
         H            3.529248747101     0.864823295206     0.254534410518     1.007825032230
         H            0.125855747101     1.994781295206    -0.129143589482     1.007825032230
         H            2.504572747101    -3.246202704794    -0.445329589482     1.007825032230
         H            4.216391747101    -1.465865704794    -0.065597589482     1.007825032230
         H           -1.495498252899    -2.044605704794     1.109641410518     1.007825032230
         H           -3.954808252899    -1.615756704794     1.060523410518     1.007825032230
         H            2.563240747101     2.868751295206    -0.684626589482     1.007825032230
         H            2.693206747101     2.793765295206     1.087257410518     1.007825032230
         H            1.454836747101     3.809153295206     0.344313410518     1.007825032230
         H           -3.114189252899     2.018933295206    -1.092929589482     1.007825032230
         H           -4.790758252899     0.465948295206    -0.081165589482     1.007825032230

  Basis Set: AUG-CC-PVTZ
    Blend: AUG-CC-PVTZ
  Basis Set: (AUG-CC-PVTZ AUX)
    Blend: AUG-CC-PVTZ-JKFIT
	 Reference Energy          =    -570.4761752165896951 [Eh]
	 Singles Energy            =      -0.0000000000000000 [Eh]
	 Same-Spin Energy          =      -0.6406524838696136 [Eh]
	 Opposite-Spin Energy      =      -1.9777405694038745 [Eh]
	 Correlation Energy        =      -2.6183930532734880 [Eh]
	 Total Energy              =    -573.0945682698632027 [Eh]

	 ================> DF-SCS-MP2 Energies <==================
	-----------------------------------------------------------
	 SCS Same-Spin Scale       =       0.3333333333333333 [-]
	 SCS Opposite-Spin Scale   =       1.2000000000000000 [-]
	 SCS Same-Spin Energy      =      -0.2135508279565378 [Eh]
	 SCS Opposite-Spin Energy  =      -2.3732886832846494 [Eh]
	 SCS Correlation Energy    =      -2.5868395112411871 [Eh]
	 SCS Total Energy          =    -573.0630147278309323 [Eh]
	-----------------------------------------------------------

  Dipole Moment: [D]
     X:    -2.0141      Y:     0.0718      Z:     0.3974     Total:     2.0542

*** Psi4 exiting successfully. Buy a developer a beer!
