                               Psi4 1.3.2 release

  ==> Input File <==

--------------------------------------------------------------------------
#psi4
#
memory 32 gb

molecule  {
0 1
  S        0.7163710     0.8062280    -0.0057410
  O       -0.7612550    -1.3859280     0.0083390
  C       -2.0513866     0.6587337    -0.0931974
  C        1.9223760    -0.5510590    -0.0015950
  C       -0.7788880    -0.1628700     0.0040570
  C       -3.2947410    -0.2161080     0.0056640
  C        3.3341240     0.0170930    -0.0107850
  H       -2.0279500     1.3158130     0.8843350
  H       -2.0299060     1.3210850    -0.8667760
  H        1.7458030    -1.1645560     0.8835850
  H        1.7388000    -1.1758340    -0.8774310
  H       -3.3141610    -0.8622160     0.8846490
  H       -3.3163930    -0.8568630    -0.8772710
  H       -4.1940350     0.4043620     0.0085730
  H        3.5120120     0.6248690    -0.9008780
  H        3.5189980     0.6365110     0.8698160
  H        4.0585630    -0.8014520    -0.0081370
units angstrom
no_reorient  #important for SAPT in psi4, default
symmetry c1  #important for SAPT in psi4, default
}

set PROPERTIES_ORIGIN ["COM"]
properties('MP2/aug-cc-pvtz', properties = ['dipole'])
--------------------------------------------------------------------------

    Molecular point group: c1
  Charge       = 0
  Multiplicity = 1
  Basis Set: AUG-CC-PVTZ
    Blend: AUG-CC-PVTZ
  Basis Set: (AUG-CC-PVTZ AUX)
    Blend: AUG-CC-PVTZ-JKFIT

    Orbital Energies [Eh]
    ---------------------

    Doubly Occupied:

       1A    -91.965504     2A    -20.553826     3A    -11.360557
       4A    -11.261277     5A    -11.249049     6A    -11.230077
       7A    -11.221994     8A     -8.967314     9A     -6.648508
      10A     -6.647393    11A     -6.646732    12A     -1.390242
      13A     -1.087555    14A     -1.061324    15A     -0.976984
      16A     -0.891378    17A     -0.822590    18A     -0.731183
      19A     -0.661415    20A     -0.641303    21A     -0.633424
      22A     -0.624501    23A     -0.561977    24A     -0.553093
      25A     -0.540441    26A     -0.530397    27A     -0.517885
      28A     -0.507943    29A     -0.480911    30A     -0.459600
      31A     -0.406153    32A     -0.366863

  @DF-RHF Final Energy:  -667.67027775907331

   => Energetics <=

    Nuclear Repulsion Energy =            369.5285910128588398
    One-Electron Energy =               -1649.9989523384524546
    Two-Electron Energy =                 612.8000835665202430
    Total Energy =                       -667.6702777590733149
  Basis Set: (AUG-CC-PVTZ AUX)
    Blend: AUG-CC-PVTZ-RI
    Molecular point group: c1

    Geometry (in Angstrom), charge = 0, multiplicity = 1:

       Center              X                  Y                   Z               Mass
    ------------   -----------------  -----------------  -----------------  -----------------
         S            0.716415157176     0.806263530421     0.004424410045    31.972071174400
         O           -0.761210842824    -1.385892469579     0.018504410045    15.994914619570
         C           -2.051342442824     0.658769230421    -0.083031989955    12.000000000000
         C            1.922420157176    -0.551023469579     0.008570410045    12.000000000000
         C           -0.778843842824    -0.162834469579     0.014222410045    12.000000000000
         C           -3.294696842824    -0.216072469579     0.015829410045    12.000000000000
         C            3.334168157176     0.017128530421    -0.000619589955    12.000000000000
         H           -2.027905842824     1.315848530421     0.894500410045     1.007825032230
         H           -2.029861842824     1.321120530421    -0.856610589955     1.007825032230
         H            1.745847157176    -1.164520469579     0.893750410045     1.007825032230
         H            1.738844157176    -1.175798469579    -0.867265589955     1.007825032230
         H           -3.314116842824    -0.862180469579     0.894814410045     1.007825032230
         H           -3.316348842824    -0.856827469579    -0.867105589955     1.007825032230
         H           -4.193990842824     0.404397530421     0.018738410045     1.007825032230
         H            3.512056157176     0.624904530421    -0.890712589955     1.007825032230
         H            3.519042157176     0.636546530421     0.879981410045     1.007825032230
         H            4.058607157176    -0.801416469579     0.002028410045     1.007825032230

  Basis Set: AUG-CC-PVTZ
    Blend: AUG-CC-PVTZ
  Basis Set: (AUG-CC-PVTZ AUX)
    Blend: AUG-CC-PVTZ-JKFIT
	 Reference Energy          =    -667.6702777590733149 [Eh]
	 Singles Energy            =      -0.0000000000000000 [Eh]
	 Same-Spin Energy          =      -0.3337461604847669 [Eh]
	 Opposite-Spin Energy      =      -1.1081372911989082 [Eh]
	 Correlation Energy        =      -1.4418834516836752 [Eh]
	 Total Energy              =    -669.1121612107569945 [Eh]

	 ================> DF-SCS-MP2 Energies <==================
	-----------------------------------------------------------
	 SCS Same-Spin Scale       =       0.3333333333333333 [-]
	 SCS Opposite-Spin Scale   =       1.2000000000000000 [-]
	 SCS Same-Spin Energy      =      -0.1112487201615890 [Eh]
	 SCS Opposite-Spin Energy  =      -1.3297647494386899 [Eh]
	 SCS Correlation Energy    =      -1.4410134696002790 [Eh]
	 SCS Total Energy          =    -669.1112912286736218 [Eh]
	-----------------------------------------------------------

  Dipole Moment: [D]
     X:     0.3423      Y:     1.0489      Z:    -0.0520     Total:     1.1046

*** Psi4 exiting successfully. Buy a developer a beer!
