                               Psi4 1.3.2 release

  ==> Input File <==

--------------------------------------------------------------------------
#psi4
#
memory 32 gb

molecule  {
0 1
  S        0.7163710     0.8062280    -0.0057410
  O       -0.7612550    -1.3859280     0.0083390
  C       -2.0522559     0.6580351    -0.2931943
  C        1.9223760    -0.5510590    -0.0015950
  C       -0.7788880    -0.1628700     0.0040570
  C       -3.2947410    -0.2161080     0.0056640
  C        3.3341240     0.0170930    -0.0107850
  H       -2.0279500     1.3158130     0.8843350
  H       -2.0299060     1.3210850    -0.8667760
  H        1.7458030    -1.1645560     0.8835850
  H        1.7388000    -1.1758340    -0.8774310
  H       -3.3141610    -0.8622160     0.8846490
  H       -3.3163930    -0.8568630    -0.8772710
  H       -4.1940350     0.4043620     0.0085730
  H        3.5120120     0.6248690    -0.9008780
  H        3.5189980     0.6365110     0.8698160
  H        4.0585630    -0.8014520    -0.0081370
units angstrom
no_reorient  #important for SAPT in psi4, default
symmetry c1  #important for SAPT in psi4, default
}

set PROPERTIES_ORIGIN ["COM"]
properties('MP2/aug-cc-pvtz', properties = ['dipole'])
--------------------------------------------------------------------------

    Molecular point group: c1
  Charge       = 0
  Multiplicity = 1
  Basis Set: AUG-CC-PVTZ
    Blend: AUG-CC-PVTZ
  Basis Set: (AUG-CC-PVTZ AUX)
    Blend: AUG-CC-PVTZ-JKFIT

    Orbital Energies [Eh]
    ---------------------

    Doubly Occupied:

       1A    -91.965749     2A    -20.554547     3A    -11.366192
       4A    -11.261075     5A    -11.258735     6A    -11.230022
       7A    -11.228643     8A     -8.967488     9A     -6.648665
      10A     -6.647547    11A     -6.646872    12A     -1.391074
      13A     -1.087590    14A     -1.062262    15A     -0.976637
      16A     -0.896696    17A     -0.830213    18A     -0.751704
      19A     -0.669427    20A     -0.639567    21A     -0.634074
      22A     -0.607362    23A     -0.572530    24A     -0.559504
      25A     -0.546932    26A     -0.538117    27A     -0.517578
      28A     -0.506691    29A     -0.458598    30A     -0.436586
      31A     -0.405553    32A     -0.365502

  @DF-RHF Final Energy:  -667.58545632986170

   => Energetics <=

    Nuclear Repulsion Energy =            369.0690027304859768
    One-Electron Energy =               -1648.8494565754083396
    Two-Electron Energy =                 612.1949975150605496
    Total Energy =                       -667.5854563298616995
  Basis Set: (AUG-CC-PVTZ AUX)
    Blend: AUG-CC-PVTZ-RI
    Molecular point group: c1

    Geometry (in Angstrom), charge = 0, multiplicity = 1:

       Center              X                  Y                   Z               Mass
    ------------   -----------------  -----------------  -----------------  -----------------
         S            0.716503526689     0.806334547264     0.024755283860    31.972071174400
         O           -0.761122473311    -1.385821452736     0.038835283860    15.994914619570
         C           -2.052123373311     0.658141647264    -0.262698016140    12.000000000000
         C            1.922508526689    -0.550952452736     0.028901283860    12.000000000000
         C           -0.778755473311    -0.162763452736     0.034553283860    12.000000000000
         C           -3.294608473311    -0.216001452736     0.036160283860    12.000000000000
         C            3.334256526689     0.017199547264     0.019711283860    12.000000000000
         H           -2.027817473311     1.315919547264     0.914831283860     1.007825032230
         H           -2.029773473311     1.321191547264    -0.836279716140     1.007825032230
         H            1.745935526689    -1.164449452736     0.914081283860     1.007825032230
         H            1.738932526689    -1.175727452736    -0.846934716140     1.007825032230
         H           -3.314028473311    -0.862109452736     0.915145283860     1.007825032230
         H           -3.316260473311    -0.856756452736    -0.846774716140     1.007825032230
         H           -4.193902473311     0.404468547264     0.039069283860     1.007825032230
         H            3.512144526689     0.624975547264    -0.870381716140     1.007825032230
         H            3.519130526689     0.636617547264     0.900312283860     1.007825032230
         H            4.058695526689    -0.801345452736     0.022359283860     1.007825032230

  Basis Set: AUG-CC-PVTZ
    Blend: AUG-CC-PVTZ
  Basis Set: (AUG-CC-PVTZ AUX)
    Blend: AUG-CC-PVTZ-JKFIT
	 Reference Energy          =    -667.5854563298616995 [Eh]
	 Singles Energy            =      -0.0000000000000000 [Eh]
	 Same-Spin Energy          =      -0.3348144342148437 [Eh]
	 Opposite-Spin Energy      =      -1.1122731698848676 [Eh]
	 Correlation Energy        =      -1.4470876040997114 [Eh]
	 Total Energy              =    -669.0325439339613922 [Eh]

	 ================> DF-SCS-MP2 Energies <==================
	-----------------------------------------------------------
	 SCS Same-Spin Scale       =       0.3333333333333333 [-]
	 SCS Opposite-Spin Scale   =       1.2000000000000000 [-]
	 SCS Same-Spin Energy      =      -0.1116048114049479 [Eh]
	 SCS Opposite-Spin Energy  =      -1.3347278038618411 [Eh]
	 SCS Correlation Energy    =      -1.4463326152667890 [Eh]
	 SCS Total Energy          =    -669.0317889451284827 [Eh]
	-----------------------------------------------------------

  Dipole Moment: [D]
     X:     0.2985      Y:     0.9642      Z:    -0.1429     Total:     1.0195

*** Psi4 exiting successfully. Buy a developer a beer!
