                               Psi4 1.3.2 release

  ==> Input File <==

--------------------------------------------------------------------------
#psi4
#
memory 32 gb

molecule  {
0 1
  S        0.7163710     0.8062280    -0.0057410
  O       -0.7612550    -1.3859280     0.0083390
  C       -2.0520386     0.6582097    -0.2431951
  C        1.9223760    -0.5510590    -0.0015950
  C       -0.7788880    -0.1628700     0.0040570
  C       -3.2947410    -0.2161080     0.0056640
  C        3.3341240     0.0170930    -0.0107850
  H       -2.0279500     1.3158130     0.8843350
  H       -2.0299060     1.3210850    -0.8667760
  H        1.7458030    -1.1645560     0.8835850
  H        1.7388000    -1.1758340    -0.8774310
  H       -3.3141610    -0.8622160     0.8846490
  H       -3.3163930    -0.8568630    -0.8772710
  H       -4.1940350     0.4043620     0.0085730
  H        3.5120120     0.6248690    -0.9008780
  H        3.5189980     0.6365110     0.8698160
  H        4.0585630    -0.8014520    -0.0081370
units angstrom
no_reorient  #important for SAPT in psi4, default
symmetry c1  #important for SAPT in psi4, default
}

set PROPERTIES_ORIGIN ["COM"]
properties('MP2/aug-cc-pvtz', properties = ['dipole'])
--------------------------------------------------------------------------

    Molecular point group: c1
  Charge       = 0
  Multiplicity = 1
  Basis Set: AUG-CC-PVTZ
    Blend: AUG-CC-PVTZ
  Basis Set: (AUG-CC-PVTZ AUX)
    Blend: AUG-CC-PVTZ-JKFIT

    Orbital Energies [Eh]
    ---------------------

    Doubly Occupied:

       1A    -91.965666     2A    -20.554303     3A    -11.364308
       4A    -11.261144     5A    -11.255446     6A    -11.230041
       7A    -11.226425     8A     -8.967430     9A     -6.648612
      10A     -6.647495    11A     -6.646825    12A     -1.390799
      13A     -1.087571    14A     -1.061915    15A     -0.976761
      16A     -0.894596    17A     -0.827568    18A     -0.746199
      19A     -0.667896    20A     -0.639871    21A     -0.634032
      22A     -0.611792    23A     -0.567898    24A     -0.558892
      25A     -0.544434    26A     -0.538801    27A     -0.517970
      28A     -0.506976    29A     -0.459176    30A     -0.447499
      31A     -0.405783    32A     -0.366011

  @DF-RHF Final Energy:  -667.61480593445822

   => Energetics <=

    Nuclear Repulsion Energy =            369.2268719426396046
    One-Electron Energy =               -1649.2430888490607686
    Two-Electron Energy =                 612.4014109719628323
    Total Energy =                       -667.6148059344582180
  Basis Set: (AUG-CC-PVTZ AUX)
    Blend: AUG-CC-PVTZ-RI
    Molecular point group: c1

    Geometry (in Angstrom), charge = 0, multiplicity = 1:

       Center              X                  Y                   Z               Mass
    ------------   -----------------  -----------------  -----------------  -----------------
         S            0.716481436852     0.806316798136     0.019672567948    31.972071174400
         O           -0.761144563148    -1.385839201864     0.033752567948    15.994914619570
         C           -2.051928163148     0.658298498136    -0.217781532052    12.000000000000
         C            1.922486436852    -0.550970201864     0.023818567948    12.000000000000
         C           -0.778777563148    -0.162781201864     0.029470567948    12.000000000000
         C           -3.294630563148    -0.216019201864     0.031077567948    12.000000000000
         C            3.334234436852     0.017181798136     0.014628567948    12.000000000000
         H           -2.027839563148     1.315901798136     0.909748567948     1.007825032230
         H           -2.029795563148     1.321173798136    -0.841362432052     1.007825032230
         H            1.745913436852    -1.164467201864     0.908998567948     1.007825032230
         H            1.738910436852    -1.175745201864    -0.852017432052     1.007825032230
         H           -3.314050563148    -0.862127201864     0.910062567948     1.007825032230
         H           -3.316282563148    -0.856774201864    -0.851857432052     1.007825032230
         H           -4.193924563148     0.404450798136     0.033986567948     1.007825032230
         H            3.512122436852     0.624957798136    -0.875464432052     1.007825032230
         H            3.519108436852     0.636599798136     0.895229567948     1.007825032230
         H            4.058673436852    -0.801363201864     0.017276567948     1.007825032230

  Basis Set: AUG-CC-PVTZ
    Blend: AUG-CC-PVTZ
  Basis Set: (AUG-CC-PVTZ AUX)
    Blend: AUG-CC-PVTZ-JKFIT
	 Reference Energy          =    -667.6148059344582180 [Eh]
	 Singles Energy            =      -0.0000000000000000 [Eh]
	 Same-Spin Energy          =      -0.3344394026661865 [Eh]
	 Opposite-Spin Energy      =      -1.1108415093613684 [Eh]
	 Correlation Energy        =      -1.4452809120275549 [Eh]
	 Total Energy              =    -669.0600868464857740 [Eh]

	 ================> DF-SCS-MP2 Energies <==================
	-----------------------------------------------------------
	 SCS Same-Spin Scale       =       0.3333333333333333 [-]
	 SCS Opposite-Spin Scale   =       1.2000000000000000 [-]
	 SCS Same-Spin Energy      =      -0.1114798008887288 [Eh]
	 SCS Opposite-Spin Energy  =      -1.3330098112336419 [Eh]
	 SCS Correlation Energy    =      -1.4444896121223707 [Eh]
	 SCS Total Energy          =    -669.0592955465806426 [Eh]
	-----------------------------------------------------------

  Dipole Moment: [D]
     X:     0.3124      Y:     0.9904      Z:    -0.1233     Total:     1.0458

*** Psi4 exiting successfully. Buy a developer a beer!
