                               Psi4 1.3.2 release

  ==> Input File <==

--------------------------------------------------------------------------
#psi4
#
memory 32 gb

molecule  {
0 1
  S        0.7163710     0.8062280    -0.0057410
  O       -0.7612550    -1.3859280     0.0083390
  C       -2.0518213     0.6583844    -0.1931959
  C        1.9223760    -0.5510590    -0.0015950
  C       -0.7788880    -0.1628700     0.0040570
  C       -3.2947410    -0.2161080     0.0056640
  C        3.3341240     0.0170930    -0.0107850
  H       -2.0279500     1.3158130     0.8843350
  H       -2.0299060     1.3210850    -0.8667760
  H        1.7458030    -1.1645560     0.8835850
  H        1.7388000    -1.1758340    -0.8774310
  H       -3.3141610    -0.8622160     0.8846490
  H       -3.3163930    -0.8568630    -0.8772710
  H       -4.1940350     0.4043620     0.0085730
  H        3.5120120     0.6248690    -0.9008780
  H        3.5189980     0.6365110     0.8698160
  H        4.0585630    -0.8014520    -0.0081370
units angstrom
no_reorient  #important for SAPT in psi4, default
symmetry c1  #important for SAPT in psi4, default
}

set PROPERTIES_ORIGIN ["COM"]
properties('MP2/aug-cc-pvtz', properties = ['dipole'])
--------------------------------------------------------------------------

    Molecular point group: c1
  Charge       = 0
  Multiplicity = 1
  Basis Set: AUG-CC-PVTZ
    Blend: AUG-CC-PVTZ
  Basis Set: (AUG-CC-PVTZ AUX)
    Blend: AUG-CC-PVTZ-JKFIT

    Orbital Energies [Eh]
    ---------------------

    Doubly Occupied:

       1A    -91.965597     2A    -20.554099     3A    -11.362725
       4A    -11.261201     5A    -11.252722     6A    -11.230056
       7A    -11.224556     8A     -8.967381     9A     -6.648567
      10A     -6.647452    11A     -6.646786    12A     -1.390565
      13A     -1.087561    14A     -1.061652    15A     -0.976860
      16A     -0.893085    17A     -0.825387    18A     -0.740545
      19A     -0.666000    20A     -0.640231    21A     -0.633933
      22A     -0.616286    23A     -0.564361    24A     -0.557466
      25A     -0.541020    26A     -0.539429    27A     -0.518232
      28A     -0.507237    29A     -0.460919    30A     -0.457375
      31A     -0.405950    32A     -0.366394

  @DF-RHF Final Energy:  -667.63869932832245

   => Energetics <=

    Nuclear Repulsion Energy =            369.3563064459086149
    One-Electron Energy =               -1649.5667550297589514
    Two-Electron Energy =                 612.5717492555279478
    Total Energy =                       -667.6386993283224456
  Basis Set: (AUG-CC-PVTZ AUX)
    Blend: AUG-CC-PVTZ-RI
    Molecular point group: c1

    Geometry (in Angstrom), charge = 0, multiplicity = 1:

       Center              X                  Y                   Z               Mass
    ------------   -----------------  -----------------  -----------------  -----------------
         S            0.716459347016     0.806299038842     0.014589852035    31.972071174400
         O           -0.761166652984    -1.385856961158     0.028669852035    15.994914619570
         C           -2.051732952984     0.658455438842    -0.172865047965    12.000000000000
         C            1.922464347016    -0.550987961158     0.018735852035    12.000000000000
         C           -0.778799652984    -0.162798961158     0.024387852035    12.000000000000
         C           -3.294652652984    -0.216036961158     0.025994852035    12.000000000000
         C            3.334212347016     0.017164038842     0.009545852035    12.000000000000
         H           -2.027861652984     1.315884038842     0.904665852035     1.007825032230
         H           -2.029817652984     1.321156038842    -0.846445147965     1.007825032230
         H            1.745891347016    -1.164484961158     0.903915852035     1.007825032230
         H            1.738888347016    -1.175762961158    -0.857100147965     1.007825032230
         H           -3.314072652984    -0.862144961158     0.904979852035     1.007825032230
         H           -3.316304652984    -0.856791961158    -0.856940147965     1.007825032230
         H           -4.193946652984     0.404433038842     0.028903852035     1.007825032230
         H            3.512100347016     0.624940038842    -0.880547147965     1.007825032230
         H            3.519086347016     0.636582038842     0.890146852035     1.007825032230
         H            4.058651347016    -0.801380961158     0.012193852035     1.007825032230

  Basis Set: AUG-CC-PVTZ
    Blend: AUG-CC-PVTZ
  Basis Set: (AUG-CC-PVTZ AUX)
    Blend: AUG-CC-PVTZ-JKFIT
	 Reference Energy          =    -667.6386993283224456 [Eh]
	 Singles Energy            =      -0.0000000000000000 [Eh]
	 Same-Spin Energy          =      -0.3341386514348067 [Eh]
	 Opposite-Spin Energy      =      -1.1096741805004018 [Eh]
	 Correlation Energy        =      -1.4438128319352086 [Eh]
	 Total Energy              =    -669.0825121602576928 [Eh]

	 ================> DF-SCS-MP2 Energies <==================
	-----------------------------------------------------------
	 SCS Same-Spin Scale       =       0.3333333333333333 [-]
	 SCS Opposite-Spin Scale   =       1.2000000000000000 [-]
	 SCS Same-Spin Energy      =      -0.1113795504782689 [Eh]
	 SCS Opposite-Spin Energy  =      -1.3316090166004821 [Eh]
	 SCS Correlation Energy    =      -1.4429885670787510 [Eh]
	 SCS Total Energy          =    -669.0816878954011599 [Eh]
	-----------------------------------------------------------

  Dipole Moment: [D]
     X:     0.3247      Y:     1.0141      Z:    -0.1010     Total:     1.0696

*** Psi4 exiting successfully. Buy a developer a beer!
