                               Psi4 1.3.2 release

  ==> Input File <==

--------------------------------------------------------------------------
#psi4
#
memory 32 gb

molecule  {
0 1
  S        0.7163710     0.8062280    -0.0057410
  O       -0.7612550    -1.3859280     0.0083390
  C       -2.0511693     0.6589083    -0.0431982
  C        1.9223760    -0.5510590    -0.0015950
  C       -0.7788880    -0.1628700     0.0040570
  C       -3.2947410    -0.2161080     0.0056640
  C        3.3341240     0.0170930    -0.0107850
  H       -2.0279500     1.3158130     0.8843350
  H       -2.0299060     1.3210850    -0.8667760
  H        1.7458030    -1.1645560     0.8835850
  H        1.7388000    -1.1758340    -0.8774310
  H       -3.3141610    -0.8622160     0.8846490
  H       -3.3163930    -0.8568630    -0.8772710
  H       -4.1940350     0.4043620     0.0085730
  H        3.5120120     0.6248690    -0.9008780
  H        3.5189980     0.6365110     0.8698160
  H        4.0585630    -0.8014520    -0.0081370
units angstrom
no_reorient  #important for SAPT in psi4, default
symmetry c1  #important for SAPT in psi4, default
}

set PROPERTIES_ORIGIN ["COM"]
properties('MP2/aug-cc-pvtz', properties = ['dipole'])
--------------------------------------------------------------------------

    Molecular point group: c1
  Charge       = 0
  Multiplicity = 1
  Basis Set: AUG-CC-PVTZ
    Blend: AUG-CC-PVTZ
  Basis Set: (AUG-CC-PVTZ AUX)
    Blend: AUG-CC-PVTZ-JKFIT

    Orbital Energies [Eh]
    ---------------------

    Doubly Occupied:

       1A    -91.965482     2A    -20.553761     3A    -11.360004
       4A    -11.261296     5A    -11.248116     6A    -11.230083
       7A    -11.221346     8A     -8.967299     9A     -6.648493
      10A     -6.647379    11A     -6.646720    12A     -1.390161
      13A     -1.087554    14A     -1.061233    15A     -0.977008
      16A     -0.891006    17A     -0.821932    18A     -0.728505
      19A     -0.659408    20A     -0.641984    21A     -0.632955
      22A     -0.627410    23A     -0.561727    24A     -0.551815
      25A     -0.540744    26A     -0.525199    27A     -0.515975
      28A     -0.508954    29A     -0.489693    30A     -0.459756
      31A     -0.406201    32A     -0.366975

  @DF-RHF Final Energy:  -667.67811317836697

   => Energetics <=

    Nuclear Repulsion Energy =            369.5708403825399273
    One-Electron Energy =               -1650.1055623140039188
    Two-Electron Energy =                 612.8566087530970208
    Total Energy =                       -667.6781131783669707
  Basis Set: (AUG-CC-PVTZ AUX)
    Blend: AUG-CC-PVTZ-RI
    Molecular point group: c1

    Geometry (in Angstrom), charge = 0, multiplicity = 1:

       Center              X                  Y                   Z               Mass
    ------------   -----------------  -----------------  -----------------  -----------------
         S            0.716393067340     0.806245781293    -0.000658305868    31.972071174400
         O           -0.761232932660    -1.385910218707     0.013421694132    15.994914619570
         C           -2.051147232660     0.658926081293    -0.038115505868    12.000000000000
         C            1.922398067340    -0.551041218707     0.003487694132    12.000000000000
         C           -0.778865932660    -0.162852218707     0.009139694132    12.000000000000
         C           -3.294718932660    -0.216090218707     0.010746694132    12.000000000000
         C            3.334146067340     0.017110781293    -0.005702305868    12.000000000000
         H           -2.027927932660     1.315830781293     0.889417694132     1.007825032230
         H           -2.029883932660     1.321102781293    -0.861693305868     1.007825032230
         H            1.745825067340    -1.164538218707     0.888667694132     1.007825032230
         H            1.738822067340    -1.175816218707    -0.872348305868     1.007825032230
         H           -3.314138932660    -0.862198218707     0.889731694132     1.007825032230
         H           -3.316370932660    -0.856845218707    -0.872188305868     1.007825032230
         H           -4.194012932660     0.404379781293     0.013655694132     1.007825032230
         H            3.512034067340     0.624886781293    -0.895795305868     1.007825032230
         H            3.519020067340     0.636528781293     0.874898694132     1.007825032230
         H            4.058585067340    -0.801434218707    -0.003054305868     1.007825032230

  Basis Set: AUG-CC-PVTZ
    Blend: AUG-CC-PVTZ
  Basis Set: (AUG-CC-PVTZ AUX)
    Blend: AUG-CC-PVTZ-JKFIT
	 Reference Energy          =    -667.6781131783669707 [Eh]
	 Singles Energy            =      -0.0000000000000000 [Eh]
	 Same-Spin Energy          =      -0.3336488831812257 [Eh]
	 Opposite-Spin Energy      =      -1.1077590224813938 [Eh]
	 Correlation Energy        =      -1.4414079056626194 [Eh]
	 Total Energy              =    -669.1195210840295431 [Eh]

	 ================> DF-SCS-MP2 Energies <==================
	-----------------------------------------------------------
	 SCS Same-Spin Scale       =       0.3333333333333333 [-]
	 SCS Opposite-Spin Scale   =       1.2000000000000000 [-]
	 SCS Same-Spin Energy      =      -0.1112162943937419 [Eh]
	 SCS Opposite-Spin Energy  =      -1.3293108269776726 [Eh]
	 SCS Correlation Energy    =      -1.4405271213714144 [Eh]
	 SCS Total Energy          =    -669.1186402997383311 [Eh]
	-----------------------------------------------------------

  Dipole Moment: [D]
     X:     0.3471      Y:     1.0581      Z:    -0.0265     Total:     1.1139

*** Psi4 exiting successfully. Buy a developer a beer!
