                               Psi4 1.3.2 release

  ==> Input File <==

--------------------------------------------------------------------------
#psi4
#
memory 32 gb

molecule  {
0 1
  S        0.7163710     0.8062280    -0.0057410
  O       -0.7612550    -1.3859280     0.0083390
  C       -2.0516040     0.6585590    -0.1431967
  C        1.9223760    -0.5510590    -0.0015950
  C       -0.7788880    -0.1628700     0.0040570
  C       -3.2947410    -0.2161080     0.0056640
  C        3.3341240     0.0170930    -0.0107850
  H       -2.0279500     1.3158130     0.8843350
  H       -2.0299060     1.3210850    -0.8667760
  H        1.7458030    -1.1645560     0.8835850
  H        1.7388000    -1.1758340    -0.8774310
  H       -3.3141610    -0.8622160     0.8846490
  H       -3.3163930    -0.8568630    -0.8772710
  H       -4.1940350     0.4043620     0.0085730
  H        3.5120120     0.6248690    -0.9008780
  H        3.5189980     0.6365110     0.8698160
  H        4.0585630    -0.8014520    -0.0081370
units angstrom
no_reorient  #important for SAPT in psi4, default
symmetry c1  #important for SAPT in psi4, default
}

set PROPERTIES_ORIGIN ["COM"]
properties('MP2/aug-cc-pvtz', properties = ['dipole'])
--------------------------------------------------------------------------

    Molecular point group: c1
  Charge       = 0
  Multiplicity = 1
  Basis Set: AUG-CC-PVTZ
    Blend: AUG-CC-PVTZ
  Basis Set: (AUG-CC-PVTZ AUX)
    Blend: AUG-CC-PVTZ-JKFIT

    Orbital Energies [Eh]
    ---------------------

    Doubly Occupied:

       1A    -91.965543     2A    -20.553939     3A    -11.361468
       4A    -11.261245     5A    -11.250586     6A    -11.230068
       7A    -11.223070     8A     -8.967342     9A     -6.648532
      10A     -6.647418    11A     -6.646754    12A     -1.390378
      13A     -1.087557    14A     -1.061460    15A     -0.976934
      16A     -0.892046    17A     -0.823730    18A     -0.735347
      19A     -0.663776    20A     -0.640694    21A     -0.633745
      22A     -0.620630    23A     -0.562631    24A     -0.555172
      25A     -0.539987    26A     -0.536271    27A     -0.518292
      28A     -0.507518    29A     -0.470475    30A     -0.459263
      31A     -0.406071    32A     -0.366673

  @DF-RHF Final Energy:  -667.65716545319299

   => Energetics <=

    Nuclear Repulsion Energy =            369.4569898144989111
    One-Electron Energy =               -1649.8190817604925087
    Two-Electron Energy =                 612.7049264928006096
    Total Energy =                       -667.6571654531929880
  Basis Set: (AUG-CC-PVTZ AUX)
    Blend: AUG-CC-PVTZ-RI
    Molecular point group: c1

    Geometry (in Angstrom), charge = 0, multiplicity = 1:

       Center              X                  Y                   Z               Mass
    ------------   -----------------  -----------------  -----------------  -----------------
         S            0.716437257179     0.806281289714     0.009507136123    31.972071174400
         O           -0.761188742821    -1.385874710286     0.023587136123    15.994914619570
         C           -2.051537742821     0.658612289714    -0.127948563877    12.000000000000
         C            1.922442257179    -0.551005710286     0.013653136123    12.000000000000
         C           -0.778821742821    -0.162816710286     0.019305136123    12.000000000000
         C           -3.294674742821    -0.216054710286     0.020912136123    12.000000000000
         C            3.334190257179     0.017146289714     0.004463136123    12.000000000000
         H           -2.027883742821     1.315866289714     0.899583136123     1.007825032230
         H           -2.029839742821     1.321138289714    -0.851527863877     1.007825032230
         H            1.745869257179    -1.164502710286     0.898833136123     1.007825032230
         H            1.738866257179    -1.175780710286    -0.862182863877     1.007825032230
         H           -3.314094742821    -0.862162710286     0.899897136123     1.007825032230
         H           -3.316326742821    -0.856809710286    -0.862022863877     1.007825032230
         H           -4.193968742821     0.404415289714     0.023821136123     1.007825032230
         H            3.512078257179     0.624922289714    -0.885629863877     1.007825032230
         H            3.519064257179     0.636564289714     0.885064136123     1.007825032230
         H            4.058629257179    -0.801398710286     0.007111136123     1.007825032230

  Basis Set: AUG-CC-PVTZ
    Blend: AUG-CC-PVTZ
  Basis Set: (AUG-CC-PVTZ AUX)
    Blend: AUG-CC-PVTZ-JKFIT
	 Reference Energy          =    -667.6571654531929880 [Eh]
	 Singles Energy            =      -0.0000000000000000 [Eh]
	 Same-Spin Energy          =      -0.3339085813456661 [Eh]
	 Opposite-Spin Energy      =      -1.1087736711433802 [Eh]
	 Correlation Energy        =      -1.4426822524890464 [Eh]
	 Total Energy              =    -669.0998477056820093 [Eh]

	 ================> DF-SCS-MP2 Energies <==================
	-----------------------------------------------------------
	 SCS Same-Spin Scale       =       0.3333333333333333 [-]
	 SCS Opposite-Spin Scale   =       1.2000000000000000 [-]
	 SCS Same-Spin Energy      =      -0.1113028604485554 [Eh]
	 SCS Opposite-Spin Energy  =      -1.3305284053720563 [Eh]
	 SCS Correlation Energy    =      -1.4418312658206116 [Eh]
	 SCS Total Energy          =    -669.0989967190135985 [Eh]
	-----------------------------------------------------------

  Dipole Moment: [D]
     X:     0.3347      Y:     1.0340      Z:    -0.0769     Total:     1.0895

*** Psi4 exiting successfully. Buy a developer a beer!
