                               Psi4 1.4a3.dev225

  ==> Input File <==

--------------------------------------------------------------------------
#psi4
#
memory 32 gb

molecule  {
0 1
  O        1.6580350    -0.9827140     0.3821500
  O       -0.8249020    -1.8470020    -0.1920140
  N       -1.7073370     0.2644950     0.0041840
  N        1.2225400     1.0581630    -0.4400630
  C       -0.6757910    -0.6248990    -0.0657590
  C       -1.6230984     1.6895052     0.3785070
  C       -3.0587270    -0.2617480    -0.1203800
  C        0.7172850    -0.0860290    -0.0289380
  C        2.8466160    -0.3331830     0.2236370
  C        2.5869190     0.9090560    -0.2781450
  H       -2.0624300     2.2861190    -0.4188050
  H       -0.5911340     1.9718700     0.5118620
  H       -2.1906170     1.8355680     1.2974120
  H       -3.5636440    -0.2611770     0.8526080
  H       -3.0040100    -1.2812060    -0.4966650
  H       -3.6263720     0.3669880    -0.8129620
  H        3.7338670    -0.8757360     0.5106220
  H        3.2804870     1.6963590    -0.5371020
units angstrom
no_reorient  #important for SAPT in psi4, default
symmetry c1  #important for SAPT in psi4, default
}

set PROPERTIES_ORIGIN ["COM"]
properties('MP2/aug-cc-pvtz', properties = ['dipole'])
--------------------------------------------------------------------------

    Molecular point group: c1
  Charge       = 0
  Multiplicity = 1
  Basis Set: AUG-CC-PVTZ
    Blend: AUG-CC-PVTZ
  Basis Set: (AUG-CC-PVTZ AUX)
    Blend: AUG-CC-PVTZ-JKFIT

    Orbital Energies [Eh]
    ---------------------

    Doubly Occupied:

       1A    -20.653415     2A    -20.526943     3A    -15.601341
       4A    -15.591629     5A    -11.373345     6A    -11.356093
       7A    -11.312220     8A    -11.276999     9A    -11.266915
      10A    -11.258923    11A     -1.498268    12A     -1.381403
      13A     -1.257319    14A     -1.241075    15A     -1.057404
      16A     -0.977129    17A     -0.958863    18A     -0.865674
      19A     -0.843620    20A     -0.780569    21A     -0.725057
      22A     -0.682058    23A     -0.666575    24A     -0.659263
      25A     -0.651228    26A     -0.621593    27A     -0.587988
      28A     -0.585836    29A     -0.568900    30A     -0.564762
      31A     -0.540185    32A     -0.534682    33A     -0.481969
      34A     -0.465251    35A     -0.441354    36A     -0.380500
      37A     -0.351000

  @DF-RHF Final Energy:  -490.63656153706154

   => Energetics <=

    Nuclear Repulsion Energy =            527.9664073159104873
    One-Electron Energy =               -1716.0312429221585262
    Two-Electron Energy =                 697.4282740691863864
    Total Energy =                       -490.6365615370615387
  Basis Set: (AUG-CC-PVTZ AUX)
    Blend: AUG-CC-PVTZ-RI
    Molecular point group: c1

    Geometry (in Angstrom), charge = 0, multiplicity = 1:

       Center              X                  Y                   Z               Mass
    ------------   -----------------  -----------------  -----------------  -----------------
         O            1.601137047963    -0.943846902530     0.388156813387    15.994914619570
         O           -0.881799952037    -1.808134902530    -0.186007186613    15.994914619570
         N           -1.764234952037     0.303362097470     0.010190813387    14.003074004430
         N            1.165642047963     1.097030097470    -0.434056186613    14.003074004430
         C           -0.732688952037    -0.586031902530    -0.059752186613    12.000000000000
         C           -1.679996352037     1.728372297470     0.384513813387    12.000000000000
         C           -3.115624952037    -0.222880902530    -0.114373186613    12.000000000000
         C            0.660387047963    -0.047161902530    -0.022931186613    12.000000000000
         C            2.789718047963    -0.294315902530     0.229643813387    12.000000000000
         C            2.530021047963     0.947923097470    -0.272138186613    12.000000000000
         H           -2.119327952037     2.324986097470    -0.412798186613     1.007825032230
         H           -0.648031952037     2.010737097470     0.517868813387     1.007825032230
         H           -2.247514952037     1.874435097470     1.303418813387     1.007825032230
         H           -3.620541952037    -0.222309902530     0.858614813387     1.007825032230
         H           -3.060907952037    -1.242338902530    -0.490658186613     1.007825032230
         H           -3.683269952037     0.405855097470    -0.806955186613     1.007825032230
         H            3.676969047963    -0.836868902530     0.516628813387     1.007825032230
         H            3.223589047963     1.735226097470    -0.531095186613     1.007825032230

  Basis Set: AUG-CC-PVTZ
    Blend: AUG-CC-PVTZ
  Basis Set: (AUG-CC-PVTZ AUX)
    Blend: AUG-CC-PVTZ-JKFIT
	 Reference Energy          =    -490.6365615370615387 [Eh]
	 Singles Energy            =      -0.0000000000000000 [Eh]
	 Same-Spin Energy          =      -0.5064407431168435 [Eh]
	 Opposite-Spin Energy      =      -1.5500824728462732 [Eh]
	 Correlation Energy        =      -2.0565232159631166 [Eh]
	 Total Energy              =    -492.6930847530246638 [Eh]

	 ================> DF-SCS-MP2 Energies <==================
	-----------------------------------------------------------
	 SCS Same-Spin Scale       =       0.3333333333333333 [-]
	 SCS Opposite-Spin Scale   =       1.2000000000000000 [-]
	 SCS Same-Spin Energy      =      -0.1688135810389478 [Eh]
	 SCS Opposite-Spin Energy  =      -1.8600989674155277 [Eh]
	 SCS Correlation Energy    =      -2.0289125484544757 [Eh]
	 SCS Total Energy          =    -492.6654740855159957 [Eh]
	-----------------------------------------------------------

  Dipole Moment: [D]
     X:     0.3533      Y:     2.8277      Z:     0.9698     Total:     3.0102

*** Psi4 exiting successfully. Buy a developer a beer!
