                               Psi4 1.4a3.dev225

  ==> Input File <==

--------------------------------------------------------------------------
#psi4
#
memory 32 gb

molecule  {
0 1
  O        1.6580350    -0.9827140     0.3821500
  O       -0.8249020    -1.8470020    -0.1920140
  N       -1.7299161     0.2781546    -0.0392391
  N        1.2225400     1.0581630    -0.4400630
  C       -0.6757910    -0.6248990    -0.0657590
  C       -1.6242400     1.6701930     0.3734340
  C       -3.0587270    -0.2617480    -0.1203800
  C        0.7172850    -0.0860290    -0.0289380
  C        2.8466160    -0.3331830     0.2236370
  C        2.5869190     0.9090560    -0.2781450
  H       -2.0624300     2.2861190    -0.4188050
  H       -0.5911340     1.9718700     0.5118620
  H       -2.1906170     1.8355680     1.2974120
  H       -3.5636440    -0.2611770     0.8526080
  H       -3.0040100    -1.2812060    -0.4966650
  H       -3.6263720     0.3669880    -0.8129620
  H        3.7338670    -0.8757360     0.5106220
  H        3.2804870     1.6963590    -0.5371020
units angstrom
no_reorient  #important for SAPT in psi4, default
symmetry c1  #important for SAPT in psi4, default
}

set PROPERTIES_ORIGIN ["COM"]
properties('MP2/aug-cc-pvtz', properties = ['dipole'])
--------------------------------------------------------------------------

    Molecular point group: c1
  Charge       = 0
  Multiplicity = 1
  Basis Set: AUG-CC-PVTZ
    Blend: AUG-CC-PVTZ
  Basis Set: (AUG-CC-PVTZ AUX)
    Blend: AUG-CC-PVTZ-JKFIT

    Orbital Energies [Eh]
    ---------------------

    Doubly Occupied:

       1A    -20.654922     2A    -20.532886     3A    -15.599988
       4A    -15.593036     5A    -11.377543     6A    -11.357893
       7A    -11.313594     8A    -11.278102     9A    -11.264696
      10A    -11.256368    11A     -1.499722    12A     -1.383677
      13A     -1.259256    14A     -1.243328    15A     -1.058924
      16A     -0.978049    17A     -0.953171    18A     -0.866188
      19A     -0.844267    20A     -0.781995    21A     -0.727028
      22A     -0.683423    23A     -0.667794    24A     -0.660018
      25A     -0.652453    26A     -0.622709    27A     -0.589866
      28A     -0.587047    29A     -0.566568    30A     -0.559828
      31A     -0.540854    32A     -0.535099    33A     -0.483100
      34A     -0.466076    35A     -0.444406    36A     -0.378790
      37A     -0.352060

  @DF-RHF Final Energy:  -490.63471989233142

   => Energetics <=

    Nuclear Repulsion Energy =            527.9541672598395508
    One-Electron Energy =               -1715.9483192516279360
    Two-Electron Energy =                 697.3594320994569671
    Total Energy =                       -490.6347198923314181
  Basis Set: (AUG-CC-PVTZ AUX)
    Blend: AUG-CC-PVTZ-RI
    Molecular point group: c1

    Geometry (in Angstrom), charge = 0, multiplicity = 1:

       Center              X                  Y                   Z               Mass
    ------------   -----------------  -----------------  -----------------  -----------------
         O            1.603492319694    -0.943557951927     0.392932907039    15.994914619570
         O           -0.879444680306    -1.807845951927    -0.181231092961    15.994914619570
         N           -1.784458780306     0.317310648073    -0.028456192961    14.003074004430
         N            1.167997319694     1.097319048073    -0.429280092961    14.003074004430
         C           -0.730333680306    -0.585742951927    -0.054976092961    12.000000000000
         C           -1.678782680306     1.709349048073     0.384216907039    12.000000000000
         C           -3.113269680306    -0.222591951927    -0.109597092961    12.000000000000
         C            0.662742319694    -0.046872951927    -0.018155092961    12.000000000000
         C            2.792073319694    -0.294026951927     0.234419907039    12.000000000000
         C            2.532376319694     0.948212048073    -0.267362092961    12.000000000000
         H           -2.116972680306     2.325275048073    -0.408022092961     1.007825032230
         H           -0.645676680306     2.011026048073     0.522644907039     1.007825032230
         H           -2.245159680306     1.874724048073     1.308194907039     1.007825032230
         H           -3.618186680306    -0.222020951927     0.863390907039     1.007825032230
         H           -3.058552680306    -1.242049951927    -0.485882092961     1.007825032230
         H           -3.680914680306     0.406144048073    -0.802179092961     1.007825032230
         H            3.679324319694    -0.836579951927     0.521404907039     1.007825032230
         H            3.225944319694     1.735515048073    -0.526319092961     1.007825032230

  Basis Set: AUG-CC-PVTZ
    Blend: AUG-CC-PVTZ
  Basis Set: (AUG-CC-PVTZ AUX)
    Blend: AUG-CC-PVTZ-JKFIT
	 Reference Energy          =    -490.6347198923314181 [Eh]
	 Singles Energy            =      -0.0000000000000000 [Eh]
	 Same-Spin Energy          =      -0.5068111383587437 [Eh]
	 Opposite-Spin Energy      =      -1.5505510554067388 [Eh]
	 Correlation Energy        =      -2.0573621937654822 [Eh]
	 Total Energy              =    -492.6920820860968888 [Eh]

	 ================> DF-SCS-MP2 Energies <==================
	-----------------------------------------------------------
	 SCS Same-Spin Scale       =       0.3333333333333333 [-]
	 SCS Opposite-Spin Scale   =       1.2000000000000000 [-]
	 SCS Same-Spin Energy      =      -0.1689370461195812 [Eh]
	 SCS Opposite-Spin Energy  =      -1.8606612664880864 [Eh]
	 SCS Correlation Energy    =      -2.0295983126076678 [Eh]
	 SCS Total Energy          =    -492.6643182049390930 [Eh]
	-----------------------------------------------------------

  Dipole Moment: [D]
     X:     0.5328      Y:     2.6615      Z:     0.9960     Total:     2.8913

*** Psi4 exiting successfully. Buy a developer a beer!
