                               Psi4 1.4a3.dev225

  ==> Input File <==

--------------------------------------------------------------------------
#psi4
#
memory 32 gb

molecule  {
0 1
  O        1.6580350    -0.9827140     0.3821500
  O       -0.8249020    -1.8470020    -0.1920140
  N       -1.7073370     0.2644950     0.0041840
  N        1.2225400     1.0581630    -0.4400630
  C       -0.6757910    -0.6248990    -0.0657590
  C       -1.6253816     1.6508808     0.3683610
  C       -3.0587270    -0.2617480    -0.1203800
  C        0.7172850    -0.0860290    -0.0289380
  C        2.8466160    -0.3331830     0.2236370
  C        2.5869190     0.9090560    -0.2781450
  H       -2.0624300     2.2861190    -0.4188050
  H       -0.5911340     1.9718700     0.5118620
  H       -2.1906170     1.8355680     1.2974120
  H       -3.5636440    -0.2611770     0.8526080
  H       -3.0040100    -1.2812060    -0.4966650
  H       -3.6263720     0.3669880    -0.8129620
  H        3.7338670    -0.8757360     0.5106220
  H        3.2804870     1.6963590    -0.5371020
units angstrom
no_reorient  #important for SAPT in psi4, default
symmetry c1  #important for SAPT in psi4, default
}

set PROPERTIES_ORIGIN ["COM"]
properties('MP2/aug-cc-pvtz', properties = ['dipole'])
--------------------------------------------------------------------------

    Molecular point group: c1
  Charge       = 0
  Multiplicity = 1
  Basis Set: AUG-CC-PVTZ
    Blend: AUG-CC-PVTZ
  Basis Set: (AUG-CC-PVTZ AUX)
    Blend: AUG-CC-PVTZ-JKFIT

    Orbital Energies [Eh]
    ---------------------

    Doubly Occupied:

       1A    -20.653905     2A    -20.528719     3A    -15.602500
       4A    -15.592034     5A    -11.375019     6A    -11.356603
       7A    -11.312654     8A    -11.277297     9A    -11.266152
      10A    -11.259866    11A     -1.498745    12A     -1.383585
      13A     -1.263162    14A     -1.244152    15A     -1.058146
      16A     -0.977708    17A     -0.959399    18A     -0.866206
      19A     -0.844236    20A     -0.781422    21A     -0.729546
      22A     -0.682855    23A     -0.668480    24A     -0.661579
      25A     -0.652742    26A     -0.622589    27A     -0.588885
      28A     -0.585678    29A     -0.565249    30A     -0.559318
      31A     -0.542732    32A     -0.535393    33A     -0.481897
      34A     -0.465087    35A     -0.442467    36A     -0.380413
      37A     -0.351357

  @DF-RHF Final Energy:  -490.63639095906007

   => Energetics <=

    Nuclear Repulsion Energy =            528.7174916477000579
    One-Electron Energy =               -1717.4722077367482598
    Two-Electron Energy =                 698.1183251299880794
    Total Energy =                       -490.6363909590600088
  Basis Set: (AUG-CC-PVTZ AUX)
    Blend: AUG-CC-PVTZ-RI
    Molecular point group: c1

    Geometry (in Angstrom), charge = 0, multiplicity = 1:

       Center              X                  Y                   Z               Mass
    ------------   -----------------  -----------------  -----------------  -----------------
         O            1.601332668970    -0.940537624310     0.389026106809    15.994914619570
         O           -0.881604331030    -1.804825624310    -0.185137893191    15.994914619570
         N           -1.764039331030     0.306671375690     0.011060106809    14.003074004430
         N            1.165837668970     1.100339375690    -0.433186893191    14.003074004430
         C           -0.732493331030    -0.582722624310    -0.058882893191    12.000000000000
         C           -1.682083931030     1.693057175690     0.375237106809    12.000000000000
         C           -3.115429331030    -0.219571624310    -0.113503893191    12.000000000000
         C            0.660582668970    -0.043852624310    -0.022061893191    12.000000000000
         C            2.789913668970    -0.291006624310     0.230513106809    12.000000000000
         C            2.530216668970     0.951232375690    -0.271268893191    12.000000000000
         H           -2.119132331030     2.328295375690    -0.411928893191     1.007825032230
         H           -0.647836331030     2.014046375690     0.518738106809     1.007825032230
         H           -2.247319331030     1.877744375690     1.304288106809     1.007825032230
         H           -3.620346331030    -0.219000624310     0.859484106809     1.007825032230
         H           -3.060712331030    -1.239029624310    -0.489788893191     1.007825032230
         H           -3.683074331030     0.409164375690    -0.806085893191     1.007825032230
         H            3.677164668970    -0.833559624310     0.517498106809     1.007825032230
         H            3.223784668970     1.738535375690    -0.530225893191     1.007825032230

  Basis Set: AUG-CC-PVTZ
    Blend: AUG-CC-PVTZ
  Basis Set: (AUG-CC-PVTZ AUX)
    Blend: AUG-CC-PVTZ-JKFIT
	 Reference Energy          =    -490.6363909590600656 [Eh]
	 Singles Energy            =      -0.0000000000000000 [Eh]
	 Same-Spin Energy          =      -0.5067446263438280 [Eh]
	 Opposite-Spin Energy      =      -1.5501594799977307 [Eh]
	 Correlation Energy        =      -2.0569041063415590 [Eh]
	 Total Energy              =    -492.6932950654016281 [Eh]

	 ================> DF-SCS-MP2 Energies <==================
	-----------------------------------------------------------
	 SCS Same-Spin Scale       =       0.3333333333333333 [-]
	 SCS Opposite-Spin Scale   =       1.2000000000000000 [-]
	 SCS Same-Spin Energy      =      -0.1689148754479426 [Eh]
	 SCS Opposite-Spin Energy  =      -1.8601913759972768 [Eh]
	 SCS Correlation Energy    =      -2.0291062514452194 [Eh]
	 SCS Total Energy          =    -492.6654972105052934 [Eh]
	-----------------------------------------------------------

  Dipole Moment: [D]
     X:     0.3953      Y:     2.7196      Z:     0.9407     Total:     2.9047

*** Psi4 exiting successfully. Buy a developer a beer!
