                               Psi4 1.4a3.dev225

  ==> Input File <==

--------------------------------------------------------------------------
#psi4
#
memory 32 gb

molecule  {
0 1
  O        1.6466773    -0.9635264     0.3738234
  O       -0.8249020    -1.8470020    -0.1920140
  N       -1.7073370     0.2644950     0.0041840
  N        1.2225400     1.0581630    -0.4400630
  C       -0.6757910    -0.6248990    -0.0657590
  C       -1.6242400     1.6701930     0.3734340
  C       -3.0587270    -0.2617480    -0.1203800
  C        0.7172850    -0.0860290    -0.0289380
  C        2.8466160    -0.3331830     0.2236370
  C        2.5869190     0.9090560    -0.2781450
  H       -2.0624300     2.2861190    -0.4188050
  H       -0.5911340     1.9718700     0.5118620
  H       -2.1906170     1.8355680     1.2974120
  H       -3.5636440    -0.2611770     0.8526080
  H       -3.0040100    -1.2812060    -0.4966650
  H       -3.6263720     0.3669880    -0.8129620
  H        3.7338670    -0.8757360     0.5106220
  H        3.2804870     1.6963590    -0.5371020
units angstrom
no_reorient  #important for SAPT in psi4, default
symmetry c1  #important for SAPT in psi4, default
}

set PROPERTIES_ORIGIN ["COM"]
properties('MP2/aug-cc-pvtz', properties = ['dipole'])
--------------------------------------------------------------------------

    Molecular point group: c1
  Charge       = 0
  Multiplicity = 1
  Basis Set: AUG-CC-PVTZ
    Blend: AUG-CC-PVTZ
  Basis Set: (AUG-CC-PVTZ AUX)
    Blend: AUG-CC-PVTZ-JKFIT

    Orbital Energies [Eh]
    ---------------------

    Doubly Occupied:

       1A    -20.653910     2A    -20.527952     3A    -15.601878
       4A    -15.588407     5A    -11.373962     6A    -11.354523
       7A    -11.311707     8A    -11.277191     9A    -11.266181
      10A    -11.259312    11A     -1.506938    12A     -1.382589
      13A     -1.259253    14A     -1.241032    15A     -1.060770
      16A     -0.977287    17A     -0.959206    18A     -0.867288
      19A     -0.844172    20A     -0.782726    21A     -0.727780
      22A     -0.685810    23A     -0.669431    24A     -0.661017
      25A     -0.652895    26A     -0.622849    27A     -0.589287
      28A     -0.584057    29A     -0.566607    30A     -0.561876
      31A     -0.541395    32A     -0.535139    33A     -0.479916
      34A     -0.463169    35A     -0.441900    36A     -0.380468
      37A     -0.351956

  @DF-RHF Final Energy:  -490.63819956395622

   => Energetics <=

    Nuclear Repulsion Energy =            529.0658683521675130
    One-Electron Energy =               -1718.1844677980875531
    Two-Electron Energy =                 698.4803998819638764
    Total Energy =                       -490.6381995639562774
  Basis Set: (AUG-CC-PVTZ AUX)
    Blend: AUG-CC-PVTZ-RI
    Molecular point group: c1

    Geometry (in Angstrom), charge = 0, multiplicity = 1:

       Center              X                  Y                   Z               Mass
    ------------   -----------------  -----------------  -----------------  -----------------
         O            1.591174226058    -0.925195918173     0.381215771199    15.994914619570
         O           -0.880405073942    -1.808671518173    -0.184621628801    15.994914619570
         N           -1.762840073942     0.302825481827     0.011576371199    14.003074004430
         N            1.167036926058     1.096493481827    -0.432670628801    14.003074004430
         C           -0.731294073942    -0.586568518173    -0.058366628801    12.000000000000
         C           -1.679743073942     1.708523481827     0.380826371199    12.000000000000
         C           -3.114230073942    -0.223417518173    -0.112987628801    12.000000000000
         C            0.661781926058    -0.047698518173    -0.021545628801    12.000000000000
         C            2.791112926058    -0.294852518173     0.231029371199    12.000000000000
         C            2.531415926058     0.947386481827    -0.270752628801    12.000000000000
         H           -2.117933073942     2.324449481827    -0.411412628801     1.007825032230
         H           -0.646637073942     2.010200481827     0.519254371199     1.007825032230
         H           -2.246120073942     1.873898481827     1.304804371199     1.007825032230
         H           -3.619147073942    -0.222846518173     0.860000371199     1.007825032230
         H           -3.059513073942    -1.242875518173    -0.489272628801     1.007825032230
         H           -3.681875073942     0.405318481827    -0.805569628801     1.007825032230
         H            3.678363926058    -0.837405518173     0.518014371199     1.007825032230
         H            3.224983926058     1.734689481827    -0.529709628801     1.007825032230

  Basis Set: AUG-CC-PVTZ
    Blend: AUG-CC-PVTZ
  Basis Set: (AUG-CC-PVTZ AUX)
    Blend: AUG-CC-PVTZ-JKFIT
	 Reference Energy          =    -490.6381995639562206 [Eh]
	 Singles Energy            =      -0.0000000000000000 [Eh]
	 Same-Spin Energy          =      -0.5062999338992785 [Eh]
	 Opposite-Spin Energy      =      -1.5490748491732327 [Eh]
	 Correlation Energy        =      -2.0553747830725113 [Eh]
	 Total Energy              =    -492.6935743470287434 [Eh]

	 ================> DF-SCS-MP2 Energies <==================
	-----------------------------------------------------------
	 SCS Same-Spin Scale       =       0.3333333333333333 [-]
	 SCS Opposite-Spin Scale   =       1.2000000000000000 [-]
	 SCS Same-Spin Energy      =      -0.1687666446330928 [Eh]
	 SCS Opposite-Spin Energy  =      -1.8588898190078791 [Eh]
	 SCS Correlation Energy    =      -2.0276564636409717 [Eh]
	 SCS Total Energy          =    -492.6658560275972150 [Eh]
	-----------------------------------------------------------

  Dipole Moment: [D]
     X:     0.4050      Y:     2.7183      Z:     0.9824     Total:     2.9186

*** Psi4 exiting successfully. Buy a developer a beer!
