                               Psi4 1.4a3.dev225

  ==> Input File <==

--------------------------------------------------------------------------
#psi4
#
memory 32 gb

molecule  {
0 1
  O        1.6580350    -0.9827140     0.3821500
  O       -0.8249020    -1.8470020    -0.1920140
  N       -1.7073370     0.2644950     0.0041840
  N        1.2225400     1.0581630    -0.4400630
  C       -0.6757910    -0.6248990    -0.0657590
  C       -1.6242400     1.6701930     0.3734340
  C       -3.0587270    -0.2617480    -0.1203800
  C        0.7172850    -0.0860290    -0.0289380
  C        2.8466160    -0.3331830     0.2236370
  C        2.5869190     0.9090560    -0.2781450
  H       -2.0624300     2.2861190    -0.4188050
  H       -0.5911340     1.9718700     0.5118620
  H       -2.1906170     1.8355680     1.2974120
  H       -3.6557656    -0.2610728     1.0301287
  H       -3.0040100    -1.2812060    -0.4966650
  H       -3.6263720     0.3669880    -0.8129620
  H        3.7338670    -0.8757360     0.5106220
  H        3.2804870     1.6963590    -0.5371020
units angstrom
no_reorient  #important for SAPT in psi4, default
symmetry c1  #important for SAPT in psi4, default
}

set PROPERTIES_ORIGIN ["COM"]
properties('MP2/aug-cc-pvtz', properties = ['dipole'])
--------------------------------------------------------------------------

    Molecular point group: c1
  Charge       = 0
  Multiplicity = 1
  Basis Set: AUG-CC-PVTZ
    Blend: AUG-CC-PVTZ
  Basis Set: (AUG-CC-PVTZ AUX)
    Blend: AUG-CC-PVTZ-JKFIT

    Orbital Energies [Eh]
    ---------------------

    Doubly Occupied:

       1A    -20.654670     2A    -20.530063     3A    -15.605580
       4A    -15.592959     5A    -11.376252     6A    -11.357506
       7A    -11.313398     8A    -11.282101     9A    -11.277998
      10A    -11.266995    11A     -1.499511    12A     -1.384491
      13A     -1.261533    14A     -1.243987    15A     -1.058504
      16A     -0.973798    17A     -0.955939    18A     -0.864919
      19A     -0.842934    20A     -0.780891    21A     -0.728258
      22A     -0.683407    23A     -0.666317    24A     -0.662059
      25A     -0.645073    26A     -0.623203    27A     -0.589156
      28A     -0.586319    29A     -0.568637    30A     -0.551338
      31A     -0.544199    32A     -0.516402    33A     -0.483003
      34A     -0.466094    35A     -0.443916    36A     -0.379380
      37A     -0.352025

  @DF-RHF Final Energy:  -490.61715397409745

   => Energetics <=

    Nuclear Repulsion Energy =            527.4979383874635914
    One-Electron Energy =               -1715.0045573212505587
    Two-Electron Energy =                 696.8894649596895761
    Total Energy =                       -490.6171539740973913
  Basis Set: (AUG-CC-PVTZ AUX)
    Blend: AUG-CC-PVTZ-RI
    Molecular point group: c1

    Geometry (in Angstrom), charge = 0, multiplicity = 1:

       Center              X                  Y                   Z               Mass
    ------------   -----------------  -----------------  -----------------  -----------------
         O            1.601897741499    -0.942193013216     0.387314067393    15.994914619570
         O           -0.881039258501    -1.806481013216    -0.186849932607    15.994914619570
         N           -1.763474258501     0.305015986784     0.009348067393    14.003074004430
         N            1.166402741498     1.098683986784    -0.434898932607    14.003074004430
         C           -0.731928258501    -0.584378013216    -0.060594932607    12.000000000000
         C           -1.680377258502     1.710713986784     0.378598067393    12.000000000000
         C           -3.114864258502    -0.221227013216    -0.115215932607    12.000000000000
         C            0.661147741498    -0.045508013216    -0.023773932607    12.000000000000
         C            2.790478741499    -0.292662013216     0.228801067393    12.000000000000
         C            2.530781741499     0.949576986784    -0.272980932607    12.000000000000
         H           -2.118567258501     2.326639986784    -0.413640932607     1.007825032230
         H           -0.647271258502     2.012390986784     0.517026067393     1.007825032230
         H           -2.246754258501     1.876088986784     1.302576067393     1.007825032230
         H           -3.711902858501    -0.220551813216     1.035292767393     1.007825032230
         H           -3.060147258501    -1.240685013216    -0.491500932607     1.007825032230
         H           -3.682509258501     0.407508986784    -0.807797932607     1.007825032230
         H            3.677729741499    -0.835215013216     0.515786067393     1.007825032230
         H            3.224349741499     1.736879986784    -0.531937932607     1.007825032230

  Basis Set: AUG-CC-PVTZ
    Blend: AUG-CC-PVTZ
  Basis Set: (AUG-CC-PVTZ AUX)
    Blend: AUG-CC-PVTZ-JKFIT
	 Reference Energy          =    -490.6171539740974481 [Eh]
	 Singles Energy            =      -0.0000000000000000 [Eh]
	 Same-Spin Energy          =      -0.5066754572054762 [Eh]
	 Opposite-Spin Energy      =      -1.5516644820366423 [Eh]
	 Correlation Energy        =      -2.0583399392421184 [Eh]
	 Total Energy              =    -492.6754939133395510 [Eh]

	 ================> DF-SCS-MP2 Energies <==================
	-----------------------------------------------------------
	 SCS Same-Spin Scale       =       0.3333333333333333 [-]
	 SCS Opposite-Spin Scale   =       1.2000000000000000 [-]
	 SCS Same-Spin Energy      =      -0.1688918190684921 [Eh]
	 SCS Opposite-Spin Energy  =      -1.8619973784439707 [Eh]
	 SCS Correlation Energy    =      -2.0308891975124630 [Eh]
	 SCS Total Energy          =    -492.6480431716099133 [Eh]
	-----------------------------------------------------------

  Dipole Moment: [D]
     X:     0.5572      Y:     2.7729      Z:     0.8336     Total:     2.9487

*** Psi4 exiting successfully. Buy a developer a beer!
