                               Psi4 1.4a3.dev225

  ==> Input File <==

--------------------------------------------------------------------------
#psi4
#
memory 32 gb

molecule  {
0 1
  O        1.6231622    -1.0135982     0.3918349
  O       -0.8249020    -1.8470020    -0.1920140
  N       -1.7073370     0.2644950     0.0041840
  N        1.2225400     1.0581630    -0.4400630
  C       -0.6757910    -0.6248990    -0.0657590
  C       -1.6242400     1.6701930     0.3734340
  C       -3.0587270    -0.2617480    -0.1203800
  C        0.7172850    -0.0860290    -0.0289380
  C        2.8466160    -0.3331830     0.2236370
  C        2.5869190     0.9090560    -0.2781450
  H       -2.0624300     2.2861190    -0.4188050
  H       -0.5911340     1.9718700     0.5118620
  H       -2.1906170     1.8355680     1.2974120
  H       -3.5636440    -0.2611770     0.8526080
  H       -3.0040100    -1.2812060    -0.4966650
  H       -3.6263720     0.3669880    -0.8129620
  H        3.7338670    -0.8757360     0.5106220
  H        3.2804870     1.6963590    -0.5371020
units angstrom
no_reorient  #important for SAPT in psi4, default
symmetry c1  #important for SAPT in psi4, default
}

set PROPERTIES_ORIGIN ["COM"]
properties('MP2/aug-cc-pvtz', properties = ['dipole'])
--------------------------------------------------------------------------

    Molecular point group: c1
  Charge       = 0
  Multiplicity = 1
  Basis Set: AUG-CC-PVTZ
    Blend: AUG-CC-PVTZ
  Basis Set: (AUG-CC-PVTZ AUX)
    Blend: AUG-CC-PVTZ-JKFIT

    Orbital Energies [Eh]
    ---------------------

    Doubly Occupied:

       1A    -20.652831     2A    -20.527487     3A    -15.601576
       4A    -15.591672     5A    -11.372895     6A    -11.358767
       7A    -11.314584     8A    -11.282006     9A    -11.266401
      10A    -11.259064    11A     -1.484610    12A     -1.381384
      13A     -1.260143    14A     -1.243298    15A     -1.054983
      16A     -0.977032    17A     -0.958886    18A     -0.863749
      19A     -0.842501    20A     -0.776794    21A     -0.725761
      22A     -0.677036    23A     -0.663939    24A     -0.657329
      25A     -0.648693    26A     -0.622279    27A     -0.593060
      28A     -0.584835    29A     -0.566073    30A     -0.561816
      31A     -0.540872    32A     -0.534115    33A     -0.482286
      34A     -0.466587    35A     -0.441189    36A     -0.380130
      37A     -0.353324

  @DF-RHF Final Energy:  -490.63243473558958

   => Energetics <=

    Nuclear Repulsion Energy =            527.7191081302663633
    One-Electron Energy =               -1715.5631140392458747
    Two-Electron Energy =                 697.2115711733898706
    Total Energy =                       -490.6324347355895270
  Basis Set: (AUG-CC-PVTZ AUX)
    Blend: AUG-CC-PVTZ-RI
    Molecular point group: c1

    Geometry (in Angstrom), charge = 0, multiplicity = 1:

       Center              X                  Y                   Z               Mass
    ------------   -----------------  -----------------  -----------------  -----------------
         O            1.570344588266    -0.969549438150     0.397170328955    15.994914619570
         O           -0.877719611734    -1.802953238150    -0.186678571045    15.994914619570
         N           -1.760154611734     0.308543761850     0.009519428955    14.003074004430
         N            1.169722388266     1.102211761850    -0.434727571045    14.003074004430
         C           -0.728608611734    -0.580850238150    -0.060423571045    12.000000000000
         C           -1.677057611734     1.714241761850     0.378769428955    12.000000000000
         C           -3.111544611734    -0.217699238150    -0.115044571045    12.000000000000
         C            0.664467388266    -0.041980238150    -0.023602571045    12.000000000000
         C            2.793798388266    -0.289134238150     0.228972428955    12.000000000000
         C            2.534101388266     0.953104761850    -0.272809571045    12.000000000000
         H           -2.115247611734     2.330167761850    -0.413469571045     1.007825032230
         H           -0.643951611734     2.015918761850     0.517197428955     1.007825032230
         H           -2.243434611734     1.879616761850     1.302747428955     1.007825032230
         H           -3.616461611734    -0.217128238150     0.857943428955     1.007825032230
         H           -3.056827611734    -1.237157238150    -0.491329571045     1.007825032230
         H           -3.679189611734     0.411036761850    -0.807626571045     1.007825032230
         H            3.681049388266    -0.831687238150     0.515957428955     1.007825032230
         H            3.227669388266     1.740407761850    -0.531766571045     1.007825032230

  Basis Set: AUG-CC-PVTZ
    Blend: AUG-CC-PVTZ
  Basis Set: (AUG-CC-PVTZ AUX)
    Blend: AUG-CC-PVTZ-JKFIT
	 Reference Energy          =    -490.6324347355895839 [Eh]
	 Singles Energy            =      -0.0000000000000000 [Eh]
	 Same-Spin Energy          =      -0.5067259698522315 [Eh]
	 Opposite-Spin Energy      =      -1.5517491558514291 [Eh]
	 Correlation Energy        =      -2.0584751257036604 [Eh]
	 Total Energy              =    -492.6909098612932212 [Eh]

	 ================> DF-SCS-MP2 Energies <==================
	-----------------------------------------------------------
	 SCS Same-Spin Scale       =       0.3333333333333333 [-]
	 SCS Opposite-Spin Scale   =       1.2000000000000000 [-]
	 SCS Same-Spin Energy      =      -0.1689086566174105 [Eh]
	 SCS Opposite-Spin Energy  =      -1.8620989870217148 [Eh]
	 SCS Correlation Energy    =      -2.0310076436391253 [Eh]
	 SCS Total Energy          =    -492.6634423792286839 [Eh]
	-----------------------------------------------------------

  Dipole Moment: [D]
     X:     0.4316      Y:     2.8695      Z:     0.9191     Total:     3.0438

*** Psi4 exiting successfully. Buy a developer a beer!
