                               Psi4 1.4a3.dev225

  ==> Input File <==

--------------------------------------------------------------------------
#psi4
#
memory 32 gb

molecule  {
0 1
  O        1.6580350    -0.9827140     0.3821500
  O       -0.8249020    -1.8470020    -0.1920140
  N       -1.7073370     0.2644950     0.0041840
  N        1.2225400     1.0581630    -0.4400630
  C       -0.6757910    -0.6248990    -0.0657590
  C       -1.6242400     1.6701930     0.3734340
  C       -3.0587270    -0.2617480    -0.1203800
  C        0.7172850    -0.0860290    -0.0289380
  C        2.8466160    -0.3331830     0.2236370
  C        2.6102598     0.9137954    -0.2779266
  H       -2.0624300     2.2861190    -0.4188050
  H       -0.5911340     1.9718700     0.5118620
  H       -2.1906170     1.8355680     1.2974120
  H       -3.5636440    -0.2611770     0.8526080
  H       -3.0040100    -1.2812060    -0.4966650
  H       -3.6263720     0.3669880    -0.8129620
  H        3.7338670    -0.8757360     0.5106220
  H        3.2804870     1.6963590    -0.5371020
units angstrom
no_reorient  #important for SAPT in psi4, default
symmetry c1  #important for SAPT in psi4, default
}

set PROPERTIES_ORIGIN ["COM"]
properties('MP2/aug-cc-pvtz', properties = ['dipole'])
--------------------------------------------------------------------------

    Molecular point group: c1
  Charge       = 0
  Multiplicity = 1
  Basis Set: AUG-CC-PVTZ
    Blend: AUG-CC-PVTZ
  Basis Set: (AUG-CC-PVTZ AUX)
    Blend: AUG-CC-PVTZ-JKFIT

    Orbital Energies [Eh]
    ---------------------

    Doubly Occupied:

       1A    -20.653156     2A    -20.528036     3A    -15.601972
       4A    -15.592394     5A    -11.374350     6A    -11.356301
       7A    -11.313862     8A    -11.277484     9A    -11.266252
      10A    -11.259381    11A     -1.497417    12A     -1.382603
      13A     -1.258515    14A     -1.237758    15A     -1.058169
      16A     -0.977263    17A     -0.959269    18A     -0.867411
      19A     -0.842693    20A     -0.779782    21A     -0.727154
      22A     -0.681859    23A     -0.667319    24A     -0.660272
      25A     -0.651706    26A     -0.623440    27A     -0.590719
      28A     -0.584987    29A     -0.567017    30A     -0.561959
      31A     -0.541628    32A     -0.535272    33A     -0.480055
      34A     -0.461613    35A     -0.441704    36A     -0.380508
      37A     -0.353141

  @DF-RHF Final Energy:  -490.63624839713043

   => Energetics <=

    Nuclear Repulsion Energy =            527.8294424427356262
    One-Electron Energy =               -1715.7425375362172417
    Two-Electron Energy =                 697.2768466963511855
    Total Energy =                       -490.6362483971304300
  Basis Set: (AUG-CC-PVTZ AUX)
    Blend: AUG-CC-PVTZ-RI
    Molecular point group: c1

    Geometry (in Angstrom), charge = 0, multiplicity = 1:

       Center              X                  Y                   Z               Mass
    ------------   -----------------  -----------------  -----------------  -----------------
         O            1.599235055206    -0.942598327804     0.388572747927    15.994914619570
         O           -0.883701944794    -1.806886327804    -0.185591252073    15.994914619570
         N           -1.766136944794     0.304610672196     0.010606747927    14.003074004430
         N            1.163740055206     1.098278672196    -0.433640252073    14.003074004430
         C           -0.734590944794    -0.584783327804    -0.059336252073    12.000000000000
         C           -1.683039944794     1.710308672196     0.379856747927    12.000000000000
         C           -3.117526944794    -0.221632327804    -0.113957252073    12.000000000000
         C            0.658485055206    -0.045913327804    -0.022515252073    12.000000000000
         C            2.787816055206    -0.293067327804     0.230059747927    12.000000000000
         C            2.551459855206     0.953911072196    -0.271503852073    12.000000000000
         H           -2.121229944794     2.326234672196    -0.412382252073     1.007825032230
         H           -0.649933944794     2.011985672196     0.518284747927     1.007825032230
         H           -2.249416944794     1.875683672196     1.303834747927     1.007825032230
         H           -3.622443944794    -0.221061327804     0.859030747927     1.007825032230
         H           -3.062809944794    -1.241090327804    -0.490242252073     1.007825032230
         H           -3.685171944794     0.407103672196    -0.806539252073     1.007825032230
         H            3.675067055206    -0.835620327804     0.517044747927     1.007825032230
         H            3.221687055206     1.736474672196    -0.530679252073     1.007825032230

  Basis Set: AUG-CC-PVTZ
    Blend: AUG-CC-PVTZ
  Basis Set: (AUG-CC-PVTZ AUX)
    Blend: AUG-CC-PVTZ-JKFIT
	 Reference Energy          =    -490.6362483971304300 [Eh]
	 Singles Energy            =      -0.0000000000000000 [Eh]
	 Same-Spin Energy          =      -0.5062830047442370 [Eh]
	 Opposite-Spin Energy      =      -1.5502071757882940 [Eh]
	 Correlation Energy        =      -2.0564901805325313 [Eh]
	 Total Energy              =    -492.6927385776629649 [Eh]

	 ================> DF-SCS-MP2 Energies <==================
	-----------------------------------------------------------
	 SCS Same-Spin Scale       =       0.3333333333333333 [-]
	 SCS Opposite-Spin Scale   =       1.2000000000000000 [-]
	 SCS Same-Spin Energy      =      -0.1687610015814123 [Eh]
	 SCS Opposite-Spin Energy  =      -1.8602486109459528 [Eh]
	 SCS Correlation Energy    =      -2.0290096125273651 [Eh]
	 SCS Total Energy          =    -492.6652580096578049 [Eh]
	-----------------------------------------------------------

  Dipole Moment: [D]
     X:     0.3722      Y:     2.7802      Z:     0.9527     Total:     2.9624

*** Psi4 exiting successfully. Buy a developer a beer!
