                               Psi4 1.4a3.dev225

  ==> Input File <==

--------------------------------------------------------------------------
#psi4
#
memory 32 gb

molecule  {
0 1
  O        1.6356851    -0.9441468     0.3654510
  O       -0.8249020    -1.8470020    -0.1920140
  N       -1.7073370     0.2644950     0.0041840
  N        1.2225400     1.0581630    -0.4400630
  C       -0.6757910    -0.6248990    -0.0657590
  C       -1.6242400     1.6701930     0.3734340
  C       -3.0587270    -0.2617480    -0.1203800
  C        0.7172850    -0.0860290    -0.0289380
  C        2.8466160    -0.3331830     0.2236370
  C        2.5869190     0.9090560    -0.2781450
  H       -2.0624300     2.2861190    -0.4188050
  H       -0.5911340     1.9718700     0.5118620
  H       -2.1906170     1.8355680     1.2974120
  H       -3.5636440    -0.2611770     0.8526080
  H       -3.0040100    -1.2812060    -0.4966650
  H       -3.6263720     0.3669880    -0.8129620
  H        3.7338670    -0.8757360     0.5106220
  H        3.2804870     1.6963590    -0.5371020
units angstrom
no_reorient  #important for SAPT in psi4, default
symmetry c1  #important for SAPT in psi4, default
}

set PROPERTIES_ORIGIN ["COM"]
properties('MP2/aug-cc-pvtz', properties = ['dipole'])
--------------------------------------------------------------------------

    Molecular point group: c1
  Charge       = 0
  Multiplicity = 1
  Basis Set: AUG-CC-PVTZ
    Blend: AUG-CC-PVTZ
  Basis Set: (AUG-CC-PVTZ AUX)
    Blend: AUG-CC-PVTZ-JKFIT

    Orbital Energies [Eh]
    ---------------------

    Doubly Occupied:

       1A    -20.654107     2A    -20.528114     3A    -15.601828
       4A    -15.584899     5A    -11.373769     6A    -11.352688
       7A    -11.310978     8A    -11.277231     9A    -11.265907
      10A    -11.259247    11A     -1.515819    12A     -1.382732
      13A     -1.258667    14A     -1.239163    15A     -1.064013
      16A     -0.977269    17A     -0.959324    18A     -0.868841
      19A     -0.844255    20A     -0.784550    21A     -0.728302
      22A     -0.689614    23A     -0.671910    24A     -0.661345
      25A     -0.653641    26A     -0.623410    27A     -0.590201
      28A     -0.582502    29A     -0.565969    30A     -0.561689
      31A     -0.541099    32A     -0.535096    33A     -0.477801
      34A     -0.461150    35A     -0.441872    36A     -0.380432
      37A     -0.352718

  @DF-RHF Final Energy:  -490.63851580765788

   => Energetics <=

    Nuclear Repulsion Energy =            529.8023096763456579
    One-Electron Energy =               -1719.6373423461643597
    Two-Electron Energy =                 699.1965168621608200
    Total Energy =                       -490.6385158076578819
  Basis Set: (AUG-CC-PVTZ AUX)
    Blend: AUG-CC-PVTZ-RI
    Molecular point group: c1

    Geometry (in Angstrom), charge = 0, multiplicity = 1:

       Center              X                  Y                   Z               Mass
    ------------   -----------------  -----------------  -----------------  -----------------
         O            1.581437352962    -0.908029499636     0.373799512733    15.994914619570
         O           -0.879149747038    -1.810884699636    -0.183665487267    15.994914619570
         N           -1.761584747038     0.300612300364     0.012532512733    14.003074004430
         N            1.168292252962     1.094280300364    -0.431714487267    14.003074004430
         C           -0.730038747038    -0.588781699636    -0.057410487267    12.000000000000
         C           -1.678487747038     1.706310300364     0.381782512733    12.000000000000
         C           -3.112974747038    -0.225630699636    -0.112031487267    12.000000000000
         C            0.663037252962    -0.049911699636    -0.020589487267    12.000000000000
         C            2.792368252962    -0.297065699636     0.231985512733    12.000000000000
         C            2.532671252962     0.945173300364    -0.269796487267    12.000000000000
         H           -2.116677747038     2.322236300364    -0.410456487267     1.007825032230
         H           -0.645381747038     2.007987300364     0.520210512733     1.007825032230
         H           -2.244864747038     1.871685300364     1.305760512733     1.007825032230
         H           -3.617891747038    -0.225059699636     0.860956512733     1.007825032230
         H           -3.058257747038    -1.245088699636    -0.488316487267     1.007825032230
         H           -3.680619747038     0.403105300364    -0.804613487267     1.007825032230
         H            3.679619252962    -0.839618699636     0.518970512733     1.007825032230
         H            3.226239252962     1.732476300364    -0.528753487267     1.007825032230

  Basis Set: AUG-CC-PVTZ
    Blend: AUG-CC-PVTZ
  Basis Set: (AUG-CC-PVTZ AUX)
    Blend: AUG-CC-PVTZ-JKFIT
	 Reference Energy          =    -490.6385158076578819 [Eh]
	 Singles Energy            =      -0.0000000000000000 [Eh]
	 Same-Spin Energy          =      -0.5060402454977888 [Eh]
	 Opposite-Spin Energy      =      -1.5480921788910529 [Eh]
	 Correlation Energy        =      -2.0541324243888415 [Eh]
	 Total Energy              =    -492.6926482320467358 [Eh]

	 ================> DF-SCS-MP2 Energies <==================
	-----------------------------------------------------------
	 SCS Same-Spin Scale       =       0.3333333333333333 [-]
	 SCS Opposite-Spin Scale   =       1.2000000000000000 [-]
	 SCS Same-Spin Energy      =      -0.1686800818325963 [Eh]
	 SCS Opposite-Spin Energy  =      -1.8577106146692635 [Eh]
	 SCS Correlation Energy    =      -2.0263906965018599 [Eh]
	 SCS Total Energy          =    -492.6649065041597169 [Eh]
	-----------------------------------------------------------

  Dipole Moment: [D]
     X:     0.4331      Y:     2.6610      Z:     1.0099     Total:     2.8789

*** Psi4 exiting successfully. Buy a developer a beer!
