                               Psi4 1.4a3.dev225

  ==> Input File <==

--------------------------------------------------------------------------
#psi4
#
memory 32 gb

molecule  {
0 1
  O        1.6407392    -0.9982950     0.3870558
  O       -0.8249020    -1.8470020    -0.1920140
  N       -1.7073370     0.2644950     0.0041840
  N        1.2225400     1.0581630    -0.4400630
  C       -0.6757910    -0.6248990    -0.0657590
  C       -1.6242400     1.6701930     0.3734340
  C       -3.0587270    -0.2617480    -0.1203800
  C        0.7172850    -0.0860290    -0.0289380
  C        2.8466160    -0.3331830     0.2236370
  C        2.5869190     0.9090560    -0.2781450
  H       -2.0624300     2.2861190    -0.4188050
  H       -0.5911340     1.9718700     0.5118620
  H       -2.1906170     1.8355680     1.2974120
  H       -3.5636440    -0.2611770     0.8526080
  H       -3.0040100    -1.2812060    -0.4966650
  H       -3.6263720     0.3669880    -0.8129620
  H        3.7338670    -0.8757360     0.5106220
  H        3.2804870     1.6963590    -0.5371020
units angstrom
no_reorient  #important for SAPT in psi4, default
symmetry c1  #important for SAPT in psi4, default
}

set PROPERTIES_ORIGIN ["COM"]
properties('MP2/aug-cc-pvtz', properties = ['dipole'])
--------------------------------------------------------------------------

    Molecular point group: c1
  Charge       = 0
  Multiplicity = 1
  Basis Set: AUG-CC-PVTZ
    Blend: AUG-CC-PVTZ
  Basis Set: (AUG-CC-PVTZ AUX)
    Blend: AUG-CC-PVTZ-JKFIT

    Orbital Energies [Eh]
    ---------------------

    Doubly Occupied:

       1A    -20.653259     2A    -20.527678     3A    -15.601777
       4A    -15.591754     5A    -11.373550     6A    -11.357572
       7A    -11.313482     8A    -11.279594     9A    -11.266440
      10A    -11.259238    11A     -1.491312    12A     -1.381963
      13A     -1.260037    14A     -1.243023    15A     -1.056337
      16A     -0.977184    17A     -0.959002    18A     -0.864719
      19A     -0.843230    20A     -0.778928    21A     -0.726493
      22A     -0.679537    23A     -0.665178    24A     -0.659210
      25A     -0.650412    26A     -0.622210    27A     -0.590780
      28A     -0.585353    29A     -0.566641    30A     -0.561955
      31A     -0.541279    32A     -0.534695    33A     -0.482107
      34A     -0.465856    35A     -0.441588    36A     -0.380337
      37A     -0.352289

  @DF-RHF Final Energy:  -490.63509171618131

   => Energetics <=

    Nuclear Repulsion Energy =            528.0198848192502510
    One-Electron Energy =               -1716.1379553276156003
    Two-Electron Energy =                 697.4829787921838715
    Total Energy =                       -490.6350917161813641
  Basis Set: (AUG-CC-PVTZ AUX)
    Blend: AUG-CC-PVTZ-RI
    Molecular point group: c1

    Geometry (in Angstrom), charge = 0, multiplicity = 1:

       Center              X                  Y                   Z               Mass
    ------------   -----------------  -----------------  -----------------  -----------------
         O            1.585914266620    -0.955993888182     0.392937009855    15.994914619570
         O           -0.879726933380    -1.804700888182    -0.186132790145    15.994914619570
         N           -1.762161933380     0.306796111818     0.010065209855    14.003074004430
         N            1.167715066620     1.100464111818    -0.434181790145    14.003074004430
         C           -0.730615933380    -0.582597888182    -0.059877790145    12.000000000000
         C           -1.679064933380     1.712494111818     0.379315209855    12.000000000000
         C           -3.113551933380    -0.219446888182    -0.114498790145    12.000000000000
         C            0.662460066620    -0.043727888182    -0.023056790145    12.000000000000
         C            2.791791066620    -0.290881888182     0.229518209855    12.000000000000
         C            2.532094066620     0.951357111818    -0.272263790145    12.000000000000
         H           -2.117254933380     2.328420111818    -0.412923790145     1.007825032230
         H           -0.645958933380     2.014171111818     0.517743209855     1.007825032230
         H           -2.245441933380     1.877869111818     1.303293209855     1.007825032230
         H           -3.618468933380    -0.218875888182     0.858489209855     1.007825032230
         H           -3.058834933380    -1.238904888182    -0.490783790145     1.007825032230
         H           -3.681196933380     0.409289111818    -0.807080790145     1.007825032230
         H            3.679042066620    -0.833434888182     0.516503209855     1.007825032230
         H            3.225662066620     1.738660111818    -0.531220790145     1.007825032230

  Basis Set: AUG-CC-PVTZ
    Blend: AUG-CC-PVTZ
  Basis Set: (AUG-CC-PVTZ AUX)
    Blend: AUG-CC-PVTZ-JKFIT
	 Reference Energy          =    -490.6350917161813072 [Eh]
	 Singles Energy            =      -0.0000000000000000 [Eh]
	 Same-Spin Energy          =      -0.5066410899392144 [Eh]
	 Opposite-Spin Energy      =      -1.5509073344927478 [Eh]
	 Correlation Energy        =      -2.0575484244319622 [Eh]
	 Total Energy              =    -492.6926401406132641 [Eh]

	 ================> DF-SCS-MP2 Energies <==================
	-----------------------------------------------------------
	 SCS Same-Spin Scale       =       0.3333333333333333 [-]
	 SCS Opposite-Spin Scale   =       1.2000000000000000 [-]
	 SCS Same-Spin Energy      =      -0.1688803633130715 [Eh]
	 SCS Opposite-Spin Energy  =      -1.8610888013912972 [Eh]
	 SCS Correlation Energy    =      -2.0299691647043687 [Eh]
	 SCS Total Energy          =    -492.6650608808856759 [Eh]
	-----------------------------------------------------------

  Dipole Moment: [D]
     X:     0.4021      Y:     2.8232      Z:     0.9367     Total:     3.0016

*** Psi4 exiting successfully. Buy a developer a beer!
