                               Psi4 1.4a3.dev225

  ==> Input File <==

--------------------------------------------------------------------------
#psi4
#
memory 32 gb

molecule  {
0 1
  O        1.6580350    -0.9827140     0.3821500
  O       -0.8249020    -1.8470020    -0.1920140
  N       -1.7073370     0.2644950     0.0041840
  N        1.2225400     1.0581630    -0.4400630
  C       -0.6757910    -0.6248990    -0.0657590
  C       -1.6242400     1.6701930     0.3734340
  C       -3.0587270    -0.2617480    -0.1203800
  C        0.7172850    -0.0860290    -0.0289380
  C        2.8466160    -0.3331830     0.2236370
  C        2.4944177     0.8863306    -0.2774901
  H       -2.0624300     2.2861190    -0.4188050
  H       -0.5911340     1.9718700     0.5118620
  H       -2.1906170     1.8355680     1.2974120
  H       -3.5636440    -0.2611770     0.8526080
  H       -3.0040100    -1.2812060    -0.4966650
  H       -3.6263720     0.3669880    -0.8129620
  H        3.7338670    -0.8757360     0.5106220
  H        3.2804870     1.6963590    -0.5371020
units angstrom
no_reorient  #important for SAPT in psi4, default
symmetry c1  #important for SAPT in psi4, default
}

set PROPERTIES_ORIGIN ["COM"]
properties('MP2/aug-cc-pvtz', properties = ['dipole'])
--------------------------------------------------------------------------

    Molecular point group: c1
  Charge       = 0
  Multiplicity = 1
  Basis Set: AUG-CC-PVTZ
    Blend: AUG-CC-PVTZ
  Basis Set: (AUG-CC-PVTZ AUX)
    Blend: AUG-CC-PVTZ-JKFIT

    Orbital Energies [Eh]
    ---------------------

    Doubly Occupied:

       1A    -20.656487     2A    -20.527066     3A    -15.602016
       4A    -15.589307     5A    -11.373652     6A    -11.357027
       7A    -11.307634     8A    -11.276684     9A    -11.267528
      10A    -11.259561    11A     -1.504574    12A     -1.382090
      13A     -1.279984    14A     -1.252720    15A     -1.056425
      16A     -0.977806    17A     -0.958951    18A     -0.864687
      19A     -0.847446    20A     -0.788264    21A     -0.728004
      22A     -0.685766    23A     -0.668060    24A     -0.661197
      25A     -0.653275    26A     -0.623288    27A     -0.587352
      28A     -0.574341    29A     -0.565466    30A     -0.562542
      31A     -0.541999    32A     -0.534821    33A     -0.486876
      34A     -0.480523    35A     -0.442279    36A     -0.380750
      37A     -0.343710

  @DF-RHF Final Energy:  -490.62362478846126

   => Energetics <=

    Nuclear Repulsion Energy =            530.5093654980069005
    One-Electron Energy =               -1720.9656633446325031
    Two-Electron Energy =                 699.8326730581643460
    Total Energy =                       -490.6236247884612567
  Basis Set: (AUG-CC-PVTZ AUX)
    Blend: AUG-CC-PVTZ-RI
    Molecular point group: c1

    Geometry (in Angstrom), charge = 0, multiplicity = 1:

       Center              X                  Y                   Z               Mass
    ------------   -----------------  -----------------  -----------------  -----------------
         O            1.609160225265    -0.940245186669     0.388535349290    15.994914619570
         O           -0.873776774735    -1.804533186669    -0.185628650710    15.994914619570
         N           -1.756211774735     0.306963813331     0.010569349290    14.003074004430
         N            1.173665225265     1.100631813331    -0.433677650710    14.003074004430
         C           -0.724665774735    -0.582430186669    -0.059373650710    12.000000000000
         C           -1.673114774735     1.712661813331     0.379819349290    12.000000000000
         C           -3.107601774735    -0.219279186669    -0.113994650710    12.000000000000
         C            0.668410225265    -0.043560186669    -0.022552650710    12.000000000000
         C            2.797741225265    -0.290714186669     0.230022349290    12.000000000000
         C            2.445542925265     0.928799413331    -0.271104750710    12.000000000000
         H           -2.111304774735     2.328587813331    -0.412419650710     1.007825032230
         H           -0.640008774735     2.014338813331     0.518247349290     1.007825032230
         H           -2.239491774735     1.878036813331     1.303797349290     1.007825032230
         H           -3.612518774735    -0.218708186669     0.858993349290     1.007825032230
         H           -3.052884774735    -1.238737186669    -0.490279650710     1.007825032230
         H           -3.675246774735     0.409456813331    -0.806576650710     1.007825032230
         H            3.684992225265    -0.833267186669     0.517007349290     1.007825032230
         H            3.231612225265     1.738827813331    -0.530716650710     1.007825032230

  Basis Set: AUG-CC-PVTZ
    Blend: AUG-CC-PVTZ
  Basis Set: (AUG-CC-PVTZ AUX)
    Blend: AUG-CC-PVTZ-JKFIT
	 Reference Energy          =    -490.6236247884612567 [Eh]
	 Singles Energy            =      -0.0000000000000000 [Eh]
	 Same-Spin Energy          =      -0.5080813530267682 [Eh]
	 Opposite-Spin Energy      =      -1.5505483083063814 [Eh]
	 Correlation Energy        =      -2.0586296613331494 [Eh]
	 Total Energy              =    -492.6822544497944136 [Eh]

	 ================> DF-SCS-MP2 Energies <==================
	-----------------------------------------------------------
	 SCS Same-Spin Scale       =       0.3333333333333333 [-]
	 SCS Opposite-Spin Scale   =       1.2000000000000000 [-]
	 SCS Same-Spin Energy      =      -0.1693604510089227 [Eh]
	 SCS Opposite-Spin Energy  =      -1.8606579699676575 [Eh]
	 SCS Correlation Energy    =      -2.0300184209765804 [Eh]
	 SCS Total Energy          =    -492.6536432094378597 [Eh]
	-----------------------------------------------------------

  Dipole Moment: [D]
     X:     0.3426      Y:     2.7316      Z:     0.9718     Total:     2.9195

*** Psi4 exiting successfully. Buy a developer a beer!
