                               Psi4 1.4a3.dev225

  ==> Input File <==

--------------------------------------------------------------------------
#psi4
#
memory 32 gb

molecule  {
0 1
  O        1.6580350    -0.9827140     0.3821500
  O       -0.8249020    -1.8470020    -0.1920140
  N       -1.7073370     0.2644950     0.0041840
  N        1.2225400     1.0581630    -0.4400630
  C       -0.6757910    -0.6248990    -0.0657590
  C       -1.6242400     1.6701930     0.3734340
  C       -3.0587270    -0.2617480    -0.1203800
  C        0.7172850    -0.0860290    -0.0289380
  C        2.8466160    -0.3331830     0.2236370
  C        2.5869190     0.9090560    -0.2781450
  H       -2.0624300     2.2861190    -0.4188050
  H       -0.5911340     1.9718700     0.5118620
  H       -2.1906170     1.8355680     1.2974120
  H       -3.5636440    -0.2611770     0.8526080
  H       -3.0040100    -1.2812060    -0.4966650
  H       -3.6263720     0.3669880    -0.8129620
  H        3.7338670    -0.8757360     0.5106220
  H        3.3446639     1.7692093    -0.5610637
units angstrom
no_reorient  #important for SAPT in psi4, default
symmetry c1  #important for SAPT in psi4, default
}

set PROPERTIES_ORIGIN ["COM"]
properties('MP2/aug-cc-pvtz', properties = ['dipole'])
--------------------------------------------------------------------------

    Molecular point group: c1
  Charge       = 0
  Multiplicity = 1
  Basis Set: AUG-CC-PVTZ
    Blend: AUG-CC-PVTZ
  Basis Set: (AUG-CC-PVTZ AUX)
    Blend: AUG-CC-PVTZ-JKFIT

    Orbital Energies [Eh]
    ---------------------

    Doubly Occupied:

       1A    -20.654166     2A    -20.528087     3A    -15.602161
       4A    -15.592722     5A    -11.374491     6A    -11.356989
       7A    -11.312922     8A    -11.287551     9A    -11.266609
      10A    -11.259535    11A     -1.499031    12A     -1.382725
      13A     -1.260233    14A     -1.243082    15A     -1.056556
      16A     -0.977426    17A     -0.958996    18A     -0.863340
      19A     -0.840043    20A     -0.777100    21A     -0.727044
      22A     -0.682398    23A     -0.666517    24A     -0.659843
      25A     -0.652032    26A     -0.612178    27A     -0.585933
      28A     -0.580046    29A     -0.566938    30A     -0.562194
      31A     -0.541881    32A     -0.535275    33A     -0.481675
      34A     -0.465679    35A     -0.442181    36A     -0.380713
      37A     -0.351463

  @DF-RHF Final Energy:  -490.62916068141271

   => Energetics <=

    Nuclear Repulsion Energy =            527.8383226501706531
    One-Electron Energy =               -1715.7594527855924298
    Two-Electron Energy =                 697.2919694540089495
    Total Energy =                       -490.6291606814127135
  Basis Set: (AUG-CC-PVTZ AUX)
    Blend: AUG-CC-PVTZ-RI
    Molecular point group: c1

    Geometry (in Angstrom), charge = 0, multiplicity = 1:

       Center              X                  Y                   Z               Mass
    ------------   -----------------  -----------------  -----------------  -----------------
         O            1.600773058215    -0.942716475198     0.388763882248    15.994914619570
         O           -0.882163941785    -1.807004475198    -0.185400117752    15.994914619570
         N           -1.764598941785     0.304492524802     0.010797882248    14.003074004430
         N            1.165278058215     1.098160524802    -0.433449117752    14.003074004430
         C           -0.733052941785    -0.584901475198    -0.059145117752    12.000000000000
         C           -1.681501941785     1.710190524802     0.380047882248    12.000000000000
         C           -3.115988941785    -0.221750475198    -0.113766117752    12.000000000000
         C            0.660023058215    -0.046031475198    -0.022324117752    12.000000000000
         C            2.789354058215    -0.293185475198     0.230250882248    12.000000000000
         C            2.529657058215     0.949053524802    -0.271531117752    12.000000000000
         H           -2.119691941785     2.326116524802    -0.412191117752     1.007825032230
         H           -0.648395941785     2.011867524802     0.518475882248     1.007825032230
         H           -2.247878941785     1.875565524802     1.304025882248     1.007825032230
         H           -3.620905941785    -0.221179475198     0.859221882248     1.007825032230
         H           -3.061271941785    -1.241208475198    -0.490051117752     1.007825032230
         H           -3.683633941785     0.406985524802    -0.806348117752     1.007825032230
         H            3.676605058215    -0.835738475198     0.517235882248     1.007825032230
         H            3.287401958215     1.809206824802    -0.554449817752     1.007825032230

  Basis Set: AUG-CC-PVTZ
    Blend: AUG-CC-PVTZ
  Basis Set: (AUG-CC-PVTZ AUX)
    Blend: AUG-CC-PVTZ-JKFIT
	 Reference Energy          =    -490.6291606814127135 [Eh]
	 Singles Energy            =      -0.0000000000000000 [Eh]
	 Same-Spin Energy          =      -0.5068165600076959 [Eh]
	 Opposite-Spin Energy      =      -1.5509589044146250 [Eh]
	 Correlation Energy        =      -2.0577754644223210 [Eh]
	 Total Energy              =    -492.6869361458350340 [Eh]

	 ================> DF-SCS-MP2 Energies <==================
	-----------------------------------------------------------
	 SCS Same-Spin Scale       =       0.3333333333333333 [-]
	 SCS Opposite-Spin Scale   =       1.2000000000000000 [-]
	 SCS Same-Spin Energy      =      -0.1689388533358986 [Eh]
	 SCS Opposite-Spin Energy  =      -1.8611506852975499 [Eh]
	 SCS Correlation Energy    =      -2.0300895386334483 [Eh]
	 SCS Total Energy          =    -492.6592502200461468 [Eh]
	-----------------------------------------------------------

  Dipole Moment: [D]
     X:     0.3555      Y:     2.7835      Z:     0.9504     Total:     2.9627

*** Psi4 exiting successfully. Buy a developer a beer!
