                               Psi4 1.4a3.dev225

  ==> Input File <==

--------------------------------------------------------------------------
#psi4
#
memory 32 gb

molecule  {
0 1
  O        1.6580350    -0.9827140     0.3821500
  O       -0.8249020    -1.8470020    -0.1920140
  N       -1.7073370     0.2644950     0.0041840
  N        1.2225400     1.0581630    -0.4400630
  C       -0.6757910    -0.6248990    -0.0657590
  C       -1.6242400     1.6701930     0.3734340
  C       -3.0587270    -0.2617480    -0.1203800
  C        0.7172850    -0.0860290    -0.0289380
  C        2.8466160    -0.3331830     0.2236370
  C        2.5869190     0.9090560    -0.2781450
  H       -2.0624300     2.2861190    -0.4188050
  H       -0.5911340     1.9718700     0.5118620
  H       -2.1906170     1.8355680     1.2974120
  H       -3.5636440    -0.2611770     0.8526080
  H       -3.0040100    -1.2812060    -0.4966650
  H       -3.6159962     0.3554955    -0.8003025
  H        3.7338670    -0.8757360     0.5106220
  H        3.2804870     1.6963590    -0.5371020
units angstrom
no_reorient  #important for SAPT in psi4, default
symmetry c1  #important for SAPT in psi4, default
}

set PROPERTIES_ORIGIN ["COM"]
properties('MP2/aug-cc-pvtz', properties = ['dipole'])
--------------------------------------------------------------------------

    Molecular point group: c1
  Charge       = 0
  Multiplicity = 1
  Basis Set: AUG-CC-PVTZ
    Blend: AUG-CC-PVTZ
  Basis Set: (AUG-CC-PVTZ AUX)
    Blend: AUG-CC-PVTZ-JKFIT

    Orbital Energies [Eh]
    ---------------------

    Doubly Occupied:

       1A    -20.653585     2A    -20.527661     3A    -15.601700
       4A    -15.591754     5A    -11.374011     6A    -11.356265
       7A    -11.312368     8A    -11.277088     9A    -11.266454
      10A    -11.256954    11A     -1.498432    12A     -1.382314
      13A     -1.259889    14A     -1.242730    15A     -1.057760
      16A     -0.978181    17A     -0.959614    18A     -0.866211
      19A     -0.844144    20A     -0.781073    21A     -0.727180
      22A     -0.682469    23A     -0.667396    24A     -0.660987
      25A     -0.652040    26A     -0.622173    27A     -0.588377
      28A     -0.585556    29A     -0.568102    30A     -0.563340
      31A     -0.542285    32A     -0.535025    33A     -0.481866
      34A     -0.465123    35A     -0.441792    36A     -0.380534
      37A     -0.351125

  @DF-RHF Final Energy:  -490.63688945902152

   => Energetics <=

    Nuclear Repulsion Energy =            528.4343245684420936
    One-Electron Energy =               -1716.9353135425114942
    Two-Electron Energy =                 697.8640995150479966
    Total Energy =                       -490.6368894590215177
  Basis Set: (AUG-CC-PVTZ AUX)
    Blend: AUG-CC-PVTZ-RI
    Molecular point group: c1

    Geometry (in Angstrom), charge = 0, multiplicity = 1:

       Center              X                  Y                   Z               Mass
    ------------   -----------------  -----------------  -----------------  -----------------
         O            1.601160196913    -0.942109566384     0.388500365634    15.994914619570
         O           -0.881776803087    -1.806397566384    -0.185663634366    15.994914619570
         N           -1.764211803087     0.305099433616     0.010534365634    14.003074004430
         N            1.165665196913     1.098767433616    -0.433712634366    14.003074004430
         C           -0.732665803087    -0.584294566384    -0.059408634366    12.000000000000
         C           -1.681114803087     1.710797433616     0.379784365634    12.000000000000
         C           -3.115601803087    -0.221143566384    -0.114029634366    12.000000000000
         C            0.660410196913    -0.045424566384    -0.022587634366    12.000000000000
         C            2.789741196913    -0.292578566384     0.229987365634    12.000000000000
         C            2.530044196913     0.949660433616    -0.271794634366    12.000000000000
         H           -2.119304803087     2.326723433616    -0.412454634366     1.007825032230
         H           -0.648008803087     2.012474433616     0.518212365634     1.007825032230
         H           -2.247491803087     1.876172433616     1.303762365634     1.007825032230
         H           -3.620518803087    -0.220572566384     0.858958365634     1.007825032230
         H           -3.060884803087    -1.240601566384    -0.490314634366     1.007825032230
         H           -3.672871003087     0.396099933616    -0.793952134366     1.007825032230
         H            3.676992196913    -0.835131566384     0.516972365634     1.007825032230
         H            3.223612196913     1.736963433616    -0.530751634366     1.007825032230

  Basis Set: AUG-CC-PVTZ
    Blend: AUG-CC-PVTZ
  Basis Set: (AUG-CC-PVTZ AUX)
    Blend: AUG-CC-PVTZ-JKFIT
	 Reference Energy          =    -490.6368894590215177 [Eh]
	 Singles Energy            =      -0.0000000000000000 [Eh]
	 Same-Spin Energy          =      -0.5065727070585415 [Eh]
	 Opposite-Spin Energy      =      -1.5499745704198358 [Eh]
	 Correlation Energy        =      -2.0565472774783773 [Eh]
	 Total Energy              =    -492.6934367364999048 [Eh]

	 ================> DF-SCS-MP2 Energies <==================
	-----------------------------------------------------------
	 SCS Same-Spin Scale       =       0.3333333333333333 [-]
	 SCS Opposite-Spin Scale   =       1.2000000000000000 [-]
	 SCS Same-Spin Energy      =      -0.1688575690195138 [Eh]
	 SCS Opposite-Spin Energy  =      -1.8599694845038028 [Eh]
	 SCS Correlation Energy    =      -2.0288270535233166 [Eh]
	 SCS Total Energy          =    -492.6657165125448614 [Eh]
	-----------------------------------------------------------

  Dipole Moment: [D]
     X:     0.3620      Y:     2.7792      Z:     0.9492     Total:     2.9590

*** Psi4 exiting successfully. Buy a developer a beer!
