                               Psi4 1.4a3.dev225

  ==> Input File <==

--------------------------------------------------------------------------
#psi4
#
memory 32 gb

molecule  {
0 1
  O        1.6580350    -0.9827140     0.3821500
  O       -0.8249020    -1.8470020    -0.1920140
  N       -1.7073370     0.2644950     0.0041840
  N        1.2225400     1.0581630    -0.4400630
  C       -0.6782006    -0.6446482    -0.0677993
  C       -1.6242400     1.6701930     0.3734340
  C       -3.0587270    -0.2617480    -0.1203800
  C        0.7172850    -0.0860290    -0.0289380
  C        2.8466160    -0.3331830     0.2236370
  C        2.5869190     0.9090560    -0.2781450
  H       -2.0624300     2.2861190    -0.4188050
  H       -0.5911340     1.9718700     0.5118620
  H       -2.1906170     1.8355680     1.2974120
  H       -3.5636440    -0.2611770     0.8526080
  H       -3.0040100    -1.2812060    -0.4966650
  H       -3.6263720     0.3669880    -0.8129620
  H        3.7338670    -0.8757360     0.5106220
  H        3.2804870     1.6963590    -0.5371020
units angstrom
no_reorient  #important for SAPT in psi4, default
symmetry c1  #important for SAPT in psi4, default
}

set PROPERTIES_ORIGIN ["COM"]
properties('MP2/aug-cc-pvtz', properties = ['dipole'])
--------------------------------------------------------------------------

    Molecular point group: c1
  Charge       = 0
  Multiplicity = 1
  Basis Set: AUG-CC-PVTZ
    Blend: AUG-CC-PVTZ
  Basis Set: (AUG-CC-PVTZ AUX)
    Blend: AUG-CC-PVTZ-JKFIT

    Orbital Energies [Eh]
    ---------------------

    Doubly Occupied:

       1A    -20.653079     2A    -20.532270     3A    -15.598852
       4A    -15.591086     5A    -11.374587     6A    -11.355702
       7A    -11.311719     8A    -11.276755     9A    -11.265287
      10A    -11.258055    11A     -1.498200    12A     -1.395085
      13A     -1.258731    14A     -1.241675    15A     -1.056439
      16A     -0.975827    17A     -0.955740    18A     -0.864628
      19A     -0.842189    20A     -0.780187    21A     -0.726451
      22A     -0.682952    23A     -0.667643    24A     -0.660888
      25A     -0.651651    26A     -0.621396    27A     -0.590397
      28A     -0.587001    29A     -0.565578    30A     -0.561035
      31A     -0.544599    32A     -0.537441    33A     -0.481898
      34A     -0.464887    35A     -0.444220    36A     -0.380456
      37A     -0.350768

  @DF-RHF Final Energy:  -490.63782064553828

   => Energetics <=

    Nuclear Repulsion Energy =            528.3209761779835389
    One-Electron Energy =               -1716.7068882917706105
    Two-Electron Energy =                 697.7480914682487310
    Total Energy =                       -490.6378206455383406
  Basis Set: (AUG-CC-PVTZ AUX)
    Blend: AUG-CC-PVTZ-RI
    Molecular point group: c1

    Geometry (in Angstrom), charge = 0, multiplicity = 1:

       Center              X                  Y                   Z               Mass
    ------------   -----------------  -----------------  -----------------  -----------------
         O            1.601441309228    -0.940500182833     0.388766269813    15.994914619570
         O           -0.881495690772    -1.804788182833    -0.185397730187    15.994914619570
         N           -1.763930690772     0.306708817167     0.010800269813    14.003074004430
         N            1.165946309228     1.100376817167    -0.433446730187    14.003074004430
         C           -0.734794290772    -0.602434382833    -0.061183030187    12.000000000000
         C           -1.680833690772     1.712406817167     0.380050269813    12.000000000000
         C           -3.115320690772    -0.219534182833    -0.113763730187    12.000000000000
         C            0.660691309228    -0.043815182833    -0.022321730187    12.000000000000
         C            2.790022309228    -0.290969182833     0.230253269813    12.000000000000
         C            2.530325309228     0.951269817167    -0.271528730187    12.000000000000
         H           -2.119023690772     2.328332817167    -0.412188730187     1.007825032230
         H           -0.647727690772     2.014083817167     0.518478269813     1.007825032230
         H           -2.247210690772     1.877781817167     1.304028269813     1.007825032230
         H           -3.620237690772    -0.218963182833     0.859224269813     1.007825032230
         H           -3.060603690772    -1.238992182833    -0.490048730187     1.007825032230
         H           -3.682965690772     0.409201817167    -0.806345730187     1.007825032230
         H            3.677273309228    -0.833522182833     0.517238269813     1.007825032230
         H            3.223893309228     1.738572817167    -0.530485730187     1.007825032230

  Basis Set: AUG-CC-PVTZ
    Blend: AUG-CC-PVTZ
  Basis Set: (AUG-CC-PVTZ AUX)
    Blend: AUG-CC-PVTZ-JKFIT
	 Reference Energy          =    -490.6378206455382838 [Eh]
	 Singles Energy            =      -0.0000000000000000 [Eh]
	 Same-Spin Energy          =      -0.5061055106339571 [Eh]
	 Opposite-Spin Energy      =      -1.5491806832795885 [Eh]
	 Correlation Energy        =      -2.0552861939135454 [Eh]
	 Total Energy              =    -492.6931068394518434 [Eh]

	 ================> DF-SCS-MP2 Energies <==================
	-----------------------------------------------------------
	 SCS Same-Spin Scale       =       0.3333333333333333 [-]
	 SCS Opposite-Spin Scale   =       1.2000000000000000 [-]
	 SCS Same-Spin Energy      =      -0.1687018368779857 [Eh]
	 SCS Opposite-Spin Energy  =      -1.8590168199355062 [Eh]
	 SCS Correlation Energy    =      -2.0277186568134917 [Eh]
	 SCS Total Energy          =    -492.6655393023517604 [Eh]
	-----------------------------------------------------------

  Dipole Moment: [D]
     X:     0.4059      Y:     2.6317      Z:     0.9374     Total:     2.8230

*** Psi4 exiting successfully. Buy a developer a beer!
