                               Psi4 1.4a3.dev225

  ==> Input File <==

--------------------------------------------------------------------------
#psi4
#
memory 32 gb

molecule  {
0 1
  O        1.6580350    -0.9827140     0.3821500
  O       -0.8249020    -1.8470020    -0.1920140
  N       -1.7073370     0.2644950     0.0041840
  N        1.2225400     1.0581630    -0.4400630
  C       -0.6757910    -0.6248990    -0.0657590
  C       -1.6242400     1.6701930     0.3734340
  C       -3.0587270    -0.2617480    -0.1203800
  C        0.7172850    -0.0860290    -0.0289380
  C        2.8466160    -0.3331830     0.2236370
  C        2.5404819     0.8984436    -0.2781232
  H       -2.0624300     2.2861190    -0.4188050
  H       -0.5911340     1.9718700     0.5118620
  H       -2.1906170     1.8355680     1.2974120
  H       -3.5636440    -0.2611770     0.8526080
  H       -3.0040100    -1.2812060    -0.4966650
  H       -3.6263720     0.3669880    -0.8129620
  H        3.7338670    -0.8757360     0.5106220
  H        3.2804870     1.6963590    -0.5371020
units angstrom
no_reorient  #important for SAPT in psi4, default
symmetry c1  #important for SAPT in psi4, default
}

set PROPERTIES_ORIGIN ["COM"]
properties('MP2/aug-cc-pvtz', properties = ['dipole'])
--------------------------------------------------------------------------

    Molecular point group: c1
  Charge       = 0
  Multiplicity = 1
  Basis Set: AUG-CC-PVTZ
    Blend: AUG-CC-PVTZ
  Basis Set: (AUG-CC-PVTZ AUX)
    Blend: AUG-CC-PVTZ-JKFIT

    Orbital Energies [Eh]
    ---------------------

    Doubly Occupied:

       1A    -20.654898     2A    -20.527415     3A    -15.601948
       4A    -15.590590     5A    -11.373876     6A    -11.356561
       7A    -11.309843     8A    -11.276732     9A    -11.266945
      10A    -11.259447    11A     -1.501160    12A     -1.382243
      13A     -1.266938    14A     -1.249961    15A     -1.057042
      16A     -0.977520    17A     -0.958959    18A     -0.864074
      19A     -0.846285    20A     -0.784213    21A     -0.727592
      22A     -0.683855    23A     -0.667788    24A     -0.660711
      25A     -0.652537    26A     -0.621692    27A     -0.586717
      28A     -0.580927    29A     -0.567049    30A     -0.562298
      31A     -0.541860    32A     -0.535018    33A     -0.484991
      34A     -0.472793    35A     -0.442199    36A     -0.380600
      37A     -0.347354

  @DF-RHF Final Energy:  -490.63351774469413

   => Energetics <=

    Nuclear Repulsion Energy =            529.3979224351301127
    One-Electron Energy =               -1718.8176135068574695
    Two-Electron Energy =                 698.7861733270332252
    Total Energy =                       -490.6335177446941316
  Basis Set: (AUG-CC-PVTZ AUX)
    Blend: AUG-CC-PVTZ-RI
    Molecular point group: c1

    Geometry (in Angstrom), charge = 0, multiplicity = 1:

       Center              X                  Y                   Z               Mass
    ------------   -----------------  -----------------  -----------------  -----------------
         O            1.605213516610    -0.941283009576     0.388589592308    15.994914619570
         O           -0.877723483390    -1.805571009576    -0.185574407692    15.994914619570
         N           -1.760158483390     0.305925990424     0.010623592308    14.003074004430
         N            1.169718516610     1.099593990424    -0.433623407692    14.003074004430
         C           -0.728612483390    -0.583468009576    -0.059319407692    12.000000000000
         C           -1.677061483390     1.711623990424     0.379873592308    12.000000000000
         C           -3.111548483390    -0.220317009576    -0.113940407692    12.000000000000
         C            0.664463516610    -0.044598009576    -0.022498407692    12.000000000000
         C            2.793794516610    -0.291752009576     0.230076592308    12.000000000000
         C            2.487660416610     0.939874590424    -0.271683607692    12.000000000000
         H           -2.115251483390     2.327549990424    -0.412365407692     1.007825032230
         H           -0.643955483390     2.013300990424     0.518301592308     1.007825032230
         H           -2.243438483390     1.876998990424     1.303851592308     1.007825032230
         H           -3.616465483390    -0.219746009576     0.859047592308     1.007825032230
         H           -3.056831483390    -1.239775009576    -0.490225407692     1.007825032230
         H           -3.679193483390     0.408418990424    -0.806522407692     1.007825032230
         H            3.681045516610    -0.834305009576     0.517061592308     1.007825032230
         H            3.227665516610     1.737789990424    -0.530662407692     1.007825032230

  Basis Set: AUG-CC-PVTZ
    Blend: AUG-CC-PVTZ
  Basis Set: (AUG-CC-PVTZ AUX)
    Blend: AUG-CC-PVTZ-JKFIT
	 Reference Energy          =    -490.6335177446941316 [Eh]
	 Singles Energy            =      -0.0000000000000000 [Eh]
	 Same-Spin Energy          =      -0.5072698658368926 [Eh]
	 Opposite-Spin Energy      =      -1.5501416308493865 [Eh]
	 Correlation Energy        =      -2.0574114966862789 [Eh]
	 Total Energy              =    -492.6909292413803882 [Eh]

	 ================> DF-SCS-MP2 Energies <==================
	-----------------------------------------------------------
	 SCS Same-Spin Scale       =       0.3333333333333333 [-]
	 SCS Opposite-Spin Scale   =       1.2000000000000000 [-]
	 SCS Same-Spin Energy      =      -0.1690899552789642 [Eh]
	 SCS Opposite-Spin Energy  =      -1.8601699570192638 [Eh]
	 SCS Correlation Energy    =      -2.0292599122982278 [Eh]
	 SCS Total Energy          =    -492.6627776569923753 [Eh]
	-----------------------------------------------------------

  Dipole Moment: [D]
     X:     0.3669      Y:     2.7575      Z:     0.9624     Total:     2.9435

*** Psi4 exiting successfully. Buy a developer a beer!
