                               Psi4 1.4a3.dev225

  ==> Input File <==

--------------------------------------------------------------------------
#psi4
#
memory 32 gb

molecule  {
0 1
  O        1.6580350    -0.9827140     0.3821500
  O       -0.8249020    -1.8470020    -0.1920140
  N       -1.7073370     0.2644950     0.0041840
  N        1.2225400     1.0581630    -0.4400630
  C       -0.6697669    -0.5755260    -0.0606583
  C       -1.6242400     1.6701930     0.3734340
  C       -3.0587270    -0.2617480    -0.1203800
  C        0.7172850    -0.0860290    -0.0289380
  C        2.8466160    -0.3331830     0.2236370
  C        2.5869190     0.9090560    -0.2781450
  H       -2.0624300     2.2861190    -0.4188050
  H       -0.5911340     1.9718700     0.5118620
  H       -2.1906170     1.8355680     1.2974120
  H       -3.5636440    -0.2611770     0.8526080
  H       -3.0040100    -1.2812060    -0.4966650
  H       -3.6263720     0.3669880    -0.8129620
  H        3.7338670    -0.8757360     0.5106220
  H        3.2804870     1.6963590    -0.5371020
units angstrom
no_reorient  #important for SAPT in psi4, default
symmetry c1  #important for SAPT in psi4, default
}

set PROPERTIES_ORIGIN ["COM"]
properties('MP2/aug-cc-pvtz', properties = ['dipole'])
--------------------------------------------------------------------------

    Molecular point group: c1
  Charge       = 0
  Multiplicity = 1
  Basis Set: AUG-CC-PVTZ
    Blend: AUG-CC-PVTZ
  Basis Set: (AUG-CC-PVTZ AUX)
    Blend: AUG-CC-PVTZ-JKFIT

    Orbital Energies [Eh]
    ---------------------

    Doubly Occupied:

       1A    -20.654980     2A    -20.516825     3A    -15.609636
       4A    -15.593499     5A    -11.372701     6A    -11.357652
       7A    -11.314125     8A    -11.278011     9A    -11.269309
      10A    -11.262776    11A     -1.499250    12A     -1.357715
      13A     -1.259525    14A     -1.244591    15A     -1.060973
      16A     -0.981217    17A     -0.967042    18A     -0.869779
      19A     -0.847872    20A     -0.782880    21A     -0.730025
      22A     -0.682457    23A     -0.669211    24A     -0.660877
      25A     -0.651414    26A     -0.624320    27A     -0.588516
      28A     -0.574020    29A     -0.571853    30A     -0.564853
      31A     -0.540445    32A     -0.524698    33A     -0.482504
      34A     -0.465678    35A     -0.433857    36A     -0.379514
      37A     -0.351825

  @DF-RHF Final Energy:  -490.62932955642179

   => Energetics <=

    Nuclear Repulsion Energy =            528.4242591192727332
    One-Electron Energy =               -1716.9143302204474821
    Two-Electron Energy =                 697.8607415447528410
    Total Energy =                       -490.6293295564217942
  Basis Set: (AUG-CC-PVTZ AUX)
    Blend: AUG-CC-PVTZ-RI
    Molecular point group: c1

    Geometry (in Angstrom), charge = 0, multiplicity = 1:

       Center              X                  Y                   Z               Mass
    ------------   -----------------  -----------------  -----------------  -----------------
         O            1.600718722995    -0.946422464887     0.388154440095    15.994914619570
         O           -0.882218277005    -1.810710464887    -0.186009559905    15.994914619570
         N           -1.764653277005     0.300786535113     0.010188440095    14.003074004430
         N            1.165223722995     1.094454535113    -0.434058559905    14.003074004430
         C           -0.727083177005    -0.539234464887    -0.054653859905    12.000000000000
         C           -1.681556277005     1.706484535113     0.379438440095    12.000000000000
         C           -3.116043277005    -0.225456464887    -0.114375559905    12.000000000000
         C            0.659968722995    -0.049737464887    -0.022933559905    12.000000000000
         C            2.789299722995    -0.296891464887     0.229641440095    12.000000000000
         C            2.529602722995     0.945347535113    -0.272140559905    12.000000000000
         H           -2.119746277005     2.322410535113    -0.412800559905     1.007825032230
         H           -0.648450277005     2.008161535113     0.517866440095     1.007825032230
         H           -2.247933277005     1.871859535113     1.303416440095     1.007825032230
         H           -3.620960277005    -0.224885464887     0.858612440095     1.007825032230
         H           -3.061326277005    -1.244914464887    -0.490660559905     1.007825032230
         H           -3.683688277005     0.403279535113    -0.806957559905     1.007825032230
         H            3.676550722995    -0.839444464887     0.516626440095     1.007825032230
         H            3.223170722995     1.732650535113    -0.531097559905     1.007825032230

  Basis Set: AUG-CC-PVTZ
    Blend: AUG-CC-PVTZ
  Basis Set: (AUG-CC-PVTZ AUX)
    Blend: AUG-CC-PVTZ-JKFIT
	 Reference Energy          =    -490.6293295564217942 [Eh]
	 Singles Energy            =      -0.0000000000000000 [Eh]
	 Same-Spin Energy          =      -0.5077812628439360 [Eh]
	 Opposite-Spin Energy      =      -1.5524303644953106 [Eh]
	 Correlation Energy        =      -2.0602116273392466 [Eh]
	 Total Energy              =    -492.6895411837610368 [Eh]

	 ================> DF-SCS-MP2 Energies <==================
	-----------------------------------------------------------
	 SCS Same-Spin Scale       =       0.3333333333333333 [-]
	 SCS Opposite-Spin Scale   =       1.2000000000000000 [-]
	 SCS Same-Spin Energy      =      -0.1692604209479787 [Eh]
	 SCS Opposite-Spin Energy  =      -1.8629164373943725 [Eh]
	 SCS Correlation Energy    =      -2.0321768583423512 [Eh]
	 SCS Total Energy          =    -492.6615064147641192 [Eh]
	-----------------------------------------------------------

  Dipole Moment: [D]
     X:     0.2910      Y:     3.1044      Z:     0.9980     Total:     3.2738

*** Psi4 exiting successfully. Buy a developer a beer!
