                               Psi4 1.4a3.dev225

  ==> Input File <==

--------------------------------------------------------------------------
#psi4
#
memory 32 gb

molecule  {
0 1
  O        1.6580350    -0.9827140     0.3821500
  O       -0.8249020    -1.8470020    -0.1920140
  N       -1.7073370     0.2644950     0.0041840
  N        1.2225400     1.0581630    -0.4400630
  C       -0.6757910    -0.6248990    -0.0657590
  C       -1.6242400     1.6701930     0.3734340
  C       -3.0587270    -0.2617480    -0.1203800
  C        0.7172850    -0.0860290    -0.0289380
  C        2.8466160    -0.3331830     0.2236370
  C        2.5869190     0.9090560    -0.2781450
  H       -2.0624300     2.2861190    -0.4188050
  H       -0.5911340     1.9718700     0.5118620
  H       -2.1906170     1.8355680     1.2974120
  H       -3.5636440    -0.2611770     0.8526080
  H       -3.0040100    -1.2812060    -0.4966650
  H       -3.6263720     0.3669880    -0.8129620
  H        3.7338670    -0.8757360     0.5106220
  H        3.2933224     1.7109291    -0.5418943
units angstrom
no_reorient  #important for SAPT in psi4, default
symmetry c1  #important for SAPT in psi4, default
}

set PROPERTIES_ORIGIN ["COM"]
properties('MP2/aug-cc-pvtz', properties = ['dipole'])
--------------------------------------------------------------------------

    Molecular point group: c1
  Charge       = 0
  Multiplicity = 1
  Basis Set: AUG-CC-PVTZ
    Blend: AUG-CC-PVTZ
  Basis Set: (AUG-CC-PVTZ AUX)
    Blend: AUG-CC-PVTZ-JKFIT

    Orbital Energies [Eh]
    ---------------------

    Doubly Occupied:

       1A    -20.653745     2A    -20.527869     3A    -15.601989
       4A    -15.591990     5A    -11.374236     6A    -11.356461
       7A    -11.312508     8A    -11.279299     9A    -11.266489
      10A    -11.259418    11A     -1.498596    12A     -1.382516
      13A     -1.260001    14A     -1.242826    15A     -1.057462
      16A     -0.977342    17A     -0.959086    18A     -0.865208
      19A     -0.843083    20A     -0.780144    21A     -0.727223
      22A     -0.682400    23A     -0.667217    24A     -0.660250
      25A     -0.651951    26A     -0.619789    27A     -0.587249
      28A     -0.585479    29A     -0.567098    30A     -0.562084
      31A     -0.541729    32A     -0.535211    33A     -0.481897
      34A     -0.465264    35A     -0.441979    36A     -0.380558
      37A     -0.351220

  @DF-RHF Final Energy:  -490.63618424590379

   => Energetics <=

    Nuclear Repulsion Energy =            528.2344811858273488
    One-Electron Energy =               -1716.5435992204011200
    Two-Electron Energy =                 697.6729337886698659
    Total Energy =                       -490.6361842459037916
  Basis Set: (AUG-CC-PVTZ AUX)
    Blend: AUG-CC-PVTZ-RI
    Molecular point group: c1

    Geometry (in Angstrom), charge = 0, multiplicity = 1:

       Center              X                  Y                   Z               Mass
    ------------   -----------------  -----------------  -----------------  -----------------
         O            1.601142498272    -0.942297106063     0.388625944240    15.994914619570
         O           -0.881794501728    -1.806585106063    -0.185538055760    15.994914619570
         N           -1.764229501728     0.304911893937     0.010659944240    14.003074004430
         N            1.165647498272     1.098579893937    -0.433587055760    14.003074004430
         C           -0.732683501728    -0.584482106063    -0.059283055760    12.000000000000
         C           -1.681132501728     1.710609893937     0.379909944240    12.000000000000
         C           -3.115619501728    -0.221331106063    -0.113904055760    12.000000000000
         C            0.660392498272    -0.045612106063    -0.022462055760    12.000000000000
         C            2.789723498272    -0.292766106063     0.230112944240    12.000000000000
         C            2.530026498272     0.949472893937    -0.271669055760    12.000000000000
         H           -2.119322501728     2.326535893937    -0.412329055760     1.007825032230
         H           -0.648026501728     2.012286893937     0.518337944240     1.007825032230
         H           -2.247509501728     1.875984893937     1.303887944240     1.007825032230
         H           -3.620536501728    -0.220760106063     0.859083944240     1.007825032230
         H           -3.060902501728    -1.240789106063    -0.490189055760     1.007825032230
         H           -3.683264501728     0.407404893937    -0.806486055760     1.007825032230
         H            3.676974498272    -0.835319106063     0.517097944240     1.007825032230
         H            3.236429898272     1.751345993937    -0.535418355760     1.007825032230

  Basis Set: AUG-CC-PVTZ
    Blend: AUG-CC-PVTZ
  Basis Set: (AUG-CC-PVTZ AUX)
    Blend: AUG-CC-PVTZ-JKFIT
	 Reference Energy          =    -490.6361842459037916 [Eh]
	 Singles Energy            =      -0.0000000000000000 [Eh]
	 Same-Spin Energy          =      -0.5066207316804513 [Eh]
	 Opposite-Spin Energy      =      -1.5502347375797982 [Eh]
	 Correlation Energy        =      -2.0568554692602494 [Eh]
	 Total Energy              =    -492.6930397151640477 [Eh]

	 ================> DF-SCS-MP2 Energies <==================
	-----------------------------------------------------------
	 SCS Same-Spin Scale       =       0.3333333333333333 [-]
	 SCS Opposite-Spin Scale   =       1.2000000000000000 [-]
	 SCS Same-Spin Energy      =      -0.1688735772268171 [Eh]
	 SCS Opposite-Spin Energy  =      -1.8602816850957578 [Eh]
	 SCS Correlation Energy    =      -2.0291552623225750 [Eh]
	 SCS Total Energy          =    -492.6653395082263387 [Eh]
	-----------------------------------------------------------

  Dipole Moment: [D]
     X:     0.3710      Y:     2.7768      Z:     0.9543     Total:     2.9595

*** Psi4 exiting successfully. Buy a developer a beer!
