                               Psi4 1.4a3.dev225

  ==> Input File <==

--------------------------------------------------------------------------
#psi4
#
memory 32 gb

molecule  {
0 1
  O        1.6580350    -0.9827140     0.3821500
  O       -0.8249020    -1.8470020    -0.1920140
  N       -1.7073370     0.2644950     0.0041840
  N        1.2225400     1.0581630    -0.4400630
  C       -0.6757910    -0.6248990    -0.0657590
  C       -1.6242400     1.6701930     0.3734340
  C       -3.0587270    -0.2617480    -0.1203800
  C        0.7172850    -0.0860290    -0.0289380
  C        2.8466160    -0.3331830     0.2236370
  C        2.5869190     0.9090560    -0.2781450
  H       -2.0624300     2.2861190    -0.4188050
  H       -0.5911340     1.9718700     0.5118620
  H       -2.1906170     1.8355680     1.2974120
  H       -3.5636440    -0.2611770     0.8526080
  H       -3.0040100    -1.2812060    -0.4966650
  H       -3.6263720     0.3669880    -0.8129620
  H        3.7338670    -0.8757360     0.5106220
  H        3.1521333     1.5506584    -0.4891787
units angstrom
no_reorient  #important for SAPT in psi4, default
symmetry c1  #important for SAPT in psi4, default
}

set PROPERTIES_ORIGIN ["COM"]
properties('MP2/aug-cc-pvtz', properties = ['dipole'])
--------------------------------------------------------------------------

    Molecular point group: c1
  Charge       = 0
  Multiplicity = 1
  Basis Set: AUG-CC-PVTZ
    Blend: AUG-CC-PVTZ
  Basis Set: (AUG-CC-PVTZ AUX)
    Blend: AUG-CC-PVTZ-JKFIT

    Orbital Energies [Eh]
    ---------------------

    Doubly Occupied:

       1A    -20.653194     2A    -20.527525     3A    -15.601719
       4A    -15.590789     5A    -11.373818     6A    -11.355520
       7A    -11.312442     8A    -11.266298     9A    -11.259238
      10A    -11.254942    11A     -1.497960    12A     -1.382197
      13A     -1.259829    14A     -1.243028    15A     -1.063528
      16A     -0.977449    17A     -0.960477    18A     -0.884630
      19A     -0.851171    20A     -0.790184    21A     -0.728212
      22A     -0.685003    23A     -0.673523    24A     -0.661958
      25A     -0.652402    26A     -0.641786    27A     -0.593673
      28A     -0.585367    29A     -0.567069    30A     -0.561910
      31A     -0.541494    32A     -0.535086    33A     -0.482241
      34A     -0.464750    35A     -0.441657    36A     -0.380325
      37A     -0.351274

  @DF-RHF Final Energy:  -490.60042243322005

   => Energetics <=

    Nuclear Repulsion Energy =            529.5532442799650426
    One-Electron Energy =               -1718.9999941335975109
    Two-Electron Energy =                 698.8463274204123081
    Total Energy =                       -490.6004224332200465
  Basis Set: (AUG-CC-PVTZ AUX)
    Blend: AUG-CC-PVTZ-RI
    Molecular point group: c1

    Geometry (in Angstrom), charge = 0, multiplicity = 1:

       Center              X                  Y                   Z               Mass
    ------------   -----------------  -----------------  -----------------  -----------------
         O            1.602158458250    -0.941143839864     0.388246616517    15.994914619570
         O           -0.880778541750    -1.805431839864    -0.185917383483    15.994914619570
         N           -1.763213541750     0.306065160136     0.010280616517    14.003074004430
         N            1.166663458250     1.099733160136    -0.433966383483    14.003074004430
         C           -0.731667541750    -0.583328839864    -0.059662383483    12.000000000000
         C           -1.680116541750     1.711763160136     0.379530616517    12.000000000000
         C           -3.114603541750    -0.220177839864    -0.114283383483    12.000000000000
         C            0.661408458250    -0.044458839864    -0.022841383483    12.000000000000
         C            2.790739458250    -0.291612839864     0.229733616517    12.000000000000
         C            2.531042458250     0.950626160136    -0.272048383483    12.000000000000
         H           -2.118306541750     2.327689160136    -0.412708383483     1.007825032230
         H           -0.647010541750     2.013440160136     0.517958616517     1.007825032230
         H           -2.246493541750     1.877138160136     1.303508616517     1.007825032230
         H           -3.619520541750    -0.219606839864     0.858704616517     1.007825032230
         H           -3.059886541750    -1.239635839864    -0.490568383483     1.007825032230
         H           -3.682248541750     0.408558160136    -0.806865383483     1.007825032230
         H            3.677990458250    -0.834165839864     0.516718616517     1.007825032230
         H            3.096256758250     1.592228560136    -0.483082083483     1.007825032230

  Basis Set: AUG-CC-PVTZ
    Blend: AUG-CC-PVTZ
  Basis Set: (AUG-CC-PVTZ AUX)
    Blend: AUG-CC-PVTZ-JKFIT
	 Reference Energy          =    -490.6004224332200465 [Eh]
	 Singles Energy            =      -0.0000000000000000 [Eh]
	 Same-Spin Energy          =      -0.5063753500872139 [Eh]
	 Opposite-Spin Energy      =      -1.5497368222396140 [Eh]
	 Correlation Energy        =      -2.0561121723268281 [Eh]
	 Total Energy              =    -492.6565346055468808 [Eh]

	 ================> DF-SCS-MP2 Energies <==================
	-----------------------------------------------------------
	 SCS Same-Spin Scale       =       0.3333333333333333 [-]
	 SCS Opposite-Spin Scale   =       1.2000000000000000 [-]
	 SCS Same-Spin Energy      =      -0.1687917833624046 [Eh]
	 SCS Opposite-Spin Energy  =      -1.8596841866875367 [Eh]
	 SCS Correlation Energy    =      -2.0284759700499411 [Eh]
	 SCS Total Energy          =    -492.6288984032700000 [Eh]
	-----------------------------------------------------------

  Dipole Moment: [D]
     X:     0.3809      Y:     2.7341      Z:     0.9724     Total:     2.9268

*** Psi4 exiting successfully. Buy a developer a beer!
