                               Psi4 1.4a3.dev225

  ==> Input File <==

--------------------------------------------------------------------------
#psi4
#
memory 32 gb

molecule  {
0 1
  O        1.6580350    -0.9827140     0.3821500
  O       -0.8249020    -1.8470020    -0.1920140
  N       -1.7073370     0.2644950     0.0041840
  N        1.2225400     1.0581630    -0.4400630
  C       -0.6757910    -0.6248990    -0.0657590
  C       -1.6242400     1.6701930     0.3734340
  C       -3.0587270    -0.2617480    -0.1203800
  C        0.7172850    -0.0860290    -0.0289380
  C        2.8466160    -0.3331830     0.2236370
  C        2.5869190     0.9090560    -0.2781450
  H       -2.0624300     2.2861190    -0.4188050
  H       -0.5911340     1.9718700     0.5118620
  H       -2.1906170     1.8355680     1.2974120
  H       -3.5636440    -0.2611770     0.8526080
  H       -3.0040100    -1.2812060    -0.4966650
  H       -3.6263720     0.3669880    -0.8129620
  H        3.7338670    -0.8757360     0.5106220
  H        3.2483986     1.6599338    -0.5251212
units angstrom
no_reorient  #important for SAPT in psi4, default
symmetry c1  #important for SAPT in psi4, default
}

set PROPERTIES_ORIGIN ["COM"]
properties('MP2/aug-cc-pvtz', properties = ['dipole'])
--------------------------------------------------------------------------

    Molecular point group: c1
  Charge       = 0
  Multiplicity = 1
  Basis Set: AUG-CC-PVTZ
    Blend: AUG-CC-PVTZ
  Basis Set: (AUG-CC-PVTZ AUX)
    Blend: AUG-CC-PVTZ-JKFIT

    Orbital Energies [Eh]
    ---------------------

    Doubly Occupied:

       1A    -20.653471     2A    -20.527719     3A    -15.601871
       4A    -15.591470     5A    -11.374058     6A    -11.356082
       7A    -11.312307     8A    -11.271640     9A    -11.266406
      10A    -11.259338    11A     -1.498304    12A     -1.382374
      13A     -1.259867    14A     -1.242732    15A     -1.058714
      16A     -0.977314    17A     -0.959307    18A     -0.868466
      19A     -0.846082    20A     -0.783211    21A     -0.727460
      22A     -0.682655    23A     -0.668434    24A     -0.660750
      25A     -0.651976    26A     -0.627957    27A     -0.590500
      28A     -0.585469    29A     -0.567099    30A     -0.562008
      31A     -0.541624    32A     -0.535153    33A     -0.482021
      34A     -0.464997    35A     -0.441837    36A     -0.380453
      37A     -0.351119

  @DF-RHF Final Energy:  -490.63599855766370

   => Energetics <=

    Nuclear Repulsion Energy =            528.6131233094764639
    One-Electron Energy =               -1717.2737579808704140
    Two-Electron Energy =                 698.0246361137301392
    Total Energy =                       -490.6359985576636973
  Basis Set: (AUG-CC-PVTZ AUX)
    Blend: AUG-CC-PVTZ-RI
    Molecular point group: c1

    Geometry (in Angstrom), charge = 0, multiplicity = 1:

       Center              X                  Y                   Z               Mass
    ------------   -----------------  -----------------  -----------------  -----------------
         O            1.601465758233    -0.941930157171     0.388505249383    15.994914619570
         O           -0.881471241767    -1.806218157171    -0.185658750617    15.994914619570
         N           -1.763906241767     0.305278842829     0.010539249383    14.003074004430
         N            1.165970758233     1.098946842829    -0.433707750617    14.003074004430
         C           -0.732360241767    -0.584115157171    -0.059403750617    12.000000000000
         C           -1.680809241767     1.710976842829     0.379789249383    12.000000000000
         C           -3.115296241767    -0.220964157171    -0.114024750617    12.000000000000
         C            0.660715758233    -0.045245157171    -0.022582750617    12.000000000000
         C            2.790046758233    -0.292399157171     0.229992249383    12.000000000000
         C            2.530349758233     0.949839842829    -0.271789750617    12.000000000000
         H           -2.118999241767     2.326902842829    -0.412449750617     1.007825032230
         H           -0.647703241767     2.012653842829     0.518217249383     1.007825032230
         H           -2.247186241767     1.876351842829     1.303767249383     1.007825032230
         H           -3.620213241767    -0.220393157171     0.858963249383     1.007825032230
         H           -3.060579241767    -1.240422157171    -0.490309750617     1.007825032230
         H           -3.682941241767     0.407771842829    -0.806606750617     1.007825032230
         H            3.677297758233    -0.834952157171     0.516977249383     1.007825032230
         H            3.191829358233     1.700717642829    -0.518765950617     1.007825032230

  Basis Set: AUG-CC-PVTZ
    Blend: AUG-CC-PVTZ
  Basis Set: (AUG-CC-PVTZ AUX)
    Blend: AUG-CC-PVTZ-JKFIT
	 Reference Energy          =    -490.6359985576636973 [Eh]
	 Singles Energy            =      -0.0000000000000000 [Eh]
	 Same-Spin Energy          =      -0.5064876508972324 [Eh]
	 Opposite-Spin Energy      =      -1.5498345842523376 [Eh]
	 Correlation Energy        =      -2.0563222351495698 [Eh]
	 Total Energy              =    -492.6923207928132911 [Eh]

	 ================> DF-SCS-MP2 Energies <==================
	-----------------------------------------------------------
	 SCS Same-Spin Scale       =       0.3333333333333333 [-]
	 SCS Opposite-Spin Scale   =       1.2000000000000000 [-]
	 SCS Same-Spin Energy      =      -0.1688292169657441 [Eh]
	 SCS Opposite-Spin Energy  =      -1.8598015011028051 [Eh]
	 SCS Correlation Energy    =      -2.0286307180685492 [Eh]
	 SCS Total Energy          =    -492.6646292757322385 [Eh]
	-----------------------------------------------------------

  Dipole Moment: [D]
     X:     0.3793      Y:     2.7670      Z:     0.9588     Total:     2.9529

*** Psi4 exiting successfully. Buy a developer a beer!
