                               Psi4 1.4a3.dev225

  ==> Input File <==

--------------------------------------------------------------------------
#psi4
#
memory 32 gb

molecule  {
0 1
  O        1.6580350    -0.9827140     0.3821500
  O       -0.8249020    -1.8470020    -0.1920140
  N       -1.7073370     0.2644950     0.0041840
  N        1.2225400     1.0581630    -0.4400630
  C       -0.6757910    -0.6248990    -0.0657590
  C       -1.6242400     1.6701930     0.3734340
  C       -3.0587270    -0.2617480    -0.1203800
  C        0.7940355     0.0877788    -0.0913897
  C        2.8466160    -0.3331830     0.2236370
  C        2.5869190     0.9090560    -0.2781450
  H       -2.0624300     2.2861190    -0.4188050
  H       -0.5911340     1.9718700     0.5118620
  H       -2.1906170     1.8355680     1.2974120
  H       -3.5636440    -0.2611770     0.8526080
  H       -3.0040100    -1.2812060    -0.4966650
  H       -3.6263720     0.3669880    -0.8129620
  H        3.7338670    -0.8757360     0.5106220
  H        3.2804870     1.6963590    -0.5371020
units angstrom
no_reorient  #important for SAPT in psi4, default
symmetry c1  #important for SAPT in psi4, default
}

set PROPERTIES_ORIGIN ["COM"]
properties('MP2/aug-cc-pvtz', properties = ['dipole'])
--------------------------------------------------------------------------

    Molecular point group: c1
  Charge       = 0
  Multiplicity = 1
  Basis Set: AUG-CC-PVTZ
    Blend: AUG-CC-PVTZ
  Basis Set: (AUG-CC-PVTZ AUX)
    Blend: AUG-CC-PVTZ-JKFIT

    Orbital Energies [Eh]
    ---------------------

    Doubly Occupied:

       1A    -20.627366     2A    -20.528961     3A    -15.599934
       4A    -15.578157     5A    -11.377213     6A    -11.341329
       7A    -11.313161     8A    -11.275717     9A    -11.269442
      10A    -11.258042    11A     -1.479279    12A     -1.376684
      13A     -1.326376    14A     -1.252314    15A     -1.045470
      16A     -0.978330    17A     -0.954034    18A     -0.859189
      19A     -0.832471    20A     -0.773049    21A     -0.726408
      22A     -0.679074    23A     -0.661696    24A     -0.654924
      25A     -0.650917    26A     -0.625764    27A     -0.584477
      28A     -0.573068    29A     -0.566721    30A     -0.562878
      31A     -0.542034    32A     -0.529981    33A     -0.508035
      34A     -0.498457    35A     -0.422898    36A     -0.379830
      37A     -0.358828

  @DF-RHF Final Energy:  -490.57764192105140

   => Energetics <=

    Nuclear Repulsion Energy =            528.9842262042512857
    One-Electron Energy =               -1717.9787229935025152
    Two-Electron Energy =                 698.4168548681997208
    Total Energy =                       -490.5776419210513950
  Basis Set: (AUG-CC-PVTZ AUX)
    Blend: AUG-CC-PVTZ-RI
    Molecular point group: c1

    Geometry (in Angstrom), charge = 0, multiplicity = 1:

       Center              X                  Y                   Z               Mass
    ------------   -----------------  -----------------  -----------------  -----------------
         O            1.594658995593    -0.957083844051     0.393942224138    15.994914619570
         O           -0.888278004407    -1.821371844051    -0.180221775862    15.994914619570
         N           -1.770713004407     0.290125155949     0.015976224138    14.003074004430
         N            1.159163995593     1.083793155949    -0.428270775862    14.003074004430
         C           -0.739167004407    -0.599268844051    -0.053966775862    12.000000000000
         C           -1.687616004407     1.695823155949     0.385226224138    12.000000000000
         C           -3.122103004407    -0.236117844051    -0.108587775862    12.000000000000
         C            0.730659495593     0.113408955949    -0.079597475862    12.000000000000
         C            2.783239995593    -0.307552844051     0.235429224138    12.000000000000
         C            2.523542995593     0.934686155949    -0.266352775862    12.000000000000
         H           -2.125806004407     2.311749155949    -0.407012775862     1.007825032230
         H           -0.654510004407     1.997500155949     0.523654224138     1.007825032230
         H           -2.253993004407     1.861198155949     1.309204224138     1.007825032230
         H           -3.627020004407    -0.235546844051     0.864400224138     1.007825032230
         H           -3.067386004407    -1.255575844051    -0.484872775862     1.007825032230
         H           -3.689748004407     0.392618155949    -0.801169775862     1.007825032230
         H            3.670490995593    -0.850105844051     0.522414224138     1.007825032230
         H            3.217110995593     1.721989155949    -0.525309775862     1.007825032230

  Basis Set: AUG-CC-PVTZ
    Blend: AUG-CC-PVTZ
  Basis Set: (AUG-CC-PVTZ AUX)
    Blend: AUG-CC-PVTZ-JKFIT
	 Reference Energy          =    -490.5776419210513950 [Eh]
	 Singles Energy            =      -0.0000000000000000 [Eh]
	 Same-Spin Energy          =      -0.5032726198279469 [Eh]
	 Opposite-Spin Energy      =      -1.5463639169014742 [Eh]
	 Correlation Energy        =      -2.0496365367294214 [Eh]
	 Total Energy              =    -492.6272784577807897 [Eh]

	 ================> DF-SCS-MP2 Energies <==================
	-----------------------------------------------------------
	 SCS Same-Spin Scale       =       0.3333333333333333 [-]
	 SCS Opposite-Spin Scale   =       1.2000000000000000 [-]
	 SCS Same-Spin Energy      =      -0.1677575399426490 [Eh]
	 SCS Opposite-Spin Energy  =      -1.8556367002817691 [Eh]
	 SCS Correlation Energy    =      -2.0233942402244178 [Eh]
	 SCS Total Energy          =    -492.6010361612758288 [Eh]
	-----------------------------------------------------------

  Dipole Moment: [D]
     X:     0.0109      Y:     3.1884      Z:     0.7190     Total:     3.2685

*** Psi4 exiting successfully. Buy a developer a beer!
