                               Psi4 1.4a3.dev225

  ==> Input File <==

--------------------------------------------------------------------------
#psi4
#
memory 32 gb

molecule  {
0 1
  O        1.6580350    -0.9827140     0.3821500
  O       -0.8249020    -1.8470020    -0.1920140
  N       -1.7073370     0.2644950     0.0041840
  N        1.2225400     1.0581630    -0.4400630
  C       -0.7136093    -0.5922922    -0.0631948
  C       -1.6242400     1.6701930     0.3734340
  C       -3.0587270    -0.2617480    -0.1203800
  C        0.7172850    -0.0860290    -0.0289380
  C        2.8466160    -0.3331830     0.2236370
  C        2.5869190     0.9090560    -0.2781450
  H       -2.0624300     2.2861190    -0.4188050
  H       -0.5911340     1.9718700     0.5118620
  H       -2.1906170     1.8355680     1.2974120
  H       -3.5636440    -0.2611770     0.8526080
  H       -3.0040100    -1.2812060    -0.4966650
  H       -3.6263720     0.3669880    -0.8129620
  H        3.7338670    -0.8757360     0.5106220
  H        3.2804870     1.6963590    -0.5371020
units angstrom
no_reorient  #important for SAPT in psi4, default
symmetry c1  #important for SAPT in psi4, default
}

set PROPERTIES_ORIGIN ["COM"]
properties('MP2/aug-cc-pvtz', properties = ['dipole'])
--------------------------------------------------------------------------

    Molecular point group: c1
  Charge       = 0
  Multiplicity = 1
  Basis Set: AUG-CC-PVTZ
    Blend: AUG-CC-PVTZ
  Basis Set: (AUG-CC-PVTZ AUX)
    Blend: AUG-CC-PVTZ-JKFIT

    Orbital Energies [Eh]
    ---------------------

    Doubly Occupied:

       1A    -20.651329     2A    -20.518147     3A    -15.611290
       4A    -15.588013     5A    -11.372410     6A    -11.355902
       7A    -11.309596     8A    -11.274570     9A    -11.272438
      10A    -11.264540    11A     -1.495233    12A     -1.369575
      13A     -1.267648    14A     -1.243078    15A     -1.052815
      16A     -0.984333    17A     -0.971706    18A     -0.860547
      19A     -0.842617    20A     -0.778552    21A     -0.733052
      22A     -0.680253    23A     -0.669386    24A     -0.663548
      25A     -0.653245    26A     -0.621733    27A     -0.585286
      28A     -0.578615    29A     -0.569979    30A     -0.566792
      31A     -0.544576    32A     -0.531091    33A     -0.479075
      34A     -0.462985    35A     -0.434114    36A     -0.385172
      37A     -0.348583

  @DF-RHF Final Energy:  -490.63314097054399

   => Energetics <=

    Nuclear Repulsion Energy =            528.3581669049133325
    One-Electron Energy =               -1716.7989704202225312
    Two-Electron Energy =                 697.8076625447652077
    Total Energy =                       -490.6331409705439910
  Basis Set: (AUG-CC-PVTZ AUX)
    Blend: AUG-CC-PVTZ-RI
    Molecular point group: c1

    Geometry (in Angstrom), charge = 0, multiplicity = 1:

       Center              X                  Y                   Z               Mass
    ------------   -----------------  -----------------  -----------------  -----------------
         O            1.604475071298    -0.944985963077     0.388371763450    15.994914619570
         O           -0.878461928702    -1.809273963077    -0.185792236550    15.994914619570
         N           -1.760896928702     0.302223036923     0.010405763450    14.003074004430
         N            1.168980071298     1.095891036923    -0.433841236550    14.003074004430
         C           -0.767169228702    -0.554564163077    -0.056973036550    12.000000000000
         C           -1.677799928702     1.707921036923     0.379655763450    12.000000000000
         C           -3.112286928702    -0.224019963077    -0.114158236550    12.000000000000
         C            0.663725071298    -0.048300963077    -0.022716236550    12.000000000000
         C            2.793056071298    -0.295454963077     0.229858763450    12.000000000000
         C            2.533359071298     0.946784036923    -0.271923236550    12.000000000000
         H           -2.115989928702     2.323847036923    -0.412583236550     1.007825032230
         H           -0.644693928702     2.009598036923     0.518083763450     1.007825032230
         H           -2.244176928702     1.873296036923     1.303633763450     1.007825032230
         H           -3.617203928702    -0.223448963077     0.858829763450     1.007825032230
         H           -3.057569928702    -1.243477963077    -0.490443236550     1.007825032230
         H           -3.679931928702     0.404716036923    -0.806740236550     1.007825032230
         H            3.680307071298    -0.838007963077     0.516843763450     1.007825032230
         H            3.226927071298     1.734087036923    -0.530880236550     1.007825032230

  Basis Set: AUG-CC-PVTZ
    Blend: AUG-CC-PVTZ
  Basis Set: (AUG-CC-PVTZ AUX)
    Blend: AUG-CC-PVTZ-JKFIT
	 Reference Energy          =    -490.6331409705439910 [Eh]
	 Singles Energy            =      -0.0000000000000000 [Eh]
	 Same-Spin Energy          =      -0.5066380499641340 [Eh]
	 Opposite-Spin Energy      =      -1.5503361189779210 [Eh]
	 Correlation Energy        =      -2.0569741689420549 [Eh]
	 Total Energy              =    -492.6901151394860676 [Eh]

	 ================> DF-SCS-MP2 Energies <==================
	-----------------------------------------------------------
	 SCS Same-Spin Scale       =       0.3333333333333333 [-]
	 SCS Opposite-Spin Scale   =       1.2000000000000000 [-]
	 SCS Same-Spin Energy      =      -0.1688793499880447 [Eh]
	 SCS Opposite-Spin Energy  =      -1.8604033427735052 [Eh]
	 SCS Correlation Energy    =      -2.0292826927615497 [Eh]
	 SCS Total Energy          =    -492.6624236633055602 [Eh]
	-----------------------------------------------------------

  Dipole Moment: [D]
     X:    -0.0119      Y:     3.0769      Z:     1.0046     Total:     3.2367

*** Psi4 exiting successfully. Buy a developer a beer!
