                               Psi4 1.4a3.dev225

  ==> Input File <==

--------------------------------------------------------------------------
#psi4
#
memory 32 gb

molecule  {
0 1
  O        1.6580350    -0.9827140     0.3821500
  O       -0.8249020    -1.8470020    -0.1920140
  N       -1.7073370     0.2644950     0.0041840
  N        1.2225400     1.0581630    -0.4400630
  C       -0.6757910    -0.6248990    -0.0657590
  C       -1.6242400     1.6701930     0.3734340
  C       -3.0587270    -0.2617480    -0.1203800
  C        0.7172850    -0.0860290    -0.0289380
  C        2.8466160    -0.3331830     0.2236370
  C        2.5869190     0.9090560    -0.2781450
  H       -2.0624300     2.2861190    -0.4188050
  H       -0.5911340     1.9718700     0.5118620
  H       -2.1906170     1.8355680     1.2974120
  H       -3.4715224    -0.2612812     0.6750873
  H       -3.0040100    -1.2812060    -0.4966650
  H       -3.6263720     0.3669880    -0.8129620
  H        3.7338670    -0.8757360     0.5106220
  H        3.2804870     1.6963590    -0.5371020
units angstrom
no_reorient  #important for SAPT in psi4, default
symmetry c1  #important for SAPT in psi4, default
}

set PROPERTIES_ORIGIN ["COM"]
properties('MP2/aug-cc-pvtz', properties = ['dipole'])
--------------------------------------------------------------------------

    Molecular point group: c1
  Charge       = 0
  Multiplicity = 1
  Basis Set: AUG-CC-PVTZ
    Blend: AUG-CC-PVTZ
  Basis Set: (AUG-CC-PVTZ AUX)
    Blend: AUG-CC-PVTZ-JKFIT

    Orbital Energies [Eh]
    ---------------------

    Doubly Occupied:

       1A    -20.653105     2A    -20.526562     3A    -15.599818
       4A    -15.591227     5A    -11.373041     6A    -11.355701
       7A    -11.311915     8A    -11.276689     9A    -11.266293
      10A    -11.234733    11A     -1.497955    12A     -1.381403
      13A     -1.259760    14A     -1.242564    15A     -1.058315
      16A     -0.993125    17A     -0.962242    18A     -0.869547
      19A     -0.846139    20A     -0.782535    21A     -0.728354
      22A     -0.683647    23A     -0.676239    24A     -0.659527
      25A     -0.658186    26A     -0.621571    27A     -0.590919
      28A     -0.586529    29A     -0.578663    30A     -0.564555
      31A     -0.541126    32A     -0.538561    33A     -0.481359
      34A     -0.464684    35A     -0.440850    36A     -0.381367
      37A     -0.350738

  @DF-RHF Final Energy:  -490.60354565529008

   => Energetics <=

    Nuclear Repulsion Energy =            529.3999235535246726
    One-Electron Energy =               -1718.7478537131828489
    Two-Electron Energy =                 698.7443845043679858
    Total Energy =                       -490.6035456552900769
  Basis Set: (AUG-CC-PVTZ AUX)
    Blend: AUG-CC-PVTZ-RI
    Molecular point group: c1

    Geometry (in Angstrom), charge = 0, multiplicity = 1:

       Center              X                  Y                   Z               Mass
    ------------   -----------------  -----------------  -----------------  -----------------
         O            1.600571975435    -0.942191513624     0.389868852803    15.994914619570
         O           -0.882365024565    -1.806479513624    -0.184295147197    15.994914619570
         N           -1.764800024565     0.305017486376     0.011902852803    14.003074004430
         N            1.165076975435     1.098685486376    -0.432344147197    14.003074004430
         C           -0.733254024565    -0.584376513624    -0.058040147197    12.000000000000
         C           -1.681703024565     1.710715486376     0.381152852803    12.000000000000
         C           -3.116190024565    -0.221225513624    -0.112661147197    12.000000000000
         C            0.659821975435    -0.045506513624    -0.021219147197    12.000000000000
         C            2.789152975435    -0.292660513624     0.231355852803    12.000000000000
         C            2.529455975435     0.949578486376    -0.270426147197    12.000000000000
         H           -2.119893024565     2.326641486376    -0.411086147197     1.007825032230
         H           -0.648597024565     2.012392486376     0.519580852803     1.007825032230
         H           -2.248080024565     1.876090486376     1.305130852803     1.007825032230
         H           -3.528985424565    -0.220758713624     0.682806152803     1.007825032230
         H           -3.061473024565    -1.240683513624    -0.488946147197     1.007825032230
         H           -3.683835024565     0.407510486376    -0.805243147197     1.007825032230
         H            3.676403975435    -0.835213513624     0.518340852803     1.007825032230
         H            3.223023975435     1.736881486376    -0.529383147197     1.007825032230

  Basis Set: AUG-CC-PVTZ
    Blend: AUG-CC-PVTZ
  Basis Set: (AUG-CC-PVTZ AUX)
    Blend: AUG-CC-PVTZ-JKFIT
	 Reference Energy          =    -490.6035456552900769 [Eh]
	 Singles Energy            =      -0.0000000000000000 [Eh]
	 Same-Spin Energy          =      -0.5066342236744933 [Eh]
	 Opposite-Spin Energy      =      -1.5494594223326643 [Eh]
	 Correlation Energy        =      -2.0560936460071577 [Eh]
	 Total Energy              =    -492.6596393012972612 [Eh]

	 ================> DF-SCS-MP2 Energies <==================
	-----------------------------------------------------------
	 SCS Same-Spin Scale       =       0.3333333333333333 [-]
	 SCS Opposite-Spin Scale   =       1.2000000000000000 [-]
	 SCS Same-Spin Energy      =      -0.1688780745581644 [Eh]
	 SCS Opposite-Spin Energy  =      -1.8593513067991971 [Eh]
	 SCS Correlation Energy    =      -2.0282293813573617 [Eh]
	 SCS Total Energy          =    -492.6317750366474115 [Eh]
	-----------------------------------------------------------

  Dipole Moment: [D]
     X:     0.2750      Y:     2.7767      Z:     1.0179     Total:     2.9701

*** Psi4 exiting successfully. Buy a developer a beer!
