                               Psi4 1.4a3.dev225

  ==> Input File <==

--------------------------------------------------------------------------
#psi4
#
memory 32 gb

molecule  {
0 1
  O        1.6580350    -0.9827140     0.3821500
  O       -0.8249020    -1.8470020    -0.1920140
  N       -1.7073370     0.2644950     0.0041840
  N        1.2225400     1.0581630    -0.4400630
  C       -0.6757910    -0.6248990    -0.0657590
  C       -1.6242400     1.6701930     0.3734340
  C       -3.0587270    -0.2617480    -0.1203800
  C        0.7172850    -0.0860290    -0.0289380
  C        2.7594590    -0.3808122     0.2352605
  C        2.5869190     0.9090560    -0.2781450
  H       -2.0624300     2.2861190    -0.4188050
  H       -0.5911340     1.9718700     0.5118620
  H       -2.1906170     1.8355680     1.2974120
  H       -3.5636440    -0.2611770     0.8526080
  H       -3.0040100    -1.2812060    -0.4966650
  H       -3.6263720     0.3669880    -0.8129620
  H        3.7338670    -0.8757360     0.5106220
  H        3.2804870     1.6963590    -0.5371020
units angstrom
no_reorient  #important for SAPT in psi4, default
symmetry c1  #important for SAPT in psi4, default
}

set PROPERTIES_ORIGIN ["COM"]
properties('MP2/aug-cc-pvtz', properties = ['dipole'])
--------------------------------------------------------------------------

    Molecular point group: c1
  Charge       = 0
  Multiplicity = 1
  Basis Set: AUG-CC-PVTZ
    Blend: AUG-CC-PVTZ
  Basis Set: (AUG-CC-PVTZ AUX)
    Blend: AUG-CC-PVTZ-JKFIT

    Orbital Energies [Eh]
    ---------------------

    Doubly Occupied:

       1A    -20.668874     2A    -20.525358     3A    -15.599923
       4A    -15.596265     5A    -11.372356     6A    -11.349648
       7A    -11.320011     8A    -11.273410     9A    -11.265447
      10A    -11.258247    11A     -1.543758    12A     -1.381604
      13A     -1.262008    14A     -1.246336    15A     -1.056646
      16A     -0.975922    17A     -0.955255    18A     -0.877152
      19A     -0.840912    20A     -0.793879    21A     -0.727973
      22A     -0.700672    23A     -0.678230    24A     -0.659128
      25A     -0.654875    26A     -0.626488    27A     -0.585123
      28A     -0.578151    29A     -0.565254    30A     -0.560993
      31A     -0.542006    32A     -0.535026    33A     -0.481643
      34A     -0.469613    35A     -0.440513    36A     -0.379446
      37A     -0.339274

  @DF-RHF Final Energy:  -490.62669551875092

   => Energetics <=

    Nuclear Repulsion Energy =            530.2797778331066638
    One-Electron Energy =               -1720.4381079057623083
    Two-Electron Energy =                 699.5316345539047234
    Total Energy =                       -490.6266955187509211
  Basis Set: (AUG-CC-PVTZ AUX)
    Blend: AUG-CC-PVTZ-RI
    Molecular point group: c1

    Geometry (in Angstrom), charge = 0, multiplicity = 1:

       Center              X                  Y                   Z               Mass
    ------------   -----------------  -----------------  -----------------  -----------------
         O            1.608702333995    -0.938111468011     0.387595576786    15.994914619570
         O           -0.874234666005    -1.802399468011    -0.186568423214    15.994914619570
         N           -1.756669666005     0.309097531989     0.009629576786    14.003074004430
         N            1.173207333995     1.102765531989    -0.434617423214    14.003074004430
         C           -0.725123666005    -0.580296468011    -0.060313423214    12.000000000000
         C           -1.673572666005     1.714795531989     0.378879576786    12.000000000000
         C           -3.108059666005    -0.217145468011    -0.114934423214    12.000000000000
         C            0.667952333995    -0.041426468011    -0.023492423214    12.000000000000
         C            2.710126333995    -0.336209668011     0.240706076786    12.000000000000
         C            2.537586333995     0.953658531989    -0.272699423214    12.000000000000
         H           -2.111762666005     2.330721531989    -0.413359423214     1.007825032230
         H           -0.640466666005     2.016472531989     0.517307576786     1.007825032230
         H           -2.239949666005     1.880170531989     1.302857576786     1.007825032230
         H           -3.612976666005    -0.216574468011     0.858053576786     1.007825032230
         H           -3.053342666005    -1.236603468011    -0.491219423214     1.007825032230
         H           -3.675704666005     0.411590531989    -0.807516423214     1.007825032230
         H            3.684534333995    -0.831133468011     0.516067576786     1.007825032230
         H            3.231154333995     1.740961531989    -0.531656423214     1.007825032230

  Basis Set: AUG-CC-PVTZ
    Blend: AUG-CC-PVTZ
  Basis Set: (AUG-CC-PVTZ AUX)
    Blend: AUG-CC-PVTZ-JKFIT
	 Reference Energy          =    -490.6266955187509211 [Eh]
	 Singles Energy            =      -0.0000000000000000 [Eh]
	 Same-Spin Energy          =      -0.5073292913356817 [Eh]
	 Opposite-Spin Energy      =      -1.5490108777714413 [Eh]
	 Correlation Energy        =      -2.0563401691071230 [Eh]
	 Total Energy              =    -492.6830356878580233 [Eh]

	 ================> DF-SCS-MP2 Energies <==================
	-----------------------------------------------------------
	 SCS Same-Spin Scale       =       0.3333333333333333 [-]
	 SCS Opposite-Spin Scale   =       1.2000000000000000 [-]
	 SCS Same-Spin Energy      =      -0.1691097637785606 [Eh]
	 SCS Opposite-Spin Energy  =      -1.8588130533257294 [Eh]
	 SCS Correlation Energy    =      -2.0279228171042898 [Eh]
	 SCS Total Energy          =    -492.6546183358552184 [Eh]
	-----------------------------------------------------------

  Dipole Moment: [D]
     X:     0.3520      Y:     2.6742      Z:     0.9916     Total:     2.8738

*** Psi4 exiting successfully. Buy a developer a beer!
