                               Psi4 1.4a3.dev225

  ==> Input File <==

--------------------------------------------------------------------------
#psi4
#
memory 32 gb

molecule  {
0 1
  O        1.6580350    -0.9827140     0.3821500
  O       -0.8249020    -1.8470020    -0.1920140
  N       -1.7073370     0.2644950     0.0041840
  N        1.2225400     1.0581630    -0.4400630
  C       -0.6818151    -0.6742720    -0.0708597
  C       -1.6242400     1.6701930     0.3734340
  C       -3.0587270    -0.2617480    -0.1203800
  C        0.7172850    -0.0860290    -0.0289380
  C        2.8466160    -0.3331830     0.2236370
  C        2.5869190     0.9090560    -0.2781450
  H       -2.0624300     2.2861190    -0.4188050
  H       -0.5911340     1.9718700     0.5118620
  H       -2.1906170     1.8355680     1.2974120
  H       -3.5636440    -0.2611770     0.8526080
  H       -3.0040100    -1.2812060    -0.4966650
  H       -3.6263720     0.3669880    -0.8129620
  H        3.7338670    -0.8757360     0.5106220
  H        3.2804870     1.6963590    -0.5371020
units angstrom
no_reorient  #important for SAPT in psi4, default
symmetry c1  #important for SAPT in psi4, default
}

set PROPERTIES_ORIGIN ["COM"]
properties('MP2/aug-cc-pvtz', properties = ['dipole'])
--------------------------------------------------------------------------

    Molecular point group: c1
  Charge       = 0
  Multiplicity = 1
  Basis Set: AUG-CC-PVTZ
    Blend: AUG-CC-PVTZ
  Basis Set: (AUG-CC-PVTZ AUX)
    Blend: AUG-CC-PVTZ-JKFIT

    Orbital Energies [Eh]
    ---------------------

    Doubly Occupied:

       1A    -20.652154     2A    -20.538997     3A    -15.594178
       4A    -15.589886     5A    -11.375008     6A    -11.354592
       7A    -11.310599     8A    -11.276117     9A    -11.263487
      10A    -11.256074    11A     -1.497788    12A     -1.416157
      13A     -1.256063    14A     -1.239615    15A     -1.054399
      16A     -0.973609    17A     -0.950439    18A     -0.862858
      19A     -0.839473    20A     -0.778953    21A     -0.725607
      22A     -0.684800    23A     -0.669353    24A     -0.661422
      25A     -0.650740    26A     -0.620698    27A     -0.594349
      28A     -0.586789    29A     -0.564219    30A     -0.560330
      31A     -0.552181    32A     -0.537239    33A     -0.482016
      34A     -0.464351    35A     -0.446358    36A     -0.379855
      37A     -0.350001

  @DF-RHF Final Energy:  -490.63673216577342

   => Energetics <=

    Nuclear Repulsion Energy =            528.3122988776538023
    One-Electron Energy =               -1716.6765557560981961
    Two-Electron Energy =                 697.7275247126709701
    Total Energy =                       -490.6367321657734237
  Basis Set: (AUG-CC-PVTZ AUX)
    Blend: AUG-CC-PVTZ-RI
    Molecular point group: c1

    Geometry (in Angstrom), charge = 0, multiplicity = 1:

       Center              X                  Y                   Z               Mass
    ------------   -----------------  -----------------  -----------------  -----------------
         O            1.601750993939    -0.937962061953     0.389028480101    15.994914619570
         O           -0.881186006061    -1.802250061953    -0.185135519899    15.994914619570
         N           -1.763621006061     0.309246938047     0.011062480101    14.003074004430
         N            1.166255993939     1.102914938047    -0.433184519899    14.003074004430
         C           -0.738099106061    -0.629520061953    -0.063981219899    12.000000000000
         C           -1.680524006061     1.714944938047     0.380312480101    12.000000000000
         C           -3.115011006061    -0.216996061953    -0.113501519899    12.000000000000
         C            0.661000993939    -0.041277061953    -0.022059519899    12.000000000000
         C            2.790331993939    -0.288431061953     0.230515480101    12.000000000000
         C            2.530634993939     0.953807938047    -0.271266519899    12.000000000000
         H           -2.118714006061     2.330870938047    -0.411926519899     1.007825032230
         H           -0.647418006061     2.016621938047     0.518740480101     1.007825032230
         H           -2.246901006061     1.880319938047     1.304290480101     1.007825032230
         H           -3.619928006061    -0.216425061953     0.859486480101     1.007825032230
         H           -3.060294006061    -1.236454061953    -0.489786519899     1.007825032230
         H           -3.682656006061     0.411739938047    -0.806083519899     1.007825032230
         H            3.677582993939    -0.830984061953     0.517500480101     1.007825032230
         H            3.224202993939     1.741110938047    -0.530223519899     1.007825032230

  Basis Set: AUG-CC-PVTZ
    Blend: AUG-CC-PVTZ
  Basis Set: (AUG-CC-PVTZ AUX)
    Blend: AUG-CC-PVTZ-JKFIT
	 Reference Energy          =    -490.6367321657734237 [Eh]
	 Singles Energy            =      -0.0000000000000000 [Eh]
	 Same-Spin Energy          =      -0.5054119486474229 [Eh]
	 Opposite-Spin Energy      =      -1.5478381405014374 [Eh]
	 Correlation Energy        =      -2.0532500891488601 [Eh]
	 Total Energy              =    -492.6899822549222563 [Eh]

	 ================> DF-SCS-MP2 Energies <==================
	-----------------------------------------------------------
	 SCS Same-Spin Scale       =       0.3333333333333333 [-]
	 SCS Opposite-Spin Scale   =       1.2000000000000000 [-]
	 SCS Same-Spin Energy      =      -0.1684706495491410 [Eh]
	 SCS Opposite-Spin Energy  =      -1.8574057686017249 [Eh]
	 SCS Correlation Energy    =      -2.0258764181508657 [Eh]
	 SCS Total Energy          =    -492.6626085839242819 [Eh]
	-----------------------------------------------------------

  Dipole Moment: [D]
     X:     0.4524      Y:     2.4059      Z:     0.9091     Total:     2.6114

*** Psi4 exiting successfully. Buy a developer a beer!
