                               Psi4 1.4a3.dev225

  ==> Input File <==

--------------------------------------------------------------------------
#psi4
#
memory 32 gb

molecule  {
0 1
  O        1.6580350    -0.9827140     0.3821500
  O       -0.8249020    -1.8470020    -0.1920140
  N       -1.7073370     0.2644950     0.0041840
  N        1.2225400     1.0581630    -0.4400630
  C       -0.6757910    -0.6248990    -0.0657590
  C       -1.6242400     1.6701930     0.3734340
  C       -3.0587270    -0.2617480    -0.1203800
  C        0.6980974    -0.1294810    -0.0133251
  C        2.8466160    -0.3331830     0.2236370
  C        2.5869190     0.9090560    -0.2781450
  H       -2.0624300     2.2861190    -0.4188050
  H       -0.5911340     1.9718700     0.5118620
  H       -2.1906170     1.8355680     1.2974120
  H       -3.5636440    -0.2611770     0.8526080
  H       -3.0040100    -1.2812060    -0.4966650
  H       -3.6263720     0.3669880    -0.8129620
  H        3.7338670    -0.8757360     0.5106220
  H        3.2804870     1.6963590    -0.5371020
units angstrom
no_reorient  #important for SAPT in psi4, default
symmetry c1  #important for SAPT in psi4, default
}

set PROPERTIES_ORIGIN ["COM"]
properties('MP2/aug-cc-pvtz', properties = ['dipole'])
--------------------------------------------------------------------------

    Molecular point group: c1
  Charge       = 0
  Multiplicity = 1
  Basis Set: AUG-CC-PVTZ
    Blend: AUG-CC-PVTZ
  Basis Set: (AUG-CC-PVTZ AUX)
    Blend: AUG-CC-PVTZ-JKFIT

    Orbital Energies [Eh]
    ---------------------

    Doubly Occupied:

       1A    -20.659250     2A    -20.527279     3A    -15.602209
       4A    -15.593820     5A    -11.372373     6A    -11.358820
       7A    -11.312694     8A    -11.278257     9A    -11.265701
      10A    -11.259573    11A     -1.504881    12A     -1.384094
      13A     -1.257270    14A     -1.229746    15A     -1.062153
      16A     -0.977076    17A     -0.960655    18A     -0.870507
      19A     -0.843565    20A     -0.783396    21A     -0.727375
      22A     -0.685614    23A     -0.671455    24A     -0.660995
      25A     -0.652473    26A     -0.619716    27A     -0.592061
      28A     -0.584125    29A     -0.566669    30A     -0.561773
      31A     -0.541802    32A     -0.535650    33A     -0.475928
      34A     -0.458332    35A     -0.443970    36A     -0.380517
      37A     -0.347747

  @DF-RHF Final Energy:  -490.63025930006967

   => Energetics <=

    Nuclear Repulsion Energy =            528.3044890806806961
    One-Electron Energy =               -1716.6504599275717737
    Two-Electron Energy =                 697.7157115468214670
    Total Energy =                       -490.6302593000696106
  Basis Set: (AUG-CC-PVTZ AUX)
    Blend: AUG-CC-PVTZ-RI
    Molecular point group: c1

    Geometry (in Angstrom), charge = 0, multiplicity = 1:

       Center              X                  Y                   Z               Mass
    ------------   -----------------  -----------------  -----------------  -----------------
         O            1.602878822043    -0.938469363978     0.387253771230    15.994914619570
         O           -0.880058177957    -1.802757363978    -0.186910228770    15.994914619570
         N           -1.762493177957     0.308739636022     0.009287771230    14.003074004430
         N            1.167383822043     1.102407636022    -0.434959228770    14.003074004430
         C           -0.730947177957    -0.580654363978    -0.060655228770    12.000000000000
         C           -1.679396177957     1.714437636022     0.378537771230    12.000000000000
         C           -3.113883177957    -0.217503363978    -0.115276228770    12.000000000000
         C            0.642941222043    -0.085236363978    -0.008221328770    12.000000000000
         C            2.791459822043    -0.288938363978     0.228740771230    12.000000000000
         C            2.531762822043     0.953300636022    -0.273041228770    12.000000000000
         H           -2.117586177957     2.330363636022    -0.413701228770     1.007825032230
         H           -0.646290177957     2.016114636022     0.516965771230     1.007825032230
         H           -2.245773177957     1.879812636022     1.302515771230     1.007825032230
         H           -3.618800177957    -0.216932363978     0.857711771230     1.007825032230
         H           -3.059166177957    -1.236961363978    -0.491561228770     1.007825032230
         H           -3.681528177957     0.411232636022    -0.807858228770     1.007825032230
         H            3.678710822043    -0.831491363978     0.515725771230     1.007825032230
         H            3.225330822043     1.740603636022    -0.531998228770     1.007825032230

  Basis Set: AUG-CC-PVTZ
    Blend: AUG-CC-PVTZ
  Basis Set: (AUG-CC-PVTZ AUX)
    Blend: AUG-CC-PVTZ-JKFIT
	 Reference Energy          =    -490.6302593000696675 [Eh]
	 Singles Energy            =      -0.0000000000000000 [Eh]
	 Same-Spin Energy          =      -0.5080115567615955 [Eh]
	 Opposite-Spin Energy      =      -1.5520963849872904 [Eh]
	 Correlation Energy        =      -2.0601079417488859 [Eh]
	 Total Energy              =    -492.6903672418185351 [Eh]

	 ================> DF-SCS-MP2 Energies <==================
	-----------------------------------------------------------
	 SCS Same-Spin Scale       =       0.3333333333333333 [-]
	 SCS Opposite-Spin Scale   =       1.2000000000000000 [-]
	 SCS Same-Spin Energy      =      -0.1693371855871985 [Eh]
	 SCS Opposite-Spin Energy  =      -1.8625156619847485 [Eh]
	 SCS Correlation Energy    =      -2.0318528475719471 [Eh]
	 SCS Total Energy          =    -492.6621121476416079 [Eh]
	-----------------------------------------------------------

  Dipole Moment: [D]
     X:     0.4794      Y:     2.7043      Z:     0.9991     Total:     2.9225

*** Psi4 exiting successfully. Buy a developer a beer!
