                               Psi4 1.4a3.dev225

  ==> Input File <==

--------------------------------------------------------------------------
#psi4
#
memory 32 gb

molecule  {
0 1
  O        1.6580350    -0.9827140     0.3821500
  O       -0.8249020    -1.8470020    -0.1920140
  N       -1.7073370     0.2644950     0.0041840
  N        1.2225400     1.0581630    -0.4400630
  C       -0.6757910    -0.6248990    -0.0657590
  C       -1.6356563     1.4770708     0.3227045
  C       -3.0587270    -0.2617480    -0.1203800
  C        0.7172850    -0.0860290    -0.0289380
  C        2.8466160    -0.3331830     0.2236370
  C        2.5869190     0.9090560    -0.2781450
  H       -2.0624300     2.2861190    -0.4188050
  H       -0.5911340     1.9718700     0.5118620
  H       -2.1906170     1.8355680     1.2974120
  H       -3.5636440    -0.2611770     0.8526080
  H       -3.0040100    -1.2812060    -0.4966650
  H       -3.6263720     0.3669880    -0.8129620
  H        3.7338670    -0.8757360     0.5106220
  H        3.2804870     1.6963590    -0.5371020
units angstrom
no_reorient  #important for SAPT in psi4, default
symmetry c1  #important for SAPT in psi4, default
}

set PROPERTIES_ORIGIN ["COM"]
properties('MP2/aug-cc-pvtz', properties = ['dipole'])
--------------------------------------------------------------------------

    Molecular point group: c1
  Charge       = 0
  Multiplicity = 1
  Basis Set: AUG-CC-PVTZ
    Blend: AUG-CC-PVTZ
  Basis Set: (AUG-CC-PVTZ AUX)
    Blend: AUG-CC-PVTZ-JKFIT

    Orbital Energies [Eh]
    ---------------------

    Doubly Occupied:

       1A    -20.656564     2A    -20.538439     3A    -15.605384
       4A    -15.594328     5A    -11.383294     6A    -11.359453
       7A    -11.315036     8A    -11.278974     9A    -11.268830
      10A    -11.264812    11A     -1.501380    12A     -1.397898
      13A     -1.310510    14A     -1.249755    15A     -1.062354
      16A     -0.988437    17A     -0.965358    18A     -0.868829
      19A     -0.846850    20A     -0.785761    21A     -0.747570
      22A     -0.689189    23A     -0.680566    24A     -0.676523
      25A     -0.662091    26A     -0.628567    27A     -0.601200
      28A     -0.589444    29A     -0.565897    30A     -0.550689
      31A     -0.529835    32A     -0.518134    33A     -0.481719
      34A     -0.464158    35A     -0.441867    36A     -0.370731
      37A     -0.352758

  @DF-RHF Final Energy:  -490.58684157175497

   => Energetics <=

    Nuclear Repulsion Energy =            532.4199010169077155
    One-Electron Energy =               -1724.4271194587149694
    Two-Electron Energy =                 701.4203768700523369
    Total Energy =                       -490.5868415717549169
  Basis Set: (AUG-CC-PVTZ AUX)
    Blend: AUG-CC-PVTZ-RI
    Molecular point group: c1

    Geometry (in Angstrom), charge = 0, multiplicity = 1:

       Center              X                  Y                   Z               Mass
    ------------   -----------------  -----------------  -----------------  -----------------
         O            1.602212989206    -0.925645855186     0.392937884364    15.994914619570
         O           -0.880724010794    -1.789933855186    -0.181226115636    15.994914619570
         N           -1.763159010794     0.321563144814     0.014971884364    14.003074004430
         N            1.166717989206     1.115231144814    -0.429275115636    14.003074004430
         C           -0.731613010794    -0.567830855186    -0.054971115636    12.000000000000
         C           -1.691478310794     1.534138944814     0.333492384364    12.000000000000
         C           -3.114549010794    -0.204679855186    -0.109592115636    12.000000000000
         C            0.661462989206    -0.028960855186    -0.018150115636    12.000000000000
         C            2.790793989206    -0.276114855186     0.234424884364    12.000000000000
         C            2.531096989206     0.966124144814    -0.267357115636    12.000000000000
         H           -2.118252010794     2.343187144814    -0.408017115636     1.007825032230
         H           -0.646956010794     2.028938144814     0.522649884364     1.007825032230
         H           -2.246439010794     1.892636144814     1.308199884364     1.007825032230
         H           -3.619466010794    -0.204108855186     0.863395884364     1.007825032230
         H           -3.059832010794    -1.224137855186    -0.485877115636     1.007825032230
         H           -3.682194010794     0.424056144814    -0.802174115636     1.007825032230
         H            3.678044989206    -0.818667855186     0.521409884364     1.007825032230
         H            3.224664989206     1.753427144814    -0.526314115636     1.007825032230

  Basis Set: AUG-CC-PVTZ
    Blend: AUG-CC-PVTZ
  Basis Set: (AUG-CC-PVTZ AUX)
    Blend: AUG-CC-PVTZ-JKFIT
	 Reference Energy          =    -490.5868415717549738 [Eh]
	 Singles Energy            =      -0.0000000000000000 [Eh]
	 Same-Spin Energy          =      -0.5096780534568817 [Eh]
	 Opposite-Spin Energy      =      -1.5531697397631508 [Eh]
	 Correlation Energy        =      -2.0628477932200324 [Eh]
	 Total Energy              =    -492.6496893649750177 [Eh]

	 ================> DF-SCS-MP2 Energies <==================
	-----------------------------------------------------------
	 SCS Same-Spin Scale       =       0.3333333333333333 [-]
	 SCS Opposite-Spin Scale   =       1.2000000000000000 [-]
	 SCS Same-Spin Energy      =      -0.1698926844856272 [Eh]
	 SCS Opposite-Spin Energy  =      -1.8638036877157809 [Eh]
	 SCS Correlation Energy    =      -2.0336963722014079 [Eh]
	 SCS Total Energy          =    -492.6205379439563785 [Eh]
	-----------------------------------------------------------

  Dipole Moment: [D]
     X:     0.6423      Y:     2.1254      Z:     0.7822     Total:     2.3541

*** Psi4 exiting successfully. Buy a developer a beer!
