                               Psi4 1.4a3.dev225

  ==> Input File <==

--------------------------------------------------------------------------
#psi4
#
memory 32 gb

molecule  {
0 1
  O        1.6917617    -0.9507373     0.3719642
  O       -0.8249020    -1.8470020    -0.1920140
  N       -1.7073370     0.2644950     0.0041840
  N        1.2225400     1.0581630    -0.4400630
  C       -0.6757910    -0.6248990    -0.0657590
  C       -1.6242400     1.6701930     0.3734340
  C       -3.0587270    -0.2617480    -0.1203800
  C        0.7172850    -0.0860290    -0.0289380
  C        2.8466160    -0.3331830     0.2236370
  C        2.5869190     0.9090560    -0.2781450
  H       -2.0624300     2.2861190    -0.4188050
  H       -0.5911340     1.9718700     0.5118620
  H       -2.1906170     1.8355680     1.2974120
  H       -3.5636440    -0.2611770     0.8526080
  H       -3.0040100    -1.2812060    -0.4966650
  H       -3.6263720     0.3669880    -0.8129620
  H        3.7338670    -0.8757360     0.5106220
  H        3.2804870     1.6963590    -0.5371020
units angstrom
no_reorient  #important for SAPT in psi4, default
symmetry c1  #important for SAPT in psi4, default
}

set PROPERTIES_ORIGIN ["COM"]
properties('MP2/aug-cc-pvtz', properties = ['dipole'])
--------------------------------------------------------------------------

    Molecular point group: c1
  Charge       = 0
  Multiplicity = 1
  Basis Set: AUG-CC-PVTZ
    Blend: AUG-CC-PVTZ
  Basis Set: (AUG-CC-PVTZ AUX)
    Blend: AUG-CC-PVTZ-JKFIT

    Orbital Energies [Eh]
    ---------------------

    Doubly Occupied:

       1A    -20.654379     2A    -20.527971     3A    -15.602220
       4A    -15.591953     5A    -11.375368     6A    -11.353800
       7A    -11.310522     8A    -11.272156     9A    -11.266459
      10A    -11.259647    11A     -1.514426    12A     -1.383294
      13A     -1.259863    14A     -1.242479    15A     -1.060859
      16A     -0.977601    17A     -0.959456    18A     -0.869217
      19A     -0.845156    20A     -0.784862    21A     -0.729107
      22A     -0.689453    23A     -0.674553    24A     -0.661174
      25A     -0.654407    26A     -0.621548    27A     -0.587062
      28A     -0.580932    29A     -0.567768    30A     -0.562191
      31A     -0.542557    32A     -0.535971    33A     -0.481610
      34A     -0.464021    35A     -0.442472    36A     -0.380839
      37A     -0.348729

  @DF-RHF Final Energy:  -490.63725588568741

   => Energetics <=

    Nuclear Repulsion Energy =            529.0352944348741175
    One-Electron Energy =               -1718.0729365597655942
    Two-Electron Energy =                 698.4003862392041810
    Total Energy =                       -490.6372558856874093
  Basis Set: (AUG-CC-PVTZ AUX)
    Blend: AUG-CC-PVTZ-RI
    Molecular point group: c1

    Geometry (in Angstrom), charge = 0, multiplicity = 1:

       Center              X                  Y                   Z               Mass
    ------------   -----------------  -----------------  -----------------  -----------------
         O            1.631109915129    -0.913867353945     0.379568894826    15.994914619570
         O           -0.885553784871    -1.810132053945    -0.184409305174    15.994914619570
         N           -1.767988784871     0.301364946055     0.011788694826    14.003074004430
         N            1.161888215129     1.095032946055    -0.432458305174    14.003074004430
         C           -0.736442784871    -0.588029053945    -0.058154305174    12.000000000000
         C           -1.684891784871     1.707062946055     0.381038694826    12.000000000000
         C           -3.119378784871    -0.224878053945    -0.112775305174    12.000000000000
         C            0.656633215129    -0.049159053945    -0.021333305174    12.000000000000
         C            2.785964215129    -0.296313053945     0.231241694826    12.000000000000
         C            2.526267215129     0.945925946055    -0.270540305174    12.000000000000
         H           -2.123081784871     2.322988946055    -0.411200305174     1.007825032230
         H           -0.651785784871     2.008739946055     0.519466694826     1.007825032230
         H           -2.251268784871     1.872437946055     1.305016694826     1.007825032230
         H           -3.624295784871    -0.224307053945     0.860212694826     1.007825032230
         H           -3.064661784871    -1.244336053945    -0.489060305174     1.007825032230
         H           -3.687023784871     0.403857946055    -0.805357305174     1.007825032230
         H            3.673215215129    -0.838866053945     0.518226694826     1.007825032230
         H            3.219835215129     1.733228946055    -0.529497305174     1.007825032230

  Basis Set: AUG-CC-PVTZ
    Blend: AUG-CC-PVTZ
  Basis Set: (AUG-CC-PVTZ AUX)
    Blend: AUG-CC-PVTZ-JKFIT
	 Reference Energy          =    -490.6372558856874093 [Eh]
	 Singles Energy            =      -0.0000000000000000 [Eh]
	 Same-Spin Energy          =      -0.5065134310541670 [Eh]
	 Opposite-Spin Energy      =      -1.5485700406984344 [Eh]
	 Correlation Energy        =      -2.0550834717526012 [Eh]
	 Total Energy              =    -492.6923393574400052 [Eh]

	 ================> DF-SCS-MP2 Energies <==================
	-----------------------------------------------------------
	 SCS Same-Spin Scale       =       0.3333333333333333 [-]
	 SCS Opposite-Spin Scale   =       1.2000000000000000 [-]
	 SCS Same-Spin Energy      =      -0.1688378103513890 [Eh]
	 SCS Opposite-Spin Energy  =      -1.8582840488381211 [Eh]
	 SCS Correlation Energy    =      -2.0271218591895099 [Eh]
	 SCS Total Energy          =    -492.6643777448769015 [Eh]
	-----------------------------------------------------------

  Dipole Moment: [D]
     X:     0.3217      Y:     2.6684      Z:     0.9960     Total:     2.8664

*** Psi4 exiting successfully. Buy a developer a beer!
