                               Psi4 1.4a3.dev225

  ==> Input File <==

--------------------------------------------------------------------------
#psi4
#
memory 32 gb

molecule  {
0 1
  O        1.6580350    -0.9827140     0.3821500
  O       -0.8249020    -1.8470020    -0.1920140
  N       -1.6846567     0.2525481     0.0480570
  N        1.2225400     1.0581630    -0.4400630
  C       -0.6757910    -0.6248990    -0.0657590
  C       -1.6242400     1.6701930     0.3734340
  C       -3.0587270    -0.2617480    -0.1203800
  C        0.7172850    -0.0860290    -0.0289380
  C        2.8466160    -0.3331830     0.2236370
  C        2.5869190     0.9090560    -0.2781450
  H       -2.0624300     2.2861190    -0.4188050
  H       -0.5911340     1.9718700     0.5118620
  H       -2.1906170     1.8355680     1.2974120
  H       -3.5636440    -0.2611770     0.8526080
  H       -3.0040100    -1.2812060    -0.4966650
  H       -3.6263720     0.3669880    -0.8129620
  H        3.7338670    -0.8757360     0.5106220
  H        3.2804870     1.6963590    -0.5371020
units angstrom
no_reorient  #important for SAPT in psi4, default
symmetry c1  #important for SAPT in psi4, default
}

set PROPERTIES_ORIGIN ["COM"]
properties('MP2/aug-cc-pvtz', properties = ['dipole'])
--------------------------------------------------------------------------

    Molecular point group: c1
  Charge       = 0
  Multiplicity = 1
  Basis Set: AUG-CC-PVTZ
    Blend: AUG-CC-PVTZ
  Basis Set: (AUG-CC-PVTZ AUX)
    Blend: AUG-CC-PVTZ-JKFIT

    Orbital Energies [Eh]
    ---------------------

    Doubly Occupied:

       1A    -20.652440     2A    -20.523476     3A    -15.603824
       4A    -15.590688     5A    -11.370931     6A    -11.354795
       7A    -11.311336     8A    -11.276238     9A    -11.268061
      10A    -11.262406    11A     -1.497345    12A     -1.381688
      13A     -1.260668    14A     -1.242128    15A     -1.056632
      16A     -0.976564    17A     -0.964471    18A     -0.865550
      19A     -0.843506    20A     -0.780053    21A     -0.727511
      22A     -0.681583    23A     -0.667231    24A     -0.660705
      25A     -0.651017    26A     -0.621427    27A     -0.587293
      28A     -0.584716    29A     -0.568474    30A     -0.563800
      31A     -0.540117    32A     -0.535143    33A     -0.480802
      34A     -0.464313    35A     -0.439598    36A     -0.382488
      37A     -0.350345

  @DF-RHF Final Energy:  -490.63642277820821

   => Energetics <=

    Nuclear Repulsion Energy =            528.6680009990598137
    One-Electron Energy =               -1717.4301251389435947
    Two-Electron Energy =                 698.1257013616755103
    Total Energy =                       -490.6364227782082708
  Basis Set: (AUG-CC-PVTZ AUX)
    Blend: AUG-CC-PVTZ-RI
    Molecular point group: c1

    Geometry (in Angstrom), charge = 0, multiplicity = 1:

       Center              X                  Y                   Z               Mass
    ------------   -----------------  -----------------  -----------------  -----------------
         O            1.598967279251    -0.940997810871     0.384205032100    15.994914619570
         O           -0.883969720749    -1.805285810871    -0.189958967900    15.994914619570
         N           -1.743724420749     0.294264289129     0.050112032100    14.003074004430
         N            1.163472279251     1.099879189129    -0.438007967900    14.003074004430
         C           -0.734858720749    -0.583182810871    -0.063703967900    12.000000000000
         C           -1.683307720749     1.711909189129     0.375489032100    12.000000000000
         C           -3.117794720749    -0.220031810871    -0.118324967900    12.000000000000
         C            0.658217279251    -0.044312810871    -0.026882967900    12.000000000000
         C            2.787548279251    -0.291466810871     0.225692032100    12.000000000000
         C            2.527851279251     0.950772189129    -0.276089967900    12.000000000000
         H           -2.121497720749     2.327835189129    -0.416749967900     1.007825032230
         H           -0.650201720749     2.013586189129     0.513917032100     1.007825032230
         H           -2.249684720749     1.877284189129     1.299467032100     1.007825032230
         H           -3.622711720749    -0.219460810871     0.854663032100     1.007825032230
         H           -3.063077720749    -1.239489810871    -0.494609967900     1.007825032230
         H           -3.685439720749     0.408704189129    -0.810906967900     1.007825032230
         H            3.674799279251    -0.834019810871     0.512677032100     1.007825032230
         H            3.221419279251     1.738075189129    -0.535046967900     1.007825032230

  Basis Set: AUG-CC-PVTZ
    Blend: AUG-CC-PVTZ
  Basis Set: (AUG-CC-PVTZ AUX)
    Blend: AUG-CC-PVTZ-JKFIT
	 Reference Energy          =    -490.6364227782082139 [Eh]
	 Singles Energy            =      -0.0000000000000000 [Eh]
	 Same-Spin Energy          =      -0.5064022611703327 [Eh]
	 Opposite-Spin Energy      =      -1.5498357865329631 [Eh]
	 Correlation Energy        =      -2.0562380477032960 [Eh]
	 Total Energy              =    -492.6926608259115028 [Eh]

	 ================> DF-SCS-MP2 Energies <==================
	-----------------------------------------------------------
	 SCS Same-Spin Scale       =       0.3333333333333333 [-]
	 SCS Opposite-Spin Scale   =       1.2000000000000000 [-]
	 SCS Same-Spin Energy      =      -0.1688007537234442 [Eh]
	 SCS Opposite-Spin Energy  =      -1.8598029438395556 [Eh]
	 SCS Correlation Energy    =      -2.0286036975629997 [Eh]
	 SCS Total Energy          =    -492.6650264757712421 [Eh]
	-----------------------------------------------------------

  Dipole Moment: [D]
     X:     0.2320      Y:     2.8706      Z:     0.9142     Total:     3.0215

*** Psi4 exiting successfully. Buy a developer a beer!
