                               Psi4 1.4a3.dev225

  ==> Input File <==

--------------------------------------------------------------------------
#psi4
#
memory 32 gb

molecule  {
0 1
  O        1.6580350    -0.9827140     0.3821500
  O       -0.8249020    -1.8470020    -0.1920140
  N       -1.7073370     0.2644950     0.0041840
  N        1.2225400     1.0581630    -0.4400630
  C       -0.6757910    -0.6248990    -0.0657590
  C       -1.6242400     1.6701930     0.3734340
  C       -3.0587270    -0.2617480    -0.1203800
  C        0.7172850    -0.0860290    -0.0289380
  C        2.8466160    -0.3331830     0.2236370
  C        2.5869190     0.9090560    -0.2781450
  H       -2.0624300     2.2861190    -0.4188050
  H       -0.5911340     1.9718700     0.5118620
  H       -2.1906170     1.8355680     1.2974120
  H       -3.5175832    -0.2612291     0.7638477
  H       -3.0040100    -1.2812060    -0.4966650
  H       -3.6263720     0.3669880    -0.8129620
  H        3.7338670    -0.8757360     0.5106220
  H        3.2804870     1.6963590    -0.5371020
units angstrom
no_reorient  #important for SAPT in psi4, default
symmetry c1  #important for SAPT in psi4, default
}

set PROPERTIES_ORIGIN ["COM"]
properties('MP2/aug-cc-pvtz', properties = ['dipole'])
--------------------------------------------------------------------------

    Molecular point group: c1
  Charge       = 0
  Multiplicity = 1
  Basis Set: AUG-CC-PVTZ
    Blend: AUG-CC-PVTZ
  Basis Set: (AUG-CC-PVTZ AUX)
    Blend: AUG-CC-PVTZ-JKFIT

    Orbital Energies [Eh]
    ---------------------

    Doubly Occupied:

       1A    -20.653327     2A    -20.527078     3A    -15.600702
       4A    -15.591466     5A    -11.373500     6A    -11.355962
       7A    -11.312123     8A    -11.276871     9A    -11.266343
      10A    -11.247040    11A     -1.498176    12A     -1.381825
      13A     -1.259671    14A     -1.242546    15A     -1.057819
      16A     -0.983088    17A     -0.960952    18A     -0.867389
      19A     -0.844947    20A     -0.781574    21A     -0.727510
      22A     -0.682445    23A     -0.670757    24A     -0.659858
      25A     -0.655791    26A     -0.621748    27A     -0.588613
      28A     -0.585874    29A     -0.572889    30A     -0.564690
      31A     -0.541164    32A     -0.537763    33A     -0.481590
      34A     -0.464881    35A     -0.441286    36A     -0.380940
      37A     -0.350910

  @DF-RHF Final Energy:  -490.63098204011129

   => Energetics <=

    Nuclear Repulsion Energy =            528.8349151493415548
    One-Electron Energy =               -1717.7095809641477899
    Two-Electron Energy =                 698.2436837746947731
    Total Energy =                       -490.6309820401113484
  Basis Set: (AUG-CC-PVTZ AUX)
    Blend: AUG-CC-PVTZ-RI
    Molecular point group: c1

    Geometry (in Angstrom), charge = 0, multiplicity = 1:

       Center              X                  Y                   Z               Mass
    ------------   -----------------  -----------------  -----------------  -----------------
         O            1.600903416951    -0.942191888522     0.389230156091    15.994914619570
         O           -0.882033583049    -1.806479888522    -0.184933843909    15.994914619570
         N           -1.764468583049     0.305017111478     0.011264156091    14.003074004430
         N            1.165408416951     1.098685111478    -0.432982843909    14.003074004430
         C           -0.732922583049    -0.584376888522    -0.058678843909    12.000000000000
         C           -1.681371583049     1.710715111478     0.380514156091    12.000000000000
         C           -3.115858583049    -0.221225888522    -0.113299843909    12.000000000000
         C            0.660153416951    -0.045506888522    -0.021857843909    12.000000000000
         C            2.789484416951    -0.292660888522     0.230717156091    12.000000000000
         C            2.529787416951     0.949578111478    -0.271064843909    12.000000000000
         H           -2.119561583049     2.326641111478    -0.411724843909     1.007825032230
         H           -0.648265583049     2.012392111478     0.518942156091     1.007825032230
         H           -2.247748583049     1.876090111478     1.304492156091     1.007825032230
         H           -3.574714783049    -0.220706988522     0.770927856091     1.007825032230
         H           -3.061141583049    -1.240683888522    -0.489584843909     1.007825032230
         H           -3.683503583049     0.407510111478    -0.805881843909     1.007825032230
         H            3.676735416951    -0.835213888522     0.517702156091     1.007825032230
         H            3.223355416951     1.736881111478    -0.530021843909     1.007825032230

  Basis Set: AUG-CC-PVTZ
    Blend: AUG-CC-PVTZ
  Basis Set: (AUG-CC-PVTZ AUX)
    Blend: AUG-CC-PVTZ-JKFIT
	 Reference Energy          =    -490.6309820401112916 [Eh]
	 Singles Energy            =      -0.0000000000000000 [Eh]
	 Same-Spin Energy          =      -0.5065724540142938 [Eh]
	 Opposite-Spin Energy      =      -1.5496131849193013 [Eh]
	 Correlation Energy        =      -2.0561856389335951 [Eh]
	 Total Energy              =    -492.6871676790448760 [Eh]

	 ================> DF-SCS-MP2 Energies <==================
	-----------------------------------------------------------
	 SCS Same-Spin Scale       =       0.3333333333333333 [-]
	 SCS Opposite-Spin Scale   =       1.2000000000000000 [-]
	 SCS Same-Spin Energy      =      -0.1688574846714313 [Eh]
	 SCS Opposite-Spin Energy  =      -1.8595358219031615 [Eh]
	 SCS Correlation Energy    =      -2.0283933065745927 [Eh]
	 SCS Total Energy          =    -492.6593753466858630 [Eh]
	-----------------------------------------------------------

  Dipole Moment: [D]
     X:     0.3143      Y:     2.7755      Z:     0.9941     Total:     2.9648

*** Psi4 exiting successfully. Buy a developer a beer!
