                               Psi4 1.4a3.dev225

  ==> Input File <==

--------------------------------------------------------------------------
#psi4
#
memory 32 gb

molecule  {
0 1
  O        1.6580350    -0.9827140     0.3821500
  O       -0.8249020    -1.8470020    -0.1920140
  N       -1.7073370     0.2644950     0.0041840
  N        1.2225400     1.0581630    -0.4400630
  C       -0.6757910    -0.6248990    -0.0657590
  C       -1.6242400     1.6701930     0.3734340
  C       -3.0587270    -0.2617480    -0.1203800
  C        0.7172850    -0.0860290    -0.0289380
  C        3.0209301    -0.2379245     0.2003899
  C        2.5869190     0.9090560    -0.2781450
  H       -2.0624300     2.2861190    -0.4188050
  H       -0.5911340     1.9718700     0.5118620
  H       -2.1906170     1.8355680     1.2974120
  H       -3.5636440    -0.2611770     0.8526080
  H       -3.0040100    -1.2812060    -0.4966650
  H       -3.6263720     0.3669880    -0.8129620
  H        3.7338670    -0.8757360     0.5106220
  H        3.2804870     1.6963590    -0.5371020
units angstrom
no_reorient  #important for SAPT in psi4, default
symmetry c1  #important for SAPT in psi4, default
}

set PROPERTIES_ORIGIN ["COM"]
properties('MP2/aug-cc-pvtz', properties = ['dipole'])
--------------------------------------------------------------------------

    Molecular point group: c1
  Charge       = 0
  Multiplicity = 1
  Basis Set: AUG-CC-PVTZ
    Blend: AUG-CC-PVTZ
  Basis Set: (AUG-CC-PVTZ AUX)
    Blend: AUG-CC-PVTZ-JKFIT

    Orbital Energies [Eh]
    ---------------------

    Doubly Occupied:

       1A    -20.623451     2A    -20.530164     3A    -15.604025
       4A    -15.584974     5A    -11.375694     6A    -11.364517
       7A    -11.310473     8A    -11.287578     9A    -11.267488
      10A    -11.260419    11A     -1.440655    12A     -1.380786
      13A     -1.259080    14A     -1.232875    15A     -1.065193
      16A     -0.979765    17A     -0.965693    18A     -0.864821
      19A     -0.842588    20A     -0.765298    21A     -0.728009
      22A     -0.669196    23A     -0.668555    24A     -0.660012
      25A     -0.635323    26A     -0.629207    27A     -0.587732
      28A     -0.572544    29A     -0.563329    30A     -0.548790
      31A     -0.538877    32A     -0.530983    33A     -0.478597
      34A     -0.458802    35A     -0.442264    36A     -0.381685
      37A     -0.370913

  @DF-RHF Final Energy:  -490.60300253837983

   => Energetics <=

    Nuclear Repulsion Energy =            524.8751675794043194
    One-Electron Energy =               -1710.0156326789606283
    Two-Electron Energy =                 694.5374625611765396
    Total Energy =                       -490.6030025383798829
  Basis Set: (AUG-CC-PVTZ AUX)
    Blend: AUG-CC-PVTZ-RI
    Molecular point group: c1

    Geometry (in Angstrom), charge = 0, multiplicity = 1:

       Center              X                  Y                   Z               Mass
    ------------   -----------------  -----------------  -----------------  -----------------
         O            1.586299898843    -0.950353862805     0.390583235289    15.994914619570
         O           -0.896637101157    -1.814641862805    -0.183580764711    15.994914619570
         N           -1.779072101157     0.296855137195     0.012617235289    14.003074004430
         N            1.150804898843     1.090523137195    -0.431629764711    14.003074004430
         C           -0.747526101157    -0.592538862805    -0.057325764711    12.000000000000
         C           -1.695975101157     1.702553137195     0.381867235289    12.000000000000
         C           -3.130462101157    -0.229387862805    -0.111946764711    12.000000000000
         C            0.645549898843    -0.053668862805    -0.020504764711    12.000000000000
         C            2.949194998843    -0.205564362805     0.208823135289    12.000000000000
         C            2.515183898843     0.941416137195    -0.269711764711    12.000000000000
         H           -2.134165101157     2.318479137195    -0.410371764711     1.007825032230
         H           -0.662869101157     2.004230137195     0.520295235289     1.007825032230
         H           -2.262352101157     1.867928137195     1.305845235289     1.007825032230
         H           -3.635379101157    -0.228816862805     0.861041235289     1.007825032230
         H           -3.075745101157    -1.248845862805    -0.488231764711     1.007825032230
         H           -3.698107101157     0.399348137195    -0.804528764711     1.007825032230
         H            3.662131898843    -0.843375862805     0.519055235289     1.007825032230
         H            3.208751898843     1.728719137195    -0.528668764711     1.007825032230

  Basis Set: AUG-CC-PVTZ
    Blend: AUG-CC-PVTZ
  Basis Set: (AUG-CC-PVTZ AUX)
    Blend: AUG-CC-PVTZ-JKFIT
	 Reference Energy          =    -490.6030025383798261 [Eh]
	 Singles Energy            =      -0.0000000000000000 [Eh]
	 Same-Spin Energy          =      -0.5060200060890683 [Eh]
	 Opposite-Spin Energy      =      -1.5532503547993812 [Eh]
	 Correlation Energy        =      -2.0592703608884495 [Eh]
	 Total Energy              =    -492.6622728992682596 [Eh]

	 ================> DF-SCS-MP2 Energies <==================
	-----------------------------------------------------------
	 SCS Same-Spin Scale       =       0.3333333333333333 [-]
	 SCS Opposite-Spin Scale   =       1.2000000000000000 [-]
	 SCS Same-Spin Energy      =      -0.1686733353630228 [Eh]
	 SCS Opposite-Spin Energy  =      -1.8639004257592573 [Eh]
	 SCS Correlation Energy    =      -2.0325737611222801 [Eh]
	 SCS Total Energy          =    -492.6355762995021337 [Eh]
	-----------------------------------------------------------

  Dipole Moment: [D]
     X:     0.4485      Y:     2.9182      Z:     0.9046     Total:     3.0880

*** Psi4 exiting successfully. Buy a developer a beer!
