                               Psi4 1.4a3.dev225

  ==> Input File <==

--------------------------------------------------------------------------
#psi4
#
memory 32 gb

molecule  {
0 1
  O        1.6580350    -0.9827140     0.3821500
  O       -0.8249020    -1.8470020    -0.1920140
  N       -1.7073370     0.2644950     0.0041840
  N        1.2225400     1.0581630    -0.4400630
  C       -0.6757910    -0.6248990    -0.0657590
  C       -1.6242400     1.6701930     0.3734340
  C       -3.0587270    -0.2617480    -0.1203800
  C        0.7172850    -0.0860290    -0.0289380
  C        2.8466160    -0.3331830     0.2236370
  C        2.5869190     0.9090560    -0.2781450
  H       -2.0624300     2.2861190    -0.4188050
  H       -0.5911340     1.9718700     0.5118620
  H       -2.1906170     1.8355680     1.2974120
  H       -3.5866744    -0.2611510     0.8969882
  H       -3.0040100    -1.2812060    -0.4966650
  H       -3.6263720     0.3669880    -0.8129620
  H        3.7338670    -0.8757360     0.5106220
  H        3.2804870     1.6963590    -0.5371020
units angstrom
no_reorient  #important for SAPT in psi4, default
symmetry c1  #important for SAPT in psi4, default
}

set PROPERTIES_ORIGIN ["COM"]
properties('MP2/aug-cc-pvtz', properties = ['dipole'])
--------------------------------------------------------------------------

    Molecular point group: c1
  Charge       = 0
  Multiplicity = 1
  Basis Set: AUG-CC-PVTZ
    Blend: AUG-CC-PVTZ
  Basis Set: (AUG-CC-PVTZ AUX)
    Blend: AUG-CC-PVTZ-JKFIT

    Orbital Energies [Eh]
    ---------------------

    Doubly Occupied:

       1A    -20.653866     2A    -20.528286     3A    -15.602717
       4A    -15.592060     5A    -11.374609     6A    -11.356585
       7A    -11.312632     8A    -11.277321     9A    -11.266556
      10A    -11.265364    11A     -1.498711    12A     -1.382885
      13A     -1.260228    14A     -1.243000    15A     -1.057863
      16A     -0.975702    17A     -0.958161    18A     -0.865472
      19A     -0.843534    20A     -0.780835    21A     -0.727364
      22A     -0.682595    23A     -0.666753    24A     -0.660719
      25A     -0.649903    26A     -0.622295    27A     -0.588454
      28A     -0.585563    29A     -0.567005    30A     -0.558275
      31A     -0.542161    32A     -0.532491    33A     -0.482156
      34A     -0.465367    35A     -0.442344    36A     -0.380300
      37A     -0.351354

  @DF-RHF Final Energy:  -490.63476188175309

   => Energetics <=

    Nuclear Repulsion Energy =            528.1124769035664031
    One-Electron Energy =               -1716.2915063947991712
    Two-Electron Energy =                 697.5442676094796752
    Total Energy =                       -490.6347618817530929
  Basis Set: (AUG-CC-PVTZ AUX)
    Blend: AUG-CC-PVTZ-RI
    Molecular point group: c1

    Geometry (in Angstrom), charge = 0, multiplicity = 1:

       Center              X                  Y                   Z               Mass
    ------------   -----------------  -----------------  -----------------  -----------------
         O            1.601400579225    -0.942192450509     0.388272111742    15.994914619570
         O           -0.881536420775    -1.806480450509    -0.185891888258    15.994914619570
         N           -1.763971420775     0.305016549491     0.010306111742    14.003074004430
         N            1.165905579225     1.098684549491    -0.433940888258    14.003074004430
         C           -0.732425420775    -0.584377450509    -0.059636888258    12.000000000000
         C           -1.680874420775     1.710714549491     0.379556111742    12.000000000000
         C           -3.115361420775    -0.221226450509    -0.114257888258    12.000000000000
         C            0.660650579225    -0.045507450509    -0.022815888258    12.000000000000
         C            2.789981579225    -0.292661450509     0.229759111742    12.000000000000
         C            2.530284579225     0.949577549491    -0.272022888258    12.000000000000
         H           -2.119064420775     2.326640549491    -0.412682888258     1.007825032230
         H           -0.647768420775     2.012391549491     0.517984111742     1.007825032230
         H           -2.247251420775     1.876089549491     1.303534111742     1.007825032230
         H           -3.643308820775    -0.220629450509     0.903110311742     1.007825032230
         H           -3.060644420775    -1.240684450509    -0.490542888258     1.007825032230
         H           -3.683006420775     0.407509549491    -0.806839888258     1.007825032230
         H            3.677232579225    -0.835214450509     0.516744111742     1.007825032230
         H            3.223852579225     1.736880549491    -0.530979888258     1.007825032230

  Basis Set: AUG-CC-PVTZ
    Blend: AUG-CC-PVTZ
  Basis Set: (AUG-CC-PVTZ AUX)
    Blend: AUG-CC-PVTZ-JKFIT
	 Reference Energy          =    -490.6347618817530929 [Eh]
	 Singles Energy            =      -0.0000000000000000 [Eh]
	 Same-Spin Energy          =      -0.5065972267952080 [Eh]
	 Opposite-Spin Energy      =      -1.5504291396217513 [Eh]
	 Correlation Energy        =      -2.0570263664169595 [Eh]
	 Total Energy              =    -492.6917882481700417 [Eh]

	 ================> DF-SCS-MP2 Energies <==================
	-----------------------------------------------------------
	 SCS Same-Spin Scale       =       0.3333333333333333 [-]
	 SCS Opposite-Spin Scale   =       1.2000000000000000 [-]
	 SCS Same-Spin Energy      =      -0.1688657422650693 [Eh]
	 SCS Opposite-Spin Energy  =      -1.8605149675461015 [Eh]
	 SCS Correlation Energy    =      -2.0293807098111709 [Eh]
	 SCS Total Energy          =    -492.6641425915642571 [Eh]
	-----------------------------------------------------------

  Dipole Moment: [D]
     X:     0.4116      Y:     2.7739      Z:     0.9305     Total:     2.9546

*** Psi4 exiting successfully. Buy a developer a beer!
