                               Psi4 1.4a3.dev225

  ==> Input File <==

--------------------------------------------------------------------------
#psi4
#
memory 32 gb

molecule  {
0 1
  O        1.6580350    -0.9827140     0.3821500
  O       -0.8249020    -1.8470020    -0.1920140
  N       -1.7186409     0.2711117    -0.0175871
  N        1.2225400     1.0581630    -0.4400630
  C       -0.6757910    -0.6248990    -0.0657590
  C       -1.6242400     1.6701930     0.3734340
  C       -3.0587270    -0.2617480    -0.1203800
  C        0.7172850    -0.0860290    -0.0289380
  C        2.8466160    -0.3331830     0.2236370
  C        2.5869190     0.9090560    -0.2781450
  H       -2.0624300     2.2861190    -0.4188050
  H       -0.5911340     1.9718700     0.5118620
  H       -2.1906170     1.8355680     1.2974120
  H       -3.5636440    -0.2611770     0.8526080
  H       -3.0040100    -1.2812060    -0.4966650
  H       -3.6263720     0.3669880    -0.8129620
  H        3.7338670    -0.8757360     0.5106220
  H        3.2804870     1.6963590    -0.5371020
units angstrom
no_reorient  #important for SAPT in psi4, default
symmetry c1  #important for SAPT in psi4, default
}

set PROPERTIES_ORIGIN ["COM"]
properties('MP2/aug-cc-pvtz', properties = ['dipole'])
--------------------------------------------------------------------------

    Molecular point group: c1
  Charge       = 0
  Multiplicity = 1
  Basis Set: AUG-CC-PVTZ
    Blend: AUG-CC-PVTZ
  Basis Set: (AUG-CC-PVTZ AUX)
    Blend: AUG-CC-PVTZ-JKFIT

    Orbital Energies [Eh]
    ---------------------

    Doubly Occupied:

       1A    -20.654286     2A    -20.530275     3A    -15.600974
       4A    -15.592426     5A    -11.375859     6A    -11.357122
       7A    -11.313009     8A    -11.277620     9A    -11.265598
      10A    -11.257878    11A     -1.499108    12A     -1.383023
      13A     -1.259601    14A     -1.243076    15A     -1.058347
      16A     -0.977710    17A     -0.956202    18A     -0.866087
      19A     -0.844113    20A     -0.781484    21A     -0.727156
      22A     -0.682919    23A     -0.667634    24A     -0.660200
      25A     -0.652264    26A     -0.622394    27A     -0.589041
      28A     -0.586206    29A     -0.566720    30A     -0.561025
      31A     -0.541566    32A     -0.535155    33A     -0.482516
      34A     -0.465624    35A     -0.443164    36A     -0.379627
      37A     -0.351616

  @DF-RHF Final Energy:  -490.63610247961185

   => Energetics <=

    Nuclear Repulsion Energy =            528.1536508484649630
    One-Electron Energy =               -1716.3622530899804133
    Two-Electron Energy =                 697.5724997619037140
    Total Energy =                       -490.6361024796118500
  Basis Set: (AUG-CC-PVTZ AUX)
    Blend: AUG-CC-PVTZ-RI
    Molecular point group: c1

    Geometry (in Angstrom), charge = 0, multiplicity = 1:

       Center              X                  Y                   Z               Mass
    ------------   -----------------  -----------------  -----------------  -----------------
         O            1.602365023795    -0.942853801909     0.390768137385    15.994914619570
         O           -0.880571976205    -1.807141801909    -0.183395862615    15.994914619570
         N           -1.774310876205     0.310971898091    -0.008968962615    14.003074004430
         N            1.166870023795     1.098023198091    -0.431444862615    14.003074004430
         C           -0.731460976205    -0.585038801909    -0.057140862615    12.000000000000
         C           -1.679909976205     1.710053198091     0.382052137385    12.000000000000
         C           -3.114396976205    -0.221887801909    -0.111761862615    12.000000000000
         C            0.661615023795    -0.046168801909    -0.020319862615    12.000000000000
         C            2.790946023795    -0.293322801909     0.232255137385    12.000000000000
         C            2.531249023795     0.948916198091    -0.269526862615    12.000000000000
         H           -2.118099976205     2.325979198091    -0.410186862615     1.007825032230
         H           -0.646803976205     2.011730198091     0.520480137385     1.007825032230
         H           -2.246286976205     1.875428198091     1.306030137385     1.007825032230
         H           -3.619313976205    -0.221316801909     0.861226137385     1.007825032230
         H           -3.059679976205    -1.241345801909    -0.488046862615     1.007825032230
         H           -3.682041976205     0.406848198091    -0.804343862615     1.007825032230
         H            3.678197023795    -0.835875801909     0.519240137385     1.007825032230
         H            3.224817023795     1.736219198091    -0.528483862615     1.007825032230

  Basis Set: AUG-CC-PVTZ
    Blend: AUG-CC-PVTZ
  Basis Set: (AUG-CC-PVTZ AUX)
    Blend: AUG-CC-PVTZ-JKFIT
	 Reference Energy          =    -490.6361024796118500 [Eh]
	 Singles Energy            =      -0.0000000000000000 [Eh]
	 Same-Spin Energy          =      -0.5066889515283888 [Eh]
	 Opposite-Spin Energy      =      -1.5503014449906394 [Eh]
	 Correlation Energy        =      -2.0569903965190282 [Eh]
	 Total Energy              =    -492.6930928761308905 [Eh]

	 ================> DF-SCS-MP2 Energies <==================
	-----------------------------------------------------------
	 SCS Same-Spin Scale       =       0.3333333333333333 [-]
	 SCS Opposite-Spin Scale   =       1.2000000000000000 [-]
	 SCS Same-Spin Energy      =      -0.1688963171761296 [Eh]
	 SCS Opposite-Spin Energy  =      -1.8603617339887673 [Eh]
	 SCS Correlation Energy    =      -2.0292580511648968 [Eh]
	 SCS Total Energy          =    -492.6653605307767521 [Eh]
	-----------------------------------------------------------

  Dipole Moment: [D]
     X:     0.4513      Y:     2.7199      Z:     0.9758     Total:     2.9246

*** Psi4 exiting successfully. Buy a developer a beer!
