                               Psi4 1.4a3.dev225

  ==> Input File <==

--------------------------------------------------------------------------
#psi4
#
memory 32 gb

molecule  {
0 1
  O        1.6580350    -0.9827140     0.3821500
  O       -0.8249020    -1.8470020    -0.1920140
  N       -1.7073370     0.2644950     0.0041840
  N        1.2225400     1.0581630    -0.4400630
  C       -0.6606637    -0.6379417    -0.0667847
  C       -1.6242400     1.6701930     0.3734340
  C       -3.0587270    -0.2617480    -0.1203800
  C        0.7172850    -0.0860290    -0.0289380
  C        2.8466160    -0.3331830     0.2236370
  C        2.5869190     0.9090560    -0.2781450
  H       -2.0624300     2.2861190    -0.4188050
  H       -0.5911340     1.9718700     0.5118620
  H       -2.1906170     1.8355680     1.2974120
  H       -3.5636440    -0.2611770     0.8526080
  H       -3.0040100    -1.2812060    -0.4966650
  H       -3.6263720     0.3669880    -0.8129620
  H        3.7338670    -0.8757360     0.5106220
  H        3.2804870     1.6963590    -0.5371020
units angstrom
no_reorient  #important for SAPT in psi4, default
symmetry c1  #important for SAPT in psi4, default
}

set PROPERTIES_ORIGIN ["COM"]
properties('MP2/aug-cc-pvtz', properties = ['dipole'])
--------------------------------------------------------------------------

    Molecular point group: c1
  Charge       = 0
  Multiplicity = 1
  Basis Set: AUG-CC-PVTZ
    Blend: AUG-CC-PVTZ
  Basis Set: (AUG-CC-PVTZ AUX)
    Blend: AUG-CC-PVTZ-JKFIT

    Orbital Energies [Eh]
    ---------------------

    Doubly Occupied:

       1A    -20.654602     2A    -20.531589     3A    -15.598089
       4A    -15.593388     5A    -11.374729     6A    -11.356585
       7A    -11.313590     8A    -11.278200     9A    -11.264084
      10A    -11.257368    11A     -1.499869    12A     -1.389196
      13A     -1.257434    14A     -1.241055    15A     -1.059895
      16A     -0.974640    17A     -0.954704    18A     -0.867742
      19A     -0.844303    20A     -0.782021    21A     -0.725179
      22A     -0.683904    23A     -0.667313    24A     -0.659991
      25A     -0.650410    26A     -0.622207    27A     -0.590125
      28A     -0.588228    29A     -0.565146    30A     -0.559994
      31A     -0.542171    32A     -0.535475    33A     -0.483138
      34A     -0.466076    35A     -0.444406    36A     -0.378318
      37A     -0.352105

  @DF-RHF Final Energy:  -490.63643506103068

   => Energetics <=

    Nuclear Repulsion Energy =            528.3457087199183206
    One-Electron Energy =               -1716.7497502141980021
    Two-Electron Energy =                 697.7676064332489432
    Total Energy =                       -490.6364350610307383
  Basis Set: (AUG-CC-PVTZ AUX)
    Blend: AUG-CC-PVTZ-RI
    Molecular point group: c1

    Geometry (in Angstrom), charge = 0, multiplicity = 1:

       Center              X                  Y                   Z               Mass
    ------------   -----------------  -----------------  -----------------  -----------------
         O            1.599938775048    -0.941074785270     0.388679340471    15.994914619570
         O           -0.882998224952    -1.805362785270    -0.185484659529    15.994914619570
         N           -1.765433224952     0.306134214730     0.010713340471    14.003074004430
         N            1.164443775048     1.099802214730    -0.433533659529    14.003074004430
         C           -0.718759924952    -0.596302485270    -0.060255359529    12.000000000000
         C           -1.682336224952     1.711832214730     0.379963340471    12.000000000000
         C           -3.116823224952    -0.220108785270    -0.113850659529    12.000000000000
         C            0.659188775048    -0.044389785270    -0.022408659529    12.000000000000
         C            2.788519775048    -0.291543785270     0.230166340471    12.000000000000
         C            2.528822775048     0.950695214730    -0.271615659529    12.000000000000
         H           -2.120526224952     2.327758214730    -0.412275659529     1.007825032230
         H           -0.649230224952     2.013509214730     0.518391340471     1.007825032230
         H           -2.248713224952     1.877207214730     1.303941340471     1.007825032230
         H           -3.621740224952    -0.219537785270     0.859137340471     1.007825032230
         H           -3.062106224952    -1.239566785270    -0.490135659529     1.007825032230
         H           -3.684468224952     0.408627214730    -0.806432659529     1.007825032230
         H            3.675770775048    -0.834096785270     0.517151340471     1.007825032230
         H            3.222390775048     1.737998214730    -0.530572659529     1.007825032230

  Basis Set: AUG-CC-PVTZ
    Blend: AUG-CC-PVTZ
  Basis Set: (AUG-CC-PVTZ AUX)
    Blend: AUG-CC-PVTZ-JKFIT
	 Reference Energy          =    -490.6364350610306815 [Eh]
	 Singles Energy            =      -0.0000000000000000 [Eh]
	 Same-Spin Energy          =      -0.5065722337676819 [Eh]
	 Opposite-Spin Energy      =      -1.5500345851270212 [Eh]
	 Correlation Energy        =      -2.0566068188947031 [Eh]
	 Total Energy              =    -492.6930418799253744 [Eh]

	 ================> DF-SCS-MP2 Energies <==================
	-----------------------------------------------------------
	 SCS Same-Spin Scale       =       0.3333333333333333 [-]
	 SCS Opposite-Spin Scale   =       1.2000000000000000 [-]
	 SCS Same-Spin Energy      =      -0.1688574112558940 [Eh]
	 SCS Opposite-Spin Energy  =      -1.8600415021524253 [Eh]
	 SCS Correlation Energy    =      -2.0288989134083191 [Eh]
	 SCS Total Energy          =    -492.6653339744390223 [Eh]
	-----------------------------------------------------------

  Dipole Moment: [D]
     X:     0.5334      Y:     2.6535      Z:     0.9356     Total:     2.8637

*** Psi4 exiting successfully. Buy a developer a beer!
