                               Psi4 1.4a3.dev225

  ==> Input File <==

--------------------------------------------------------------------------
#psi4
#
memory 32 gb

molecule  {
0 1
  O        1.6580350    -0.9827140     0.3821500
  O       -0.8249020    -1.8470020    -0.1920140
  N       -1.7073370     0.2644950     0.0041840
  N        1.2225400     1.0581630    -0.4400630
  C       -0.6757910    -0.6248990    -0.0657590
  C       -1.6185318     1.7667541     0.3987988
  C       -3.0587270    -0.2617480    -0.1203800
  C        0.7172850    -0.0860290    -0.0289380
  C        2.8466160    -0.3331830     0.2236370
  C        2.5869190     0.9090560    -0.2781450
  H       -2.0624300     2.2861190    -0.4188050
  H       -0.5911340     1.9718700     0.5118620
  H       -2.1906170     1.8355680     1.2974120
  H       -3.5636440    -0.2611770     0.8526080
  H       -3.0040100    -1.2812060    -0.4966650
  H       -3.6263720     0.3669880    -0.8129620
  H        3.7338670    -0.8757360     0.5106220
  H        3.2804870     1.6963590    -0.5371020
units angstrom
no_reorient  #important for SAPT in psi4, default
symmetry c1  #important for SAPT in psi4, default
}

set PROPERTIES_ORIGIN ["COM"]
properties('MP2/aug-cc-pvtz', properties = ['dipole'])
--------------------------------------------------------------------------

    Molecular point group: c1
  Charge       = 0
  Multiplicity = 1
  Basis Set: AUG-CC-PVTZ
    Blend: AUG-CC-PVTZ
  Basis Set: (AUG-CC-PVTZ AUX)
    Blend: AUG-CC-PVTZ-JKFIT

    Orbital Energies [Eh]
    ---------------------

    Doubly Occupied:

       1A    -20.652468     2A    -20.523543     3A    -15.598225
       4A    -15.590850     5A    -11.369981     6A    -11.355116
       7A    -11.311386     8A    -11.276426     9A    -11.270190
      10A    -11.257037    11A     -1.497351    12A     -1.377446
      13A     -1.251522    14A     -1.231438    15A     -1.056012
      16A     -0.978046    17A     -0.957416    18A     -0.864564
      19A     -0.842368    20A     -0.779023    21A     -0.716811
      22A     -0.680744    23A     -0.663596    24A     -0.655659
      25A     -0.649091    26A     -0.620156    27A     -0.594194
      28A     -0.586442    29A     -0.577739    30A     -0.568565
      31A     -0.535004    32A     -0.526747    33A     -0.481985
      34A     -0.465366    35A     -0.438654    36A     -0.379283
      37A     -0.350245

  @DF-RHF Final Energy:  -490.62912166920398

   => Energetics <=

    Nuclear Repulsion Energy =            526.5185791954684191
    One-Electron Energy =               -1713.2340268976834068
    Two-Electron Energy =                 696.0863260330110052
    Total Energy =                       -490.6291216692039825
  Basis Set: (AUG-CC-PVTZ AUX)
    Blend: AUG-CC-PVTZ-RI
    Molecular point group: c1

    Geometry (in Angstrom), charge = 0, multiplicity = 1:

       Center              X                  Y                   Z               Mass
    ------------   -----------------  -----------------  -----------------  -----------------
         O            1.600745788813    -0.950465467536     0.386418243681    15.994914619570
         O           -0.882191211187    -1.814753467536    -0.187745756319    15.994914619570
         N           -1.764626211187     0.296743532464     0.008452243681    14.003074004430
         N            1.165250788813     1.090411532464    -0.435794756319    14.003074004430
         C           -0.733080211187    -0.592650467536    -0.061490756319    12.000000000000
         C           -1.675821011187     1.799002632464     0.403067043681    12.000000000000
         C           -3.116016211187    -0.229499467536    -0.116111756319    12.000000000000
         C            0.659995788813    -0.053780467536    -0.024669756319    12.000000000000
         C            2.789326788813    -0.300934467536     0.227905243681    12.000000000000
         C            2.529629788813     0.941304532464    -0.273876756319    12.000000000000
         H           -2.119719211187     2.318367532464    -0.414536756319     1.007825032230
         H           -0.648423211187     2.004118532464     0.516130243681     1.007825032230
         H           -2.247906211187     1.867816532464     1.301680243681     1.007825032230
         H           -3.620933211187    -0.228928467536     0.856876243681     1.007825032230
         H           -3.061299211187    -1.248957467536    -0.492396756319     1.007825032230
         H           -3.683661211187     0.399236532464    -0.808693756319     1.007825032230
         H            3.676577788813    -0.843487467536     0.514890243681     1.007825032230
         H            3.223197788813     1.728607532464    -0.532833756319     1.007825032230

  Basis Set: AUG-CC-PVTZ
    Blend: AUG-CC-PVTZ
  Basis Set: (AUG-CC-PVTZ AUX)
    Blend: AUG-CC-PVTZ-JKFIT
	 Reference Energy          =    -490.6291216692039825 [Eh]
	 Singles Energy            =      -0.0000000000000000 [Eh]
	 Same-Spin Energy          =      -0.5061505728721636 [Eh]
	 Opposite-Spin Energy      =      -1.5504615341030683 [Eh]
	 Correlation Energy        =      -2.0566121069752317 [Eh]
	 Total Energy              =    -492.6857337761792337 [Eh]

	 ================> DF-SCS-MP2 Energies <==================
	-----------------------------------------------------------
	 SCS Same-Spin Scale       =       0.3333333333333333 [-]
	 SCS Opposite-Spin Scale   =       1.2000000000000000 [-]
	 SCS Same-Spin Energy      =      -0.1687168576240545 [Eh]
	 SCS Opposite-Spin Energy  =      -1.8605538409236819 [Eh]
	 SCS Correlation Energy    =      -2.0292706985477365 [Eh]
	 SCS Total Energy          =    -492.6583923677517305 [Eh]
	-----------------------------------------------------------

  Dipole Moment: [D]
     X:     0.2795      Y:     3.0289      Z:     1.0239     Total:     3.2095

*** Psi4 exiting successfully. Buy a developer a beer!
