                               Psi4 1.4a3.dev225

  ==> Input File <==

--------------------------------------------------------------------------
#psi4
#
memory 32 gb

molecule  {
0 1
  O        1.6580350    -0.9827140     0.3821500
  O       -0.8249020    -1.8470020    -0.1920140
  N       -1.7073370     0.2644950     0.0041840
  N        1.2225400     1.0581630    -0.4400630
  C       -0.6757910    -0.6248990    -0.0657590
  C       -1.6242400     1.6701930     0.3734340
  C       -3.0587270    -0.2617480    -0.1203800
  C        0.7172850    -0.0860290    -0.0289380
  C        2.8466160    -0.3331830     0.2236370
  C        2.5869190     0.9090560    -0.2781450
  H       -2.0624300     2.2861190    -0.4188050
  H       -0.5911340     1.9718700     0.5118620
  H       -2.1906170     1.8355680     1.2974120
  H       -3.5544318    -0.2611874     0.8348559
  H       -3.0040100    -1.2812060    -0.4966650
  H       -3.6263720     0.3669880    -0.8129620
  H        3.7338670    -0.8757360     0.5106220
  H        3.2804870     1.6963590    -0.5371020
units angstrom
no_reorient  #important for SAPT in psi4, default
symmetry c1  #important for SAPT in psi4, default
}

set PROPERTIES_ORIGIN ["COM"]
properties('MP2/aug-cc-pvtz', properties = ['dipole'])
--------------------------------------------------------------------------

    Molecular point group: c1
  Charge       = 0
  Multiplicity = 1
  Basis Set: AUG-CC-PVTZ
    Blend: AUG-CC-PVTZ
  Basis Set: (AUG-CC-PVTZ AUX)
    Blend: AUG-CC-PVTZ-JKFIT

    Orbital Energies [Eh]
    ---------------------

    Doubly Occupied:

       1A    -20.653582     2A    -20.527654     3A    -15.601673
       4A    -15.591746     5A    -11.374026     6A    -11.356258
       7A    -11.312364     8A    -11.277084     9A    -11.266432
      10A    -11.256958    11A     -1.498430    12A     -1.382324
      13A     -1.259871    14A     -1.242718    15A     -1.057753
      16A     -0.978187    17A     -0.959524    18A     -0.866175
      19A     -0.844111    20A     -0.781075    21A     -0.727285
      22A     -0.682405    23A     -0.667932    24A     -0.660260
      25A     -0.652778    26A     -0.621996    27A     -0.588337
      28A     -0.585533    29A     -0.567563    30A     -0.563310
      31A     -0.541546    32A     -0.535953    33A     -0.481858
      34A     -0.465110    35A     -0.441787    36A     -0.380610
      37A     -0.351118

  @DF-RHF Final Energy:  -490.63688908157155

   => Energetics <=

    Nuclear Repulsion Energy =            528.4337804799363312
    One-Electron Energy =               -1716.9346886681187243
    Two-Electron Energy =                 697.8640191066108400
    Total Energy =                       -490.6368890815715531
  Basis Set: (AUG-CC-PVTZ AUX)
    Blend: AUG-CC-PVTZ-RI
    Molecular point group: c1

    Geometry (in Angstrom), charge = 0, multiplicity = 1:

       Center              X                  Y                   Z               Mass
    ------------   -----------------  -----------------  -----------------  -----------------
         O            1.601168569876    -0.942192188584     0.388719199584    15.994914619570
         O           -0.881768430124    -1.806480188584    -0.185444800416    15.994914619570
         N           -1.764203430124     0.305016811416     0.010753199584    14.003074004430
         N            1.165673569876     1.098684811416    -0.433493800416    14.003074004430
         C           -0.732657430124    -0.584377188584    -0.059189800416    12.000000000000
         C           -1.681106430124     1.710714811416     0.380003199584    12.000000000000
         C           -3.115593430124    -0.221226188584    -0.113810800416    12.000000000000
         C            0.660418569876    -0.045507188584    -0.022368800416    12.000000000000
         C            2.789749569876    -0.292661188584     0.230206199584    12.000000000000
         C            2.530052569876     0.949577811416    -0.271575800416    12.000000000000
         H           -2.119296430124     2.326640811416    -0.412235800416     1.007825032230
         H           -0.648000430124     2.012391811416     0.518431199584     1.007825032230
         H           -2.247483430124     1.876089811416     1.303981199584     1.007825032230
         H           -3.611298230124    -0.220665588584     0.841425099584     1.007825032230
         H           -3.060876430124    -1.240684188584    -0.490095800416     1.007825032230
         H           -3.683238430124     0.407509811416    -0.806392800416     1.007825032230
         H            3.677000569876    -0.835214188584     0.517191199584     1.007825032230
         H            3.223620569876     1.736880811416    -0.530532800416     1.007825032230

  Basis Set: AUG-CC-PVTZ
    Blend: AUG-CC-PVTZ
  Basis Set: (AUG-CC-PVTZ AUX)
    Blend: AUG-CC-PVTZ-JKFIT
	 Reference Energy          =    -490.6368890815715531 [Eh]
	 Singles Energy            =      -0.0000000000000000 [Eh]
	 Same-Spin Energy          =      -0.5065732855397005 [Eh]
	 Opposite-Spin Energy      =      -1.5499789089858986 [Eh]
	 Correlation Energy        =      -2.0565521945255991 [Eh]
	 Total Energy              =    -492.6934412760971327 [Eh]

	 ================> DF-SCS-MP2 Energies <==================
	-----------------------------------------------------------
	 SCS Same-Spin Scale       =       0.3333333333333333 [-]
	 SCS Opposite-Spin Scale   =       1.2000000000000000 [-]
	 SCS Same-Spin Energy      =      -0.1688577618465668 [Eh]
	 SCS Opposite-Spin Energy  =      -1.8599746907830783 [Eh]
	 SCS Correlation Energy    =      -2.0288324526296453 [Eh]
	 SCS Total Energy          =    -492.6657215342012250 [Eh]
	-----------------------------------------------------------

  Dipole Moment: [D]
     X:     0.3602      Y:     2.7746      Z:     0.9644     Total:     2.9594

*** Psi4 exiting successfully. Buy a developer a beer!
