                               Psi4 1.4a3.dev225

  ==> Input File <==

--------------------------------------------------------------------------
#psi4
#
memory 32 gb

molecule  {
0 1
  O        1.6580350    -0.9827140     0.3821500
  O       -0.8249020    -1.8470020    -0.1920140
  N       -1.7073370     0.2644950     0.0041840
  N        1.2225400     1.0581630    -0.4400630
  C       -0.6757910    -0.6248990    -0.0657590
  C       -1.6242400     1.6701930     0.3734340
  C       -3.0587270    -0.2617480    -0.1203800
  C        0.7172850    -0.0860290    -0.0289380
  C        2.8466160    -0.3331830     0.2236370
  C        2.5869190     0.9090560    -0.2781450
  H       -2.0624300     2.2861190    -0.4188050
  H       -0.5911340     1.9718700     0.5118620
  H       -2.1906170     1.8355680     1.2974120
  H       -3.5636440    -0.2611770     0.8526080
  H       -3.0040100    -1.2812060    -0.4966650
  H       -3.6263720     0.3669880    -0.8129620
  H        3.7338670    -0.8757360     0.5106220
  H        3.2163101     1.6235087    -0.5131403
units angstrom
no_reorient  #important for SAPT in psi4, default
symmetry c1  #important for SAPT in psi4, default
}

set PROPERTIES_ORIGIN ["COM"]
properties('MP2/aug-cc-pvtz', properties = ['dipole'])
--------------------------------------------------------------------------

    Molecular point group: c1
  Charge       = 0
  Multiplicity = 1
  Basis Set: AUG-CC-PVTZ
    Blend: AUG-CC-PVTZ
  Basis Set: (AUG-CC-PVTZ AUX)
    Blend: AUG-CC-PVTZ-JKFIT

    Orbital Energies [Eh]
    ---------------------

    Doubly Occupied:

       1A    -20.653331     2A    -20.527635     3A    -15.601805
       4A    -15.591173     5A    -11.373956     6A    -11.355856
       7A    -11.312261     8A    -11.266360     9A    -11.266015
      10A    -11.259294    11A     -1.498146    12A     -1.382296
      13A     -1.259814    14A     -1.242749    15A     -1.059944
      16A     -0.977325    17A     -0.959570    18A     -0.872272
      19A     -0.848111    20A     -0.785539    21A     -0.727675
      22A     -0.683070    23A     -0.669791    24A     -0.661158
      25A     -0.652058    26A     -0.633508    27A     -0.591936
      28A     -0.585415    29A     -0.567086    30A     -0.561965
      31A     -0.541566    32A     -0.535120    33A     -0.482093
      34A     -0.464864    35A     -0.441757    36A     -0.380395
      37A     -0.351114

  @DF-RHF Final Energy:  -490.63065616020549

   => Energetics <=

    Nuclear Repulsion Energy =            528.9049528781927165
    One-Electron Energy =               -1717.8231734679693545
    Two-Electron Energy =                 698.2875644295711481
    Total Energy =                       -490.6306561602054899
  Basis Set: (AUG-CC-PVTZ AUX)
    Blend: AUG-CC-PVTZ-RI
    Molecular point group: c1

    Geometry (in Angstrom), charge = 0, multiplicity = 1:

       Center              X                  Y                   Z               Mass
    ------------   -----------------  -----------------  -----------------  -----------------
         O            1.601696658718    -0.941668051642     0.388419037948    15.994914619570
         O           -0.881240341282    -1.805956051642    -0.185744962052    15.994914619570
         N           -1.763675341282     0.305540948358     0.010453037948    14.003074004430
         N            1.166201658718     1.099208948358    -0.433793962052    14.003074004430
         C           -0.732129341282    -0.583853051642    -0.059489962052    12.000000000000
         C           -1.680578341282     1.711238948358     0.379703037948    12.000000000000
         C           -3.115065341282    -0.220702051642    -0.114110962052    12.000000000000
         C            0.660946658718    -0.044983051642    -0.022668962052    12.000000000000
         C            2.790277658718    -0.292137051642     0.229906037948    12.000000000000
         C            2.530580658718     0.950101948358    -0.271875962052    12.000000000000
         H           -2.118768341282     2.327164948358    -0.412535962052     1.007825032230
         H           -0.647472341282     2.012915948358     0.518131037948     1.007825032230
         H           -2.246955341282     1.876613948358     1.303681037948     1.007825032230
         H           -3.619982341282    -0.220131051642     0.858877037948     1.007825032230
         H           -3.060348341282    -1.240160051642    -0.490395962052     1.007825032230
         H           -3.682710341282     0.408033948358    -0.806692962052     1.007825032230
         H            3.677528658718    -0.834690051642     0.516891037948     1.007825032230
         H            3.159971758718     1.664554648358    -0.506871262052     1.007825032230

  Basis Set: AUG-CC-PVTZ
    Blend: AUG-CC-PVTZ
  Basis Set: (AUG-CC-PVTZ AUX)
    Blend: AUG-CC-PVTZ-JKFIT
	 Reference Energy          =    -490.6306561602054899 [Eh]
	 Singles Energy            =      -0.0000000000000000 [Eh]
	 Same-Spin Energy          =      -0.5064214154844543 [Eh]
	 Opposite-Spin Energy      =      -1.5496903585089274 [Eh]
	 Correlation Energy        =      -2.0561117739933819 [Eh]
	 Total Energy              =    -492.6867679341988833 [Eh]

	 ================> DF-SCS-MP2 Energies <==================
	-----------------------------------------------------------
	 SCS Same-Spin Scale       =       0.3333333333333333 [-]
	 SCS Opposite-Spin Scale   =       1.2000000000000000 [-]
	 SCS Same-Spin Energy      =      -0.1688071384948181 [Eh]
	 SCS Opposite-Spin Energy  =      -1.8596284302107129 [Eh]
	 SCS Correlation Energy    =      -2.0284355687055311 [Eh]
	 SCS Total Energy          =    -492.6590917289109939 [Eh]
	-----------------------------------------------------------

  Dipole Moment: [D]
     X:     0.3823      Y:     2.7579      Z:     0.9628     Total:     2.9460

*** Psi4 exiting successfully. Buy a developer a beer!
