                               Psi4 1.4a3.dev225

  ==> Input File <==

--------------------------------------------------------------------------
#psi4
#
memory 32 gb

molecule  {
0 1
  O        1.6580350    -0.9827140     0.3821500
  O       -0.8249020    -1.8470020    -0.1920140
  N       -1.7073370     0.2644950     0.0041840
  N        1.2225400     1.0581630    -0.4400630
  C       -0.6757910    -0.6248990    -0.0657590
  C       -1.6242400     1.6701930     0.3734340
  C       -3.0587270    -0.2617480    -0.1203800
  C        0.7172850    -0.0860290    -0.0289380
  C        2.8466160    -0.3331830     0.2236370
  C        2.5488596     1.0911101    -0.3516827
  H       -2.0624300     2.2861190    -0.4188050
  H       -0.5911340     1.9718700     0.5118620
  H       -2.1906170     1.8355680     1.2974120
  H       -3.5636440    -0.2611770     0.8526080
  H       -3.0040100    -1.2812060    -0.4966650
  H       -3.6263720     0.3669880    -0.8129620
  H        3.7338670    -0.8757360     0.5106220
  H        3.2804870     1.6963590    -0.5371020
units angstrom
no_reorient  #important for SAPT in psi4, default
symmetry c1  #important for SAPT in psi4, default
}

set PROPERTIES_ORIGIN ["COM"]
properties('MP2/aug-cc-pvtz', properties = ['dipole'])
--------------------------------------------------------------------------

    Molecular point group: c1
  Charge       = 0
  Multiplicity = 1
  Basis Set: AUG-CC-PVTZ
    Blend: AUG-CC-PVTZ
  Basis Set: (AUG-CC-PVTZ AUX)
    Blend: AUG-CC-PVTZ-JKFIT

    Orbital Energies [Eh]
    ---------------------

    Doubly Occupied:

       1A    -20.671064     2A    -20.523403     3A    -15.598264
       4A    -15.594998     5A    -11.371264     6A    -11.348622
       7A    -11.338680     8A    -11.294250     9A    -11.264404
      10A    -11.257074    11A     -1.500602    12A     -1.378866
      13A     -1.263796    14A     -1.246922    15A     -1.043333
      16A     -0.974293    17A     -0.951507    18A     -0.878702
      19A     -0.845536    20A     -0.778739    21A     -0.725262
      22A     -0.700551    23A     -0.678927    24A     -0.664165
      25A     -0.651723    26A     -0.645941    27A     -0.585654
      28A     -0.573891    29A     -0.563254    30A     -0.559843
      31A     -0.539154    32A     -0.532607    33A     -0.477552
      34A     -0.460792    35A     -0.437947    36A     -0.378027
      37A     -0.319506

  @DF-RHF Final Energy:  -490.58099446797007

   => Energetics <=

    Nuclear Repulsion Energy =            526.2436507232578151
    One-Electron Energy =               -1712.4110608496425812
    Two-Electron Energy =                 695.5864156584146940
    Total Energy =                       -490.5809944679700720
  Basis Set: (AUG-CC-PVTZ AUX)
    Blend: AUG-CC-PVTZ-RI
    Molecular point group: c1

    Geometry (in Angstrom), charge = 0, multiplicity = 1:

       Center              X                  Y                   Z               Mass
    ------------   -----------------  -----------------  -----------------  -----------------
         O            1.604495728369    -0.957790374145     0.394892055290    15.994914619570
         O           -0.878441271631    -1.822078374145    -0.179271944710    15.994914619570
         N           -1.760876271631     0.289418625855     0.016926055290    14.003074004430
         N            1.169000728369     1.083086625855    -0.427320944710    14.003074004430
         C           -0.729330271631    -0.599975374145    -0.053016944710    12.000000000000
         C           -1.677779271631     1.695116625855     0.386176055290    12.000000000000
         C           -3.112266271631    -0.236824374145    -0.107637944710    12.000000000000
         C            0.663745728369    -0.061105374145    -0.016195944710    12.000000000000
         C            2.793076728369    -0.308259374145     0.236379055290    12.000000000000
         C            2.495320328369     1.116033725855    -0.338940644710    12.000000000000
         H           -2.115969271631     2.311042625855    -0.406062944710     1.007825032230
         H           -0.644673271631     1.996793625855     0.524604055290     1.007825032230
         H           -2.244156271631     1.860491625855     1.310154055290     1.007825032230
         H           -3.617183271631    -0.236253374145     0.865350055290     1.007825032230
         H           -3.057549271631    -1.256282374145    -0.483922944710     1.007825032230
         H           -3.679911271631     0.391911625855    -0.800219944710     1.007825032230
         H            3.680327728369    -0.850812374145     0.523364055290     1.007825032230
         H            3.226947728369     1.721282625855    -0.524359944710     1.007825032230

  Basis Set: AUG-CC-PVTZ
    Blend: AUG-CC-PVTZ
  Basis Set: (AUG-CC-PVTZ AUX)
    Blend: AUG-CC-PVTZ-JKFIT
	 Reference Energy          =    -490.5809944679700720 [Eh]
	 Singles Energy            =      -0.0000000000000000 [Eh]
	 Same-Spin Energy          =      -0.5116081446531167 [Eh]
	 Opposite-Spin Energy      =      -1.5579735794789302 [Eh]
	 Correlation Energy        =      -2.0695817241320471 [Eh]
	 Total Energy              =    -492.6505761921021076 [Eh]

	 ================> DF-SCS-MP2 Energies <==================
	-----------------------------------------------------------
	 SCS Same-Spin Scale       =       0.3333333333333333 [-]
	 SCS Opposite-Spin Scale   =       1.2000000000000000 [-]
	 SCS Same-Spin Energy      =      -0.1705360482177055 [Eh]
	 SCS Opposite-Spin Energy  =      -1.8695682953747161 [Eh]
	 SCS Correlation Energy    =      -2.0401043435924215 [Eh]
	 SCS Total Energy          =    -492.6210988115624900 [Eh]
	-----------------------------------------------------------

  Dipole Moment: [D]
     X:     0.4848      Y:     2.9753      Z:     0.8738     Total:     3.1387

*** Psi4 exiting successfully. Buy a developer a beer!
