                               Psi4 1.4a3.dev225

  ==> Input File <==

--------------------------------------------------------------------------
#psi4
#
memory 32 gb

molecule  {
0 1
  O        1.6580350    -0.9827140     0.3821500
  O       -0.8249020    -1.8470020    -0.1920140
  N       -1.7073370     0.2644950     0.0041840
  N        1.2225400     1.0581630    -0.4400630
  C       -0.6757910    -0.6248990    -0.0657590
  C       -1.6242400     1.6701930     0.3734340
  C       -3.0587270    -0.2617480    -0.1203800
  C        0.7172850    -0.0860290    -0.0289380
  C        2.8466160    -0.3331830     0.2236370
  C        2.5869190     0.9090560    -0.2781450
  H       -2.0624300     2.2861190    -0.4188050
  H       -0.5911340     1.9718700     0.5118620
  H       -2.1906170     1.8355680     1.2974120
  H       -3.5636440    -0.2611770     0.8526080
  H       -3.0040100    -1.2812060    -0.4966650
  H       -3.6367478     0.3784805    -0.8256215
  H        3.7338670    -0.8757360     0.5106220
  H        3.2804870     1.6963590    -0.5371020
units angstrom
no_reorient  #important for SAPT in psi4, default
symmetry c1  #important for SAPT in psi4, default
}

set PROPERTIES_ORIGIN ["COM"]
properties('MP2/aug-cc-pvtz', properties = ['dipole'])
--------------------------------------------------------------------------

    Molecular point group: c1
  Charge       = 0
  Multiplicity = 1
  Basis Set: AUG-CC-PVTZ
    Blend: AUG-CC-PVTZ
  Basis Set: (AUG-CC-PVTZ AUX)
    Blend: AUG-CC-PVTZ-JKFIT

    Orbital Energies [Eh]
    ---------------------

    Doubly Occupied:

       1A    -20.653735     2A    -20.527993     3A    -15.602217
       4A    -15.591910     5A    -11.374361     6A    -11.356430
       7A    -11.312506     8A    -11.277209     9A    -11.266474
      10A    -11.261807    11A     -1.498581    12A     -1.382639
      13A     -1.260037    14A     -1.242851    15A     -1.057792
      16A     -0.976606    17A     -0.958650    18A     -0.865699
      19A     -0.843725    20A     -0.780916    21A     -0.727396
      22A     -0.682436    23A     -0.667605    24A     -0.659861
      25A     -0.651841    26A     -0.621991    27A     -0.588351
      28A     -0.585499    29A     -0.566657    30A     -0.560328
      31A     -0.540904    32A     -0.535367    33A     -0.482012
      34A     -0.465236    35A     -0.442087    36A     -0.380517
      37A     -0.351239

  @DF-RHF Final Energy:  -490.63632225760875

   => Energetics <=

    Nuclear Repulsion Energy =            528.2466017834312879
    One-Electron Energy =               -1716.5629225509940170
    Two-Electron Energy =                 697.6799985099539754
    Total Energy =                       -490.6363222576087537
  Basis Set: (AUG-CC-PVTZ AUX)
    Blend: AUG-CC-PVTZ-RI
    Molecular point group: c1

    Geometry (in Angstrom), charge = 0, multiplicity = 1:

       Center              X                  Y                   Z               Mass
    ------------   -----------------  -----------------  -----------------  -----------------
         O            1.601309520020    -0.942274960455     0.388682554562    15.994914619570
         O           -0.881627479980    -1.806562960455    -0.185481445438    15.994914619570
         N           -1.764062479980     0.304934039545     0.010716554562    14.003074004430
         N            1.165814520020     1.098602039545    -0.433530445438    14.003074004430
         C           -0.732516479980    -0.584459960455    -0.059226445438    12.000000000000
         C           -1.680965479980     1.710632039545     0.379966554562    12.000000000000
         C           -3.115452479980    -0.221308960455    -0.113847445438    12.000000000000
         C            0.660559520020    -0.045589960455    -0.022405445438    12.000000000000
         C            2.789890520020    -0.292743960455     0.230169554562    12.000000000000
         C            2.530193520020     0.949495039545    -0.271612445438    12.000000000000
         H           -2.119155479980     2.326558039545    -0.412272445438     1.007825032230
         H           -0.647859479980     2.012309039545     0.518394554562     1.007825032230
         H           -2.247342479980     1.876007039545     1.303944554562     1.007825032230
         H           -3.620369479980    -0.220737960455     0.859140554562     1.007825032230
         H           -3.060735479980    -1.240766960455    -0.490132445438     1.007825032230
         H           -3.693473279980     0.418919539545    -0.819088945438     1.007825032230
         H            3.677141520020    -0.835296960455     0.517154554562     1.007825032230
         H            3.223761520020     1.736798039545    -0.530569445438     1.007825032230

  Basis Set: AUG-CC-PVTZ
    Blend: AUG-CC-PVTZ
  Basis Set: (AUG-CC-PVTZ AUX)
    Blend: AUG-CC-PVTZ-JKFIT
	 Reference Energy          =    -490.6363222576087537 [Eh]
	 Singles Energy            =      -0.0000000000000000 [Eh]
	 Same-Spin Energy          =      -0.5065856875171246 [Eh]
	 Opposite-Spin Energy      =      -1.5502287601707312 [Eh]
	 Correlation Energy        =      -2.0568144476878558 [Eh]
	 Total Energy              =    -492.6931367052966380 [Eh]

	 ================> DF-SCS-MP2 Energies <==================
	-----------------------------------------------------------
	 SCS Same-Spin Scale       =       0.3333333333333333 [-]
	 SCS Opposite-Spin Scale   =       1.2000000000000000 [-]
	 SCS Same-Spin Energy      =      -0.1688618958390415 [Eh]
	 SCS Opposite-Spin Energy  =      -1.8602745122048774 [Eh]
	 SCS Correlation Energy    =      -2.0291364080439189 [Eh]
	 SCS Total Energy          =    -492.6654586656526931 [Eh]
	-----------------------------------------------------------

  Dipole Moment: [D]
     X:     0.3865      Y:     2.7692      Z:     0.9621     Total:     2.9570

*** Psi4 exiting successfully. Buy a developer a beer!
