                               Psi4 1.4a3.dev225

  ==> Input File <==

--------------------------------------------------------------------------
#psi4
#
memory 32 gb

molecule  {
0 1
  O        1.6580350    -0.9827140     0.3821500
  O       -0.8249020    -1.8470020    -0.1920140
  N       -1.7073370     0.2644950     0.0041840
  N        1.2225400     1.0581630    -0.4400630
  C       -0.6998874    -0.8223910    -0.0861618
  C       -1.6242400     1.6701930     0.3734340
  C       -3.0587270    -0.2617480    -0.1203800
  C        0.7172850    -0.0860290    -0.0289380
  C        2.8466160    -0.3331830     0.2236370
  C        2.5869190     0.9090560    -0.2781450
  H       -2.0624300     2.2861190    -0.4188050
  H       -0.5911340     1.9718700     0.5118620
  H       -2.1906170     1.8355680     1.2974120
  H       -3.5636440    -0.2611770     0.8526080
  H       -3.0040100    -1.2812060    -0.4966650
  H       -3.6263720     0.3669880    -0.8129620
  H        3.7338670    -0.8757360     0.5106220
  H        3.2804870     1.6963590    -0.5371020
units angstrom
no_reorient  #important for SAPT in psi4, default
symmetry c1  #important for SAPT in psi4, default
}

set PROPERTIES_ORIGIN ["COM"]
properties('MP2/aug-cc-pvtz', properties = ['dipole'])
--------------------------------------------------------------------------

    Molecular point group: c1
  Charge       = 0
  Multiplicity = 1
  Basis Set: AUG-CC-PVTZ
    Blend: AUG-CC-PVTZ
  Basis Set: (AUG-CC-PVTZ AUX)
    Blend: AUG-CC-PVTZ-JKFIT

    Orbital Energies [Eh]
    ---------------------

    Doubly Occupied:

       1A    -20.646491     2A    -20.574209     3A    -15.582232
       4A    -15.570373     5A    -11.374674     6A    -11.346179
       7A    -11.304094     8A    -11.271938     9A    -11.253864
      10A    -11.246893    11A     -1.552680    12A     -1.489852
      13A     -1.242004    14A     -1.220595    15A     -1.043717
      16A     -0.962932    17A     -0.920955    18A     -0.856688
      19A     -0.826456    20A     -0.773935    21A     -0.740568
      22A     -0.716084    23A     -0.685264    24A     -0.666128
      25A     -0.652512    26A     -0.619077    27A     -0.612373
      28A     -0.593847    29A     -0.583202    30A     -0.565120
      31A     -0.548636    32A     -0.529534    33A     -0.479124
      34A     -0.459771    35A     -0.434509    36A     -0.369835
      37A     -0.343826

  @DF-RHF Final Energy:  -490.56578558390038

   => Energetics <=

    Nuclear Repulsion Energy =            528.7030870230745450
    One-Electron Energy =               -1717.2174065074104874
    Two-Electron Energy =                 697.9485339004354501
    Total Energy =                       -490.5657855839003787
  Basis Set: (AUG-CC-PVTZ AUX)
    Blend: AUG-CC-PVTZ-RI
    Molecular point group: c1

    Geometry (in Angstrom), charge = 0, multiplicity = 1:

       Center              X                  Y                   Z               Mass
    ------------   -----------------  -----------------  -----------------  -----------------
         O            1.603299400354    -0.925271457553     0.390339540111    15.994914619570
         O           -0.879637599646    -1.789559457553    -0.183824459889    15.994914619570
         N           -1.762072599646     0.321937542447     0.012373540111    14.003074004430
         N            1.167804400354     1.115605542447    -0.431873459889    14.003074004430
         C           -0.754622999646    -0.764948457553    -0.077972259889    12.000000000000
         C           -1.678975599646     1.727635542447     0.381623540111    12.000000000000
         C           -3.113462599646    -0.204305457553    -0.112190459889    12.000000000000
         C            0.662549400354    -0.028586457553    -0.020748459889    12.000000000000
         C            2.791880400354    -0.275740457553     0.231826540111    12.000000000000
         C            2.532183400354     0.966498542447    -0.269955459889    12.000000000000
         H           -2.117165599646     2.343561542447    -0.410615459889     1.007825032230
         H           -0.645869599646     2.029312542447     0.520051540111     1.007825032230
         H           -2.245352599646     1.893010542447     1.305601540111     1.007825032230
         H           -3.618379599646    -0.203734457553     0.860797540111     1.007825032230
         H           -3.058745599646    -1.223763457553    -0.488475459889     1.007825032230
         H           -3.681107599646     0.424430542447    -0.804772459889     1.007825032230
         H            3.679131400354    -0.818293457553     0.518811540111     1.007825032230
         H            3.225751400354     1.753801542447    -0.528912459889     1.007825032230

  Basis Set: AUG-CC-PVTZ
    Blend: AUG-CC-PVTZ
  Basis Set: (AUG-CC-PVTZ AUX)
    Blend: AUG-CC-PVTZ-JKFIT
	 Reference Energy          =    -490.5657855839003787 [Eh]
	 Singles Energy            =      -0.0000000000000000 [Eh]
	 Same-Spin Energy          =      -0.5023411967994467 [Eh]
	 Opposite-Spin Energy      =      -1.5419154014764498 [Eh]
	 Correlation Energy        =      -2.0442565982758962 [Eh]
	 Total Energy              =    -492.6100421821763007 [Eh]

	 ================> DF-SCS-MP2 Energies <==================
	-----------------------------------------------------------
	 SCS Same-Spin Scale       =       0.3333333333333333 [-]
	 SCS Opposite-Spin Scale   =       1.2000000000000000 [-]
	 SCS Same-Spin Energy      =      -0.1674470655998155 [Eh]
	 SCS Opposite-Spin Energy  =      -1.8502984817717396 [Eh]
	 SCS Correlation Energy    =      -2.0177455473715553 [Eh]
	 SCS Total Energy          =    -492.5835311312719114 [Eh]
	-----------------------------------------------------------

  Dipole Moment: [D]
     X:     0.6434      Y:     1.0841      Z:     0.7495     Total:     1.4666

*** Psi4 exiting successfully. Buy a developer a beer!
