                               Psi4 1.4a3.dev225

  ==> Input File <==

--------------------------------------------------------------------------
#psi4
#
memory 32 gb

molecule  {
0 1
  O        1.6580350    -0.9827140     0.3821500
  O       -0.8249020    -1.8470020    -0.1920140
  N       -1.7073370     0.2644950     0.0041840
  N        1.2225400     1.0581630    -0.4400630
  C       -0.6757910    -0.6248990    -0.0657590
  C       -1.6242400     1.6701930     0.3734340
  C       -3.0587270    -0.2617480    -0.1203800
  C        0.7556602     0.0008749    -0.0601638
  C        2.8466160    -0.3331830     0.2236370
  C        2.5869190     0.9090560    -0.2781450
  H       -2.0624300     2.2861190    -0.4188050
  H       -0.5911340     1.9718700     0.5118620
  H       -2.1906170     1.8355680     1.2974120
  H       -3.5636440    -0.2611770     0.8526080
  H       -3.0040100    -1.2812060    -0.4966650
  H       -3.6263720     0.3669880    -0.8129620
  H        3.7338670    -0.8757360     0.5106220
  H        3.2804870     1.6963590    -0.5371020
units angstrom
no_reorient  #important for SAPT in psi4, default
symmetry c1  #important for SAPT in psi4, default
}

set PROPERTIES_ORIGIN ["COM"]
properties('MP2/aug-cc-pvtz', properties = ['dipole'])
--------------------------------------------------------------------------

    Molecular point group: c1
  Charge       = 0
  Multiplicity = 1
  Basis Set: AUG-CC-PVTZ
    Blend: AUG-CC-PVTZ
  Basis Set: (AUG-CC-PVTZ AUX)
    Blend: AUG-CC-PVTZ-JKFIT

    Orbital Energies [Eh]
    ---------------------

    Doubly Occupied:

       1A    -20.641356     2A    -20.528755     3A    -15.601200
       4A    -15.585934     5A    -11.376743     6A    -11.349922
       7A    -11.312355     8A    -11.275626     9A    -11.267978
      10A    -11.258885    11A     -1.486579    12A     -1.379597
      13A     -1.287102    14A     -1.252294    15A     -1.050223
      16A     -0.977894    17A     -0.956564    18A     -0.859086
      19A     -0.842507    20A     -0.776138    21A     -0.726940
      22A     -0.678360    23A     -0.662910    24A     -0.657198
      25A     -0.651063    26A     -0.625539    27A     -0.586086
      28A     -0.579140    29A     -0.567930    30A     -0.562541
      31A     -0.542087    32A     -0.533037    33A     -0.493516
      34A     -0.482824    35A     -0.434896    36A     -0.380387
      37A     -0.356053

  @DF-RHF Final Energy:  -490.62780685846485

   => Energetics <=

    Nuclear Repulsion Energy =            528.5420646440101109
    One-Electron Energy =               -1717.1652551550596399
    Two-Electron Energy =                 697.9953836525845645
    Total Energy =                       -490.6278068584648508
  Basis Set: (AUG-CC-PVTZ AUX)
    Blend: AUG-CC-PVTZ-RI
    Molecular point group: c1

    Geometry (in Angstrom), charge = 0, multiplicity = 1:

       Center              X                  Y                   Z               Mass
    ------------   -----------------  -----------------  -----------------  -----------------
         O            1.597946931314    -0.949638053735     0.391266837834    15.994914619570
         O           -0.884990068686    -1.813926053735    -0.182897162166    15.994914619570
         N           -1.767425068686     0.297570946265     0.013300837834    14.003074004430
         N            1.162451931314     1.091238946265    -0.430946162166    14.003074004430
         C           -0.735879068686    -0.591823053735    -0.056642162166    12.000000000000
         C           -1.684328068686     1.703268946265     0.382550837834    12.000000000000
         C           -3.118815068686    -0.228672053735    -0.111263162166    12.000000000000
         C            0.695572131314     0.033950846265    -0.051046962166    12.000000000000
         C            2.786527931314    -0.300107053735     0.232753837834    12.000000000000
         C            2.526830931314     0.942131946265    -0.269028162166    12.000000000000
         H           -2.122518068686     2.319194946265    -0.409688162166     1.007825032230
         H           -0.651222068686     2.004945946265     0.520978837834     1.007825032230
         H           -2.250705068686     1.868643946265     1.306528837834     1.007825032230
         H           -3.623732068686    -0.228101053735     0.861724837834     1.007825032230
         H           -3.064098068686    -1.248130053735    -0.487548162166     1.007825032230
         H           -3.686460068686     0.400063946265    -0.803845162166     1.007825032230
         H            3.673778931314    -0.842660053735     0.519738837834     1.007825032230
         H            3.220398931314     1.729434946265    -0.527985162166     1.007825032230

  Basis Set: AUG-CC-PVTZ
    Blend: AUG-CC-PVTZ
  Basis Set: (AUG-CC-PVTZ AUX)
    Blend: AUG-CC-PVTZ-JKFIT
	 Reference Energy          =    -490.6278068584648508 [Eh]
	 Singles Energy            =      -0.0000000000000000 [Eh]
	 Same-Spin Energy          =      -0.5044157194354413 [Eh]
	 Opposite-Spin Energy      =      -1.5474159317834328 [Eh]
	 Correlation Energy        =      -2.0518316512188743 [Eh]
	 Total Energy              =    -492.6796385096837412 [Eh]

	 ================> DF-SCS-MP2 Energies <==================
	-----------------------------------------------------------
	 SCS Same-Spin Scale       =       0.3333333333333333 [-]
	 SCS Opposite-Spin Scale   =       1.2000000000000000 [-]
	 SCS Same-Spin Energy      =      -0.1681385731451471 [Eh]
	 SCS Opposite-Spin Energy  =      -1.8568991181401193 [Eh]
	 SCS Correlation Energy    =      -2.0250376912852666 [Eh]
	 SCS Total Energy          =    -492.6528445497501139 [Eh]
	-----------------------------------------------------------

  Dipole Moment: [D]
     X:     0.1740      Y:     2.9504      Z:     0.8503     Total:     3.0754

*** Psi4 exiting successfully. Buy a developer a beer!
