                               Psi4 1.4a3.dev225

  ==> Input File <==

--------------------------------------------------------------------------
#psi4
#
memory 32 gb

molecule  {
0 1
  O        1.6580350    -0.9827140     0.3821500
  O       -0.8249020    -1.8470020    -0.1920140
  N       -1.7073370     0.2644950     0.0041840
  N        1.2225400     1.0581630    -0.4400630
  C       -0.6757910    -0.6248990    -0.0657590
  C       -1.6242400     1.6701930     0.3734340
  C       -3.0587270    -0.2617480    -0.1203800
  C        0.7172850    -0.0860290    -0.0289380
  C        2.8466160    -0.3331830     0.2236370
  C        2.5678893     1.0000830    -0.3149139
  H       -2.0624300     2.2861190    -0.4188050
  H       -0.5911340     1.9718700     0.5118620
  H       -2.1906170     1.8355680     1.2974120
  H       -3.5636440    -0.2611770     0.8526080
  H       -3.0040100    -1.2812060    -0.4966650
  H       -3.6263720     0.3669880    -0.8129620
  H        3.7338670    -0.8757360     0.5106220
  H        3.2804870     1.6963590    -0.5371020
units angstrom
no_reorient  #important for SAPT in psi4, default
symmetry c1  #important for SAPT in psi4, default
}

set PROPERTIES_ORIGIN ["COM"]
properties('MP2/aug-cc-pvtz', properties = ['dipole'])
--------------------------------------------------------------------------

    Molecular point group: c1
  Charge       = 0
  Multiplicity = 1
  Basis Set: AUG-CC-PVTZ
    Blend: AUG-CC-PVTZ
  Basis Set: (AUG-CC-PVTZ AUX)
    Blend: AUG-CC-PVTZ-JKFIT

    Orbital Energies [Eh]
    ---------------------

    Doubly Occupied:

       1A    -20.662507     2A    -20.525846     3A    -15.600303
       4A    -15.592763     5A    -11.372942     6A    -11.352892
       7A    -11.326601     8A    -11.285663     9A    -11.265520
      10A    -11.258353    11A     -1.499313    12A     -1.380863
      13A     -1.261582    14A     -1.246151    15A     -1.048447
      16A     -0.975791    17A     -0.954799    18A     -0.867412
      19A     -0.848176    20A     -0.781038    21A     -0.726189
      22A     -0.683947    23A     -0.673163    24A     -0.662591
      25A     -0.651622    26A     -0.642422    27A     -0.587165
      28A     -0.580129    29A     -0.566090    30A     -0.561091
      31A     -0.540589    32A     -0.534064    33A     -0.474598
      34A     -0.469487    35A     -0.440507    36A     -0.379393
      37A     -0.333649

  @DF-RHF Final Energy:  -490.61911352805470

   => Energetics <=

    Nuclear Repulsion Energy =            527.2653665727957559
    One-Electron Energy =               -1714.5416472443046132
    Two-Electron Energy =                 696.6571671434542168
    Total Energy =                       -490.6191135280546405
  Basis Set: (AUG-CC-PVTZ AUX)
    Blend: AUG-CC-PVTZ-RI
    Molecular point group: c1

    Geometry (in Angstrom), charge = 0, multiplicity = 1:

       Center              X                  Y                   Z               Mass
    ------------   -----------------  -----------------  -----------------  -----------------
         O            1.602865293418    -0.949991314499     0.391741761978    15.994914619570
         O           -0.880071706582    -1.814279314499    -0.182422238022    15.994914619570
         N           -1.762506706582     0.297217685501     0.013775761978    14.003074004430
         N            1.167370293418     1.090885685501    -0.430471238022    14.003074004430
         C           -0.730960706582    -0.592176314499    -0.056167238022    12.000000000000
         C           -1.679409706582     1.702915685501     0.383025761978    12.000000000000
         C           -3.113896706582    -0.229025314499    -0.110788238022    12.000000000000
         C            0.662115293418    -0.053306314499    -0.019346238022    12.000000000000
         C            2.791446293418    -0.300460314499     0.233228761978    12.000000000000
         C            2.512719593418     1.032805685501    -0.305322138022    12.000000000000
         H           -2.117599706582     2.318841685501    -0.409213238022     1.007825032230
         H           -0.646303706582     2.004592685501     0.521453761978     1.007825032230
         H           -2.245786706582     1.868290685501     1.307003761978     1.007825032230
         H           -3.618813706582    -0.228454314499     0.862199761978     1.007825032230
         H           -3.059179706582    -1.248483314499    -0.487073238022     1.007825032230
         H           -3.681541706582     0.399710685501    -0.803370238022     1.007825032230
         H            3.678697293418    -0.843013314499     0.520213761978     1.007825032230
         H            3.225317293418     1.729081685501    -0.527510238022     1.007825032230

  Basis Set: AUG-CC-PVTZ
    Blend: AUG-CC-PVTZ
  Basis Set: (AUG-CC-PVTZ AUX)
    Blend: AUG-CC-PVTZ-JKFIT
	 Reference Energy          =    -490.6191135280546973 [Eh]
	 Singles Energy            =      -0.0000000000000000 [Eh]
	 Same-Spin Energy          =      -0.5089329982943365 [Eh]
	 Opposite-Spin Energy      =      -1.5535775857885377 [Eh]
	 Correlation Energy        =      -2.0625105840828741 [Eh]
	 Total Energy              =    -492.6816241121375697 [Eh]

	 ================> DF-SCS-MP2 Energies <==================
	-----------------------------------------------------------
	 SCS Same-Spin Scale       =       0.3333333333333333 [-]
	 SCS Opposite-Spin Scale   =       1.2000000000000000 [-]
	 SCS Same-Spin Energy      =      -0.1696443327647788 [Eh]
	 SCS Opposite-Spin Energy  =      -1.8642931029462451 [Eh]
	 SCS Correlation Energy    =      -2.0339374357110240 [Eh]
	 SCS Total Energy          =    -492.6530509637657360 [Eh]
	-----------------------------------------------------------

  Dipole Moment: [D]
     X:     0.4636      Y:     2.8575      Z:     0.9236     Total:     3.0386

*** Psi4 exiting successfully. Buy a developer a beer!
