                               Psi4 1.4a3.dev225

  ==> Input File <==

--------------------------------------------------------------------------
#psi4
#
memory 32 gb

molecule  {
0 1
  O        1.6580350    -0.9827140     0.3821500
  O       -0.8249020    -1.8470020    -0.1920140
  N       -1.7073370     0.2644950     0.0041840
  N        1.2225400     1.0581630    -0.4400630
  C       -0.6757910    -0.6248990    -0.0657590
  C       -1.6213859     1.7184736     0.3861164
  C       -3.0587270    -0.2617480    -0.1203800
  C        0.7172850    -0.0860290    -0.0289380
  C        2.8466160    -0.3331830     0.2236370
  C        2.5869190     0.9090560    -0.2781450
  H       -2.0624300     2.2861190    -0.4188050
  H       -0.5911340     1.9718700     0.5118620
  H       -2.1906170     1.8355680     1.2974120
  H       -3.5636440    -0.2611770     0.8526080
  H       -3.0040100    -1.2812060    -0.4966650
  H       -3.6263720     0.3669880    -0.8129620
  H        3.7338670    -0.8757360     0.5106220
  H        3.2804870     1.6963590    -0.5371020
units angstrom
no_reorient  #important for SAPT in psi4, default
symmetry c1  #important for SAPT in psi4, default
}

set PROPERTIES_ORIGIN ["COM"]
properties('MP2/aug-cc-pvtz', properties = ['dipole'])
--------------------------------------------------------------------------

    Molecular point group: c1
  Charge       = 0
  Multiplicity = 1
  Basis Set: AUG-CC-PVTZ
    Blend: AUG-CC-PVTZ
  Basis Set: (AUG-CC-PVTZ AUX)
    Blend: AUG-CC-PVTZ-JKFIT

    Orbital Energies [Eh]
    ---------------------

    Doubly Occupied:

       1A    -20.653056     2A    -20.525651     3A    -15.600299
       4A    -15.591334     5A    -11.372090     6A    -11.355722
       7A    -11.311904     8A    -11.276782     9A    -11.267866
      10A    -11.258220    11A     -1.497920    12A     -1.379869
      13A     -1.254394    14A     -1.237867    15A     -1.056871
      16A     -0.977161    17A     -0.958404    18A     -0.865266
      19A     -0.843153    20A     -0.779966    21A     -0.721823
      22A     -0.681525    23A     -0.665321    24A     -0.657743
      25A     -0.650289    26A     -0.620949    27A     -0.588452
      28A     -0.586812    29A     -0.571563    30A     -0.567901
      31A     -0.537686    32A     -0.533040    33A     -0.481998
      34A     -0.465325    35A     -0.440407    36A     -0.380234
      37A     -0.350724

  @DF-RHF Final Energy:  -490.63486119178367

   => Energetics <=

    Nuclear Repulsion Energy =            527.4157575835826037
    One-Electron Energy =               -1714.9700595328527015
    Two-Electron Energy =                 696.9194407574865409
    Total Energy =                       -490.6348611917836706
  Basis Set: (AUG-CC-PVTZ AUX)
    Blend: AUG-CC-PVTZ-RI
    Molecular point group: c1

    Geometry (in Angstrom), charge = 0, multiplicity = 1:

       Center              X                  Y                   Z               Mass
    ------------   -----------------  -----------------  -----------------  -----------------
         O            1.600990323640    -0.946328869762     0.387504851889    15.994914619570
         O           -0.881946676360    -1.810616869762    -0.186659148111    15.994914619570
         N           -1.764381676360     0.300880130238     0.009538851889    14.003074004430
         N            1.165495323640     1.094548130238    -0.434708148111    14.003074004430
         C           -0.732835676360    -0.588513869762    -0.060404148111    12.000000000000
         C           -1.678430576360     1.754858730238     0.391471251889    12.000000000000
         C           -3.115771676360    -0.225362869762    -0.115025148111    12.000000000000
         C            0.660240323640    -0.049643869762    -0.023583148111    12.000000000000
         C            2.789571323640    -0.296797869762     0.228991851889    12.000000000000
         C            2.529874323640     0.945441130238    -0.272790148111    12.000000000000
         H           -2.119474676360     2.322504130238    -0.413450148111     1.007825032230
         H           -0.648178676360     2.008255130238     0.517216851889     1.007825032230
         H           -2.247661676360     1.871953130238     1.302766851889     1.007825032230
         H           -3.620688676360    -0.224791869762     0.857962851889     1.007825032230
         H           -3.061054676360    -1.244820869762    -0.491310148111     1.007825032230
         H           -3.683416676360     0.403373130238    -0.807607148111     1.007825032230
         H            3.676822323640    -0.839350869762     0.515976851889     1.007825032230
         H            3.223442323640     1.732744130238    -0.531747148111     1.007825032230

  Basis Set: AUG-CC-PVTZ
    Blend: AUG-CC-PVTZ
  Basis Set: (AUG-CC-PVTZ AUX)
    Blend: AUG-CC-PVTZ-JKFIT
	 Reference Energy          =    -490.6348611917836706 [Eh]
	 Singles Energy            =      -0.0000000000000000 [Eh]
	 Same-Spin Energy          =      -0.5062848950877065 [Eh]
	 Opposite-Spin Energy      =      -1.5501460637062878 [Eh]
	 Correlation Energy        =      -2.0564309587939942 [Eh]
	 Total Energy              =    -492.6912921505776808 [Eh]

	 ================> DF-SCS-MP2 Energies <==================
	-----------------------------------------------------------
	 SCS Same-Spin Scale       =       0.3333333333333333 [-]
	 SCS Opposite-Spin Scale   =       1.2000000000000000 [-]
	 SCS Same-Spin Energy      =      -0.1687616316959021 [Eh]
	 SCS Opposite-Spin Energy  =      -1.8601752764475452 [Eh]
	 SCS Correlation Energy    =      -2.0289369081434474 [Eh]
	 SCS Total Energy          =    -492.6637980999271349 [Eh]
	-----------------------------------------------------------

  Dipole Moment: [D]
     X:     0.3242      Y:     2.9053      Z:     0.9907     Total:     3.0866

*** Psi4 exiting successfully. Buy a developer a beer!
