                               Psi4 1.4a3.dev225

  ==> Input File <==

--------------------------------------------------------------------------
#psi4
#
memory 32 gb

molecule  {
0 1
  O        1.6580350    -0.9827140     0.3821500
  O       -0.8249020    -1.8470020    -0.1920140
  N       -1.6391029     0.2338482     0.1369382
  N        1.2225400     1.0581630    -0.4400630
  C       -0.6757910    -0.6248990    -0.0657590
  C       -1.6242400     1.6701930     0.3734340
  C       -3.0587270    -0.2617480    -0.1203800
  C        0.7172850    -0.0860290    -0.0289380
  C        2.8466160    -0.3331830     0.2236370
  C        2.5869190     0.9090560    -0.2781450
  H       -2.0624300     2.2861190    -0.4188050
  H       -0.5911340     1.9718700     0.5118620
  H       -2.1906170     1.8355680     1.2974120
  H       -3.5636440    -0.2611770     0.8526080
  H       -3.0040100    -1.2812060    -0.4966650
  H       -3.6263720     0.3669880    -0.8129620
  H        3.7338670    -0.8757360     0.5106220
  H        3.2804870     1.6963590    -0.5371020
units angstrom
no_reorient  #important for SAPT in psi4, default
symmetry c1  #important for SAPT in psi4, default
}

set PROPERTIES_ORIGIN ["COM"]
properties('MP2/aug-cc-pvtz', properties = ['dipole'])
--------------------------------------------------------------------------

    Molecular point group: c1
  Charge       = 0
  Multiplicity = 1
  Basis Set: AUG-CC-PVTZ
    Blend: AUG-CC-PVTZ
  Basis Set: (AUG-CC-PVTZ AUX)
    Blend: AUG-CC-PVTZ-JKFIT

    Orbital Energies [Eh]
    ---------------------

    Doubly Occupied:

       1A    -20.650266     2A    -20.517440     3A    -15.606923
       4A    -15.588681     5A    -11.365401     6A    -11.351854
       7A    -11.309409     8A    -11.274637     9A    -11.270604
      10A    -11.268195    11A     -1.495317    12A     -1.381290
      13A     -1.261974    14A     -1.240692    15A     -1.054504
      16A     -0.978044    17A     -0.969428    18A     -0.864573
      19A     -0.842619    20A     -0.778451    21A     -0.727718
      22A     -0.680143    23A     -0.666510    24A     -0.661100
      25A     -0.648370    26A     -0.620184    27A     -0.587685
      28A     -0.584101    29A     -0.571618    30A     -0.566793
      31A     -0.536542    32A     -0.528887    33A     -0.478596
      34A     -0.462738    35A     -0.435849    36A     -0.387031
      37A     -0.348874

  @DF-RHF Final Energy:  -490.62807909529948

   => Energetics <=

    Nuclear Repulsion Energy =            529.1428554769439643
    One-Electron Energy =               -1718.4157904939472701
    Two-Electron Energy =                 698.6448559217039929
    Total Energy =                       -490.6280790952994266
  Basis Set: (AUG-CC-PVTZ AUX)
    Blend: AUG-CC-PVTZ-RI
    Molecular point group: c1

    Geometry (in Angstrom), charge = 0, multiplicity = 1:

       Center              X                  Y                   Z               Mass
    ------------   -----------------  -----------------  -----------------  -----------------
         O            1.594412804659    -0.939128192543     0.375318678665    15.994914619570
         O           -0.888524195341    -1.803416192543    -0.198845321335    15.994914619570
         N           -1.702725095341     0.277434007457     0.130106878665    14.003074004430
         N            1.158917804659     1.101748807457    -0.446894321335    14.003074004430
         C           -0.739413195341    -0.581313192543    -0.072590321335    12.000000000000
         C           -1.687862195341     1.713778807457     0.366602678665    12.000000000000
         C           -3.122349195341    -0.218162192543    -0.127211321335    12.000000000000
         C            0.653662804659    -0.042443192543    -0.035769321335    12.000000000000
         C            2.782993804659    -0.289597192543     0.216805678665    12.000000000000
         C            2.523296804659     0.952641807457    -0.284976321335    12.000000000000
         H           -2.126052195341     2.329704807457    -0.425636321335     1.007825032230
         H           -0.654756195341     2.015455807457     0.505030678665     1.007825032230
         H           -2.254239195341     1.879153807457     1.290580678665     1.007825032230
         H           -3.627266195341    -0.217591192543     0.845776678665     1.007825032230
         H           -3.067632195341    -1.237620192543    -0.503496321335     1.007825032230
         H           -3.689994195341     0.410573807457    -0.819793321335     1.007825032230
         H            3.670244804659    -0.832150192543     0.503790678665     1.007825032230
         H            3.216864804659     1.739944807457    -0.543933321335     1.007825032230

  Basis Set: AUG-CC-PVTZ
    Blend: AUG-CC-PVTZ
  Basis Set: (AUG-CC-PVTZ AUX)
    Blend: AUG-CC-PVTZ-JKFIT
	 Reference Energy          =    -490.6280790952994835 [Eh]
	 Singles Energy            =      -0.0000000000000000 [Eh]
	 Same-Spin Energy          =      -0.5062961604045217 [Eh]
	 Opposite-Spin Energy      =      -1.5499819417493368 [Eh]
	 Correlation Energy        =      -2.0562781021538585 [Eh]
	 Total Energy              =    -492.6843571974533234 [Eh]

	 ================> DF-SCS-MP2 Energies <==================
	-----------------------------------------------------------
	 SCS Same-Spin Scale       =       0.3333333333333333 [-]
	 SCS Opposite-Spin Scale   =       1.2000000000000000 [-]
	 SCS Same-Spin Energy      =      -0.1687653868015072 [Eh]
	 SCS Opposite-Spin Energy  =      -1.8599783300992041 [Eh]
	 SCS Correlation Energy    =      -2.0287437169007112 [Eh]
	 SCS Total Energy          =    -492.6568228122001756 [Eh]
	-----------------------------------------------------------

  Dipole Moment: [D]
     X:     0.0049      Y:     3.0051      Z:     0.8256     Total:     3.1165

*** Psi4 exiting successfully. Buy a developer a beer!
