                               Psi4 1.4a3.dev225

  ==> Input File <==

--------------------------------------------------------------------------
#psi4
#
memory 32 gb

molecule  {
0 1
  O        1.6750442    -0.9668598     0.3771189
  O       -0.8249020    -1.8470020    -0.1920140
  N       -1.7073370     0.2644950     0.0041840
  N        1.2225400     1.0581630    -0.4400630
  C       -0.6757910    -0.6248990    -0.0657590
  C       -1.6242400     1.6701930     0.3734340
  C       -3.0587270    -0.2617480    -0.1203800
  C        0.7172850    -0.0860290    -0.0289380
  C        2.8466160    -0.3331830     0.2236370
  C        2.5869190     0.9090560    -0.2781450
  H       -2.0624300     2.2861190    -0.4188050
  H       -0.5911340     1.9718700     0.5118620
  H       -2.1906170     1.8355680     1.2974120
  H       -3.5636440    -0.2611770     0.8526080
  H       -3.0040100    -1.2812060    -0.4966650
  H       -3.6263720     0.3669880    -0.8129620
  H        3.7338670    -0.8757360     0.5106220
  H        3.2804870     1.6963590    -0.5371020
units angstrom
no_reorient  #important for SAPT in psi4, default
symmetry c1  #important for SAPT in psi4, default
}

set PROPERTIES_ORIGIN ["COM"]
properties('MP2/aug-cc-pvtz', properties = ['dipole'])
--------------------------------------------------------------------------

    Molecular point group: c1
  Charge       = 0
  Multiplicity = 1
  Basis Set: AUG-CC-PVTZ
    Blend: AUG-CC-PVTZ
  Basis Set: (AUG-CC-PVTZ AUX)
    Blend: AUG-CC-PVTZ-JKFIT

    Orbital Energies [Eh]
    ---------------------

    Doubly Occupied:

       1A    -20.654029     2A    -20.527920     3A    -15.602100
       4A    -15.591896     5A    -11.374787     6A    -11.355087
       7A    -11.311446     8A    -11.274666     9A    -11.266469
      10A    -11.259529    11A     -1.506204    12A     -1.382914
      13A     -1.259899    14A     -1.242600    15A     -1.059279
      16A     -0.977468    17A     -0.959285    18A     -0.867437
      19A     -0.844577    20A     -0.782966    21A     -0.728146
      22A     -0.685756    23A     -0.670742    24A     -0.660933
      25A     -0.653280    26A     -0.621854    27A     -0.587072
      28A     -0.584065    29A     -0.567475    30A     -0.562138
      31A     -0.542123    32A     -0.535617    33A     -0.481772
      34A     -0.464564    35A     -0.442229    36A     -0.380692
      37A     -0.349994

  @DF-RHF Final Energy:  -490.63760797169266

   => Energetics <=

    Nuclear Repulsion Energy =            528.6777946069657901
    One-Electron Energy =               -1717.3927822662128619
    Two-Electron Energy =                 698.0773796875544122
    Total Energy =                       -490.6376079716926597
  Basis Set: (AUG-CC-PVTZ AUX)
    Blend: AUG-CC-PVTZ-RI
    Molecular point group: c1

    Geometry (in Angstrom), charge = 0, multiplicity = 1:

       Center              X                  Y                   Z               Mass
    ------------   -----------------  -----------------  -----------------  -----------------
         O            1.616301580494    -0.928148638537     0.384134919803    15.994914619570
         O           -0.883644619506    -1.808290838537    -0.184997980197    15.994914619570
         N           -1.766079619506     0.303206161463     0.011200019803    14.003074004430
         N            1.163797380494     1.096874161463    -0.433046980197    14.003074004430
         C           -0.734533619506    -0.586187838537    -0.058742980197    12.000000000000
         C           -1.682982619506     1.708904161463     0.380450019803    12.000000000000
         C           -3.117469619506    -0.223036838537    -0.113363980197    12.000000000000
         C            0.658542380494    -0.047317838537    -0.021921980197    12.000000000000
         C            2.787873380494    -0.294471838537     0.230653019803    12.000000000000
         C            2.528176380494     0.947767161463    -0.271128980197    12.000000000000
         H           -2.121172619506     2.324830161463    -0.411788980197     1.007825032230
         H           -0.649876619506     2.010581161463     0.518878019803     1.007825032230
         H           -2.249359619506     1.874279161463     1.304428019803     1.007825032230
         H           -3.622386619506    -0.222465838537     0.859624019803     1.007825032230
         H           -3.062752619506    -1.242494838537    -0.489648980197     1.007825032230
         H           -3.685114619506     0.405699161463    -0.805945980197     1.007825032230
         H            3.675124380494    -0.837024838537     0.517638019803     1.007825032230
         H            3.221744380494     1.735070161463    -0.530085980197     1.007825032230

  Basis Set: AUG-CC-PVTZ
    Blend: AUG-CC-PVTZ
  Basis Set: (AUG-CC-PVTZ AUX)
    Blend: AUG-CC-PVTZ-JKFIT
	 Reference Energy          =    -490.6376079716926597 [Eh]
	 Singles Energy            =      -0.0000000000000000 [Eh]
	 Same-Spin Energy          =      -0.5065365496938745 [Eh]
	 Opposite-Spin Energy      =      -1.5493179438429578 [Eh]
	 Correlation Energy        =      -2.0558544935368324 [Eh]
	 Total Energy              =    -492.6934624652295156 [Eh]

	 ================> DF-SCS-MP2 Energies <==================
	-----------------------------------------------------------
	 SCS Same-Spin Scale       =       0.3333333333333333 [-]
	 SCS Opposite-Spin Scale   =       1.2000000000000000 [-]
	 SCS Same-Spin Energy      =      -0.1688455165646248 [Eh]
	 SCS Opposite-Spin Energy  =      -1.8591815326115493 [Eh]
	 SCS Correlation Energy    =      -2.0280270491761740 [Eh]
	 SCS Total Energy          =    -492.6656350208688195 [Eh]
	-----------------------------------------------------------

  Dipole Moment: [D]
     X:     0.3470      Y:     2.7228      Z:     0.9752     Total:     2.9129

*** Psi4 exiting successfully. Buy a developer a beer!
