                               Psi4 1.4a3.dev225

  ==> Input File <==

--------------------------------------------------------------------------
#psi4
#
memory 32 gb

molecule  {
0 1
  O        1.6580350    -0.9827140     0.3821500
  O       -0.8249020    -1.8470020    -0.1920140
  N       -1.7746607     0.3105429    -0.1245247
  N        1.2225400     1.0581630    -0.4400630
  C       -0.6757910    -0.6248990    -0.0657590
  C       -1.6242400     1.6701930     0.3734340
  C       -3.0587270    -0.2617480    -0.1203800
  C        0.7172850    -0.0860290    -0.0289380
  C        2.8466160    -0.3331830     0.2236370
  C        2.5869190     0.9090560    -0.2781450
  H       -2.0624300     2.2861190    -0.4188050
  H       -0.5911340     1.9718700     0.5118620
  H       -2.1906170     1.8355680     1.2974120
  H       -3.5636440    -0.2611770     0.8526080
  H       -3.0040100    -1.2812060    -0.4966650
  H       -3.6263720     0.3669880    -0.8129620
  H        3.7338670    -0.8757360     0.5106220
  H        3.2804870     1.6963590    -0.5371020
units angstrom
no_reorient  #important for SAPT in psi4, default
symmetry c1  #important for SAPT in psi4, default
}

set PROPERTIES_ORIGIN ["COM"]
properties('MP2/aug-cc-pvtz', properties = ['dipole'])
--------------------------------------------------------------------------

    Molecular point group: c1
  Charge       = 0
  Multiplicity = 1
  Basis Set: AUG-CC-PVTZ
    Blend: AUG-CC-PVTZ
  Basis Set: (AUG-CC-PVTZ AUX)
    Blend: AUG-CC-PVTZ-JKFIT

    Orbital Energies [Eh]
    ---------------------

    Doubly Occupied:

       1A    -20.657414     2A    -20.544417     3A    -15.596367
       4A    -15.595500     5A    -11.383863     6A    -11.360775
       7A    -11.315954     8A    -11.280031     9A    -11.260869
      10A    -11.250572    11A     -1.502160    12A     -1.387154
      13A     -1.258111    14A     -1.243768    15A     -1.061136
      16A     -0.978885    17A     -0.940889    18A     -0.866016
      19A     -0.844345    20A     -0.784121    21A     -0.726614
      22A     -0.685638    23A     -0.668798    24A     -0.659401
      25A     -0.651708    26A     -0.623846    27A     -0.595251
      28A     -0.590370    29A     -0.567004    30A     -0.553778
      31A     -0.536097    32A     -0.532754    33A     -0.485428
      34A     -0.467867    35A     -0.448948    36A     -0.376097
      37A     -0.353858

  @DF-RHF Final Energy:  -490.62311147625962

   => Energetics <=

    Nuclear Repulsion Energy =            527.0265102388143532
    One-Electron Energy =               -1714.0276360586756255
    Two-Electron Energy =                 696.3780143436016488
    Total Energy =                       -490.6231114762596235
  Basis Set: (AUG-CC-PVTZ AUX)
    Blend: AUG-CC-PVTZ-RI
    Molecular point group: c1

    Geometry (in Angstrom), charge = 0, multiplicity = 1:

       Center              X                  Y                   Z               Mass
    ------------   -----------------  -----------------  -----------------  -----------------
         O            1.607965890369    -0.946796138191     0.401459771937    15.994914619570
         O           -0.874971109631    -1.811084138191    -0.172704228063    15.994914619570
         N           -1.824729809631     0.346460761809    -0.105214928063    14.003074004430
         N            1.172470890369     1.094080861809    -0.420753228063    14.003074004430
         C           -0.725860109631    -0.588981138191    -0.046449228063    12.000000000000
         C           -1.674309109631     1.706110861809     0.392743771937    12.000000000000
         C           -3.108796109631    -0.225830138191    -0.101070228063    12.000000000000
         C            0.667215890369    -0.050111138191    -0.009628228063    12.000000000000
         C            2.796546890369    -0.297265138191     0.242946771937    12.000000000000
         C            2.536849890369     0.944973861809    -0.258835228063    12.000000000000
         H           -2.112499109631     2.322036861809    -0.399495228063     1.007825032230
         H           -0.641203109631     2.007787861809     0.531171771937     1.007825032230
         H           -2.240686109631     1.871485861809     1.316721771937     1.007825032230
         H           -3.613713109631    -0.225259138191     0.871917771937     1.007825032230
         H           -3.054079109631    -1.245288138191    -0.477355228063     1.007825032230
         H           -3.676441109631     0.402905861809    -0.793652228063     1.007825032230
         H            3.683797890369    -0.839818138191     0.529931771937     1.007825032230
         H            3.230417890369     1.732276861809    -0.517792228063     1.007825032230

  Basis Set: AUG-CC-PVTZ
    Blend: AUG-CC-PVTZ
  Basis Set: (AUG-CC-PVTZ AUX)
    Blend: AUG-CC-PVTZ-JKFIT
	 Reference Energy          =    -490.6231114762596235 [Eh]
	 Singles Energy            =      -0.0000000000000000 [Eh]
	 Same-Spin Energy          =      -0.5073788167217559 [Eh]
	 Opposite-Spin Energy      =      -1.5519382344007573 [Eh]
	 Correlation Energy        =      -2.0593170511225134 [Eh]
	 Total Energy              =    -492.6824285273821147 [Eh]

	 ================> DF-SCS-MP2 Energies <==================
	-----------------------------------------------------------
	 SCS Same-Spin Scale       =       0.3333333333333333 [-]
	 SCS Opposite-Spin Scale   =       1.2000000000000000 [-]
	 SCS Same-Spin Energy      =      -0.1691262722405853 [Eh]
	 SCS Opposite-Spin Energy  =      -1.8623258812809087 [Eh]
	 SCS Correlation Energy    =      -2.0314521535214940 [Eh]
	 SCS Total Energy          =    -492.6545636297811370 [Eh]
	-----------------------------------------------------------

  Dipole Moment: [D]
     X:     0.8920      Y:     2.3957      Z:     1.0787     Total:     2.7747

*** Psi4 exiting successfully. Buy a developer a beer!
