                               Psi4 1.4a3.dev225

  ==> Input File <==

--------------------------------------------------------------------------
#psi4
#
memory 32 gb

molecule  {
0 1
  O        1.7070502    -1.0574284     0.4149485
  O       -0.8249020    -1.8470020    -0.1920140
  N       -1.7073370     0.2644950     0.0041840
  N        1.2225400     1.0581630    -0.4400630
  C       -0.6757910    -0.6248990    -0.0657590
  C       -1.6242400     1.6701930     0.3734340
  C       -3.0587270    -0.2617480    -0.1203800
  C        0.7172850    -0.0860290    -0.0289380
  C        2.8466160    -0.3331830     0.2236370
  C        2.5869190     0.9090560    -0.2781450
  H       -2.0624300     2.2861190    -0.4188050
  H       -0.5911340     1.9718700     0.5118620
  H       -2.1906170     1.8355680     1.2974120
  H       -3.5636440    -0.2611770     0.8526080
  H       -3.0040100    -1.2812060    -0.4966650
  H       -3.6263720     0.3669880    -0.8129620
  H        3.7338670    -0.8757360     0.5106220
  H        3.2804870     1.6963590    -0.5371020
units angstrom
no_reorient  #important for SAPT in psi4, default
symmetry c1  #important for SAPT in psi4, default
}

set PROPERTIES_ORIGIN ["COM"]
properties('MP2/aug-cc-pvtz', properties = ['dipole'])
--------------------------------------------------------------------------

    Molecular point group: c1
  Charge       = 0
  Multiplicity = 1
  Basis Set: AUG-CC-PVTZ
    Blend: AUG-CC-PVTZ
  Basis Set: (AUG-CC-PVTZ AUX)
    Blend: AUG-CC-PVTZ-JKFIT

    Orbital Energies [Eh]
    ---------------------

    Doubly Occupied:

       1A    -20.652059     2A    -20.527606     3A    -15.604682
       4A    -15.602518     5A    -11.375376     6A    -11.363457
       7A    -11.315292     8A    -11.276931     9A    -11.267677
      10A    -11.259884    11A     -1.468995    12A     -1.382257
      13A     -1.264117    14A     -1.248379    15A     -1.048085
      16A     -0.977743    17A     -0.959283    18A     -0.863501
      19A     -0.840551    20A     -0.775010    21A     -0.725559
      22A     -0.673783    23A     -0.665129    24A     -0.655646
      25A     -0.645645    26A     -0.616994    27A     -0.591058
      28A     -0.582780    29A     -0.567723    30A     -0.562828
      31A     -0.542987    32A     -0.535447    33A     -0.489115
      34A     -0.472949    35A     -0.442229    36A     -0.380958
      37A     -0.348077

  @DF-RHF Final Energy:  -490.62322967574914

   => Energetics <=

    Nuclear Repulsion Energy =            525.5322001667881295
    One-Electron Energy =               -1711.1662392487196485
    Two-Electron Energy =                 695.0108094061822612
    Total Energy =                       -490.6232296757491440
  Basis Set: (AUG-CC-PVTZ AUX)
    Blend: AUG-CC-PVTZ-RI
    Molecular point group: c1

    Geometry (in Angstrom), charge = 0, multiplicity = 1:

       Center              X                  Y                   Z               Mass
    ------------   -----------------  -----------------  -----------------  -----------------
         O            1.644652443861    -1.008374158877     0.417644318692    15.994914619570
         O           -0.887299756139    -1.797947758877    -0.189318181308    15.994914619570
         N           -1.769734756139     0.313549241123     0.006879818692    14.003074004430
         N            1.160142243861     1.107217241123    -0.437367181308    14.003074004430
         C           -0.738188756139    -0.575844758877    -0.063063181308    12.000000000000
         C           -1.686637756139     1.719247241123     0.376129818692    12.000000000000
         C           -3.121124756139    -0.212693758877    -0.117684181308    12.000000000000
         C            0.654887243861    -0.036974758877    -0.026242181308    12.000000000000
         C            2.784218243861    -0.284128758877     0.226332818692    12.000000000000
         C            2.524521243861     0.958110241123    -0.275449181308    12.000000000000
         H           -2.124827756139     2.335173241123    -0.416109181308     1.007825032230
         H           -0.653531756139     2.020924241123     0.514557818692     1.007825032230
         H           -2.253014756139     1.884622241123     1.300107818692     1.007825032230
         H           -3.626041756139    -0.212122758877     0.855303818692     1.007825032230
         H           -3.066407756139    -1.232151758877    -0.493969181308     1.007825032230
         H           -3.688769756139     0.416042241123    -0.810266181308     1.007825032230
         H            3.671469243861    -0.826681758877     0.513317818692     1.007825032230
         H            3.218089243861     1.745413241123    -0.534406181308     1.007825032230

  Basis Set: AUG-CC-PVTZ
    Blend: AUG-CC-PVTZ
  Basis Set: (AUG-CC-PVTZ AUX)
    Blend: AUG-CC-PVTZ-JKFIT
	 Reference Energy          =    -490.6232296757491440 [Eh]
	 Singles Energy            =      -0.0000000000000000 [Eh]
	 Same-Spin Energy          =      -0.5078991907486489 [Eh]
	 Opposite-Spin Energy      =      -1.5545721981615741 [Eh]
	 Correlation Energy        =      -2.0624713889102231 [Eh]
	 Total Energy              =    -492.6857010646593835 [Eh]

	 ================> DF-SCS-MP2 Energies <==================
	-----------------------------------------------------------
	 SCS Same-Spin Scale       =       0.3333333333333333 [-]
	 SCS Opposite-Spin Scale   =       1.2000000000000000 [-]
	 SCS Same-Spin Energy      =      -0.1692997302495496 [Eh]
	 SCS Opposite-Spin Energy  =      -1.8654866377938888 [Eh]
	 SCS Correlation Energy    =      -2.0347863680434384 [Eh]
	 SCS Total Energy          =    -492.6580160437925997 [Eh]
	-----------------------------------------------------------

  Dipole Moment: [D]
     X:     0.2200      Y:     2.9876      Z:     0.8510     Total:     3.1143

*** Psi4 exiting successfully. Buy a developer a beer!
