                               Psi4 1.4a3.dev225

  ==> Input File <==

--------------------------------------------------------------------------
#psi4
#
memory 32 gb

molecule  {
0 1
  O        1.6580350    -0.9827140     0.3821500
  O       -0.8249020    -1.8470020    -0.1920140
  N       -1.7073370     0.2644950     0.0041840
  N        1.2225400     1.0581630    -0.4400630
  C       -0.6757910    -0.6248990    -0.0657590
  C       -1.6242400     1.6701930     0.3734340
  C       -3.0587270    -0.2617480    -0.1203800
  C        0.7172850    -0.0860290    -0.0289380
  C        2.8901945    -0.3093684     0.2178252
  C        2.5869190     0.9090560    -0.2781450
  H       -2.0624300     2.2861190    -0.4188050
  H       -0.5911340     1.9718700     0.5118620
  H       -2.1906170     1.8355680     1.2974120
  H       -3.5636440    -0.2611770     0.8526080
  H       -3.0040100    -1.2812060    -0.4966650
  H       -3.6263720     0.3669880    -0.8129620
  H        3.7338670    -0.8757360     0.5106220
  H        3.2804870     1.6963590    -0.5371020
units angstrom
no_reorient  #important for SAPT in psi4, default
symmetry c1  #important for SAPT in psi4, default
}

set PROPERTIES_ORIGIN ["COM"]
properties('MP2/aug-cc-pvtz', properties = ['dipole'])
--------------------------------------------------------------------------

    Molecular point group: c1
  Charge       = 0
  Multiplicity = 1
  Basis Set: AUG-CC-PVTZ
    Blend: AUG-CC-PVTZ
  Basis Set: (AUG-CC-PVTZ AUX)
    Blend: AUG-CC-PVTZ-JKFIT

    Orbital Energies [Eh]
    ---------------------

    Doubly Occupied:

       1A    -20.646282     2A    -20.528739     3A    -15.602723
       4A    -15.589905     5A    -11.374846     6A    -11.359031
       7A    -11.310293     8A    -11.279277     9A    -11.266849
      10A    -11.259814    11A     -1.480603    12A     -1.382530
      13A     -1.259595    14A     -1.240430    15A     -1.059108
      16A     -0.977997    17A     -0.961041    18A     -0.863625
      19A     -0.843787    20A     -0.775836    21A     -0.727322
      22A     -0.677150    23A     -0.665076    24A     -0.661358
      25A     -0.648097    26A     -0.623396    27A     -0.587979
      28A     -0.583489    29A     -0.566565    30A     -0.562366
      31A     -0.541378    32A     -0.535020    33A     -0.481534
      34A     -0.463308    35A     -0.442357    36A     -0.380927
      37A     -0.356713

  @DF-RHF Final Energy:  -490.63363698479492

   => Energetics <=

    Nuclear Repulsion Energy =            527.4321933771180966
    One-Electron Energy =               -1714.9989700052681201
    Two-Electron Energy =                 696.9331396433549344
    Total Energy =                       -490.6336369847949754
  Basis Set: (AUG-CC-PVTZ AUX)
    Blend: AUG-CC-PVTZ-RI
    Molecular point group: c1

    Geometry (in Angstrom), charge = 0, multiplicity = 1:

       Center              X                  Y                   Z               Mass
    ------------   -----------------  -----------------  -----------------  -----------------
         O            1.597501120703    -0.944232661124     0.389089406038    15.994914619570
         O           -0.885435879297    -1.808520661124    -0.185074593962    15.994914619570
         N           -1.767870879297     0.302976338876     0.011123406038    14.003074004430
         N            1.162006120703     1.096644338876    -0.433123593962    14.003074004430
         C           -0.736324879297    -0.586417661124    -0.058819593962    12.000000000000
         C           -1.684773879297     1.708674338876     0.380373406038    12.000000000000
         C           -3.119260879297    -0.223266661124    -0.113440593962    12.000000000000
         C            0.656751120703    -0.047547661124    -0.021998593962    12.000000000000
         C            2.829660620703    -0.270887061124     0.224764606038    12.000000000000
         C            2.526385120703     0.947537338876    -0.271205593962    12.000000000000
         H           -2.122963879297     2.324600338876    -0.411865593962     1.007825032230
         H           -0.651667879297     2.010351338876     0.518801406038     1.007825032230
         H           -2.251150879297     1.874049338876     1.304351406038     1.007825032230
         H           -3.624177879297    -0.222695661124     0.859547406038     1.007825032230
         H           -3.064543879297    -1.242724661124    -0.489725593962     1.007825032230
         H           -3.686905879297     0.405469338876    -0.806022593962     1.007825032230
         H            3.673333120703    -0.837254661124     0.517561406038     1.007825032230
         H            3.219953120703     1.734840338876    -0.530162593962     1.007825032230

  Basis Set: AUG-CC-PVTZ
    Blend: AUG-CC-PVTZ
  Basis Set: (AUG-CC-PVTZ AUX)
    Blend: AUG-CC-PVTZ-JKFIT
	 Reference Energy          =    -490.6336369847949186 [Eh]
	 Singles Energy            =      -0.0000000000000000 [Eh]
	 Same-Spin Energy          =      -0.5062941261168709 [Eh]
	 Opposite-Spin Energy      =      -1.5507546317150935 [Eh]
	 Correlation Energy        =      -2.0570487578319643 [Eh]
	 Total Energy              =    -492.6906857426268971 [Eh]

	 ================> DF-SCS-MP2 Energies <==================
	-----------------------------------------------------------
	 SCS Same-Spin Scale       =       0.3333333333333333 [-]
	 SCS Opposite-Spin Scale   =       1.2000000000000000 [-]
	 SCS Same-Spin Energy      =      -0.1687647087056236 [Eh]
	 SCS Opposite-Spin Energy  =      -1.8609055580581122 [Eh]
	 SCS Correlation Energy    =      -2.0296702667637359 [Eh]
	 SCS Total Energy          =    -492.6633072515586491 [Eh]
	-----------------------------------------------------------

  Dipole Moment: [D]
     X:     0.3873      Y:     2.8160      Z:     0.9405     Total:     2.9941

*** Psi4 exiting successfully. Buy a developer a beer!
