                               Psi4 1.4a3.dev225

  ==> Input File <==

--------------------------------------------------------------------------
#psi4
#
memory 32 gb

molecule  {
0 1
  O        1.6580350    -0.9827140     0.3821500
  O       -0.8249020    -1.8470020    -0.1920140
  N       -1.6960078     0.2583065     0.0260676
  N        1.2225400     1.0581630    -0.4400630
  C       -0.6757910    -0.6248990    -0.0657590
  C       -1.6242400     1.6701930     0.3734340
  C       -3.0587270    -0.2617480    -0.1203800
  C        0.7172850    -0.0860290    -0.0289380
  C        2.8466160    -0.3331830     0.2236370
  C        2.5869190     0.9090560    -0.2781450
  H       -2.0624300     2.2861190    -0.4188050
  H       -0.5911340     1.9718700     0.5118620
  H       -2.1906170     1.8355680     1.2974120
  H       -3.5636440    -0.2611770     0.8526080
  H       -3.0040100    -1.2812060    -0.4966650
  H       -3.6263720     0.3669880    -0.8129620
  H        3.7338670    -0.8757360     0.5106220
  H        3.2804870     1.6963590    -0.5371020
units angstrom
no_reorient  #important for SAPT in psi4, default
symmetry c1  #important for SAPT in psi4, default
}

set PROPERTIES_ORIGIN ["COM"]
properties('MP2/aug-cc-pvtz', properties = ['dipole'])
--------------------------------------------------------------------------

    Molecular point group: c1
  Charge       = 0
  Multiplicity = 1
  Basis Set: AUG-CC-PVTZ
    Blend: AUG-CC-PVTZ
  Basis Set: (AUG-CC-PVTZ AUX)
    Blend: AUG-CC-PVTZ-JKFIT

    Orbital Energies [Eh]
    ---------------------

    Doubly Occupied:

       1A    -20.653040     2A    -20.525550     3A    -15.602907
       4A    -15.591249     5A    -11.372531     6A    -11.355567
       7A    -11.311876     8A    -11.276685     9A    -11.267286
      10A    -11.260904    11A     -1.497915    12A     -1.382027
      13A     -1.260314    14A     -1.242467    15A     -1.057197
      16A     -0.976932    17A     -0.961915    18A     -0.865760
      19A     -0.843724    20A     -0.780510    21A     -0.727403
      22A     -0.681998    23A     -0.667364    24A     -0.660551
      25A     -0.651527    26A     -0.621750    27A     -0.587765
      28A     -0.585016    29A     -0.567711    30A     -0.562967
      31A     -0.541198    32A     -0.535204    33A     -0.481366
      34A     -0.464740    35A     -0.440740    36A     -0.381479
      37A     -0.350756

  @DF-RHF Final Energy:  -490.63695654350619

   => Energetics <=

    Nuclear Repulsion Energy =            528.5109651770166010
    One-Electron Energy =               -1717.1040607795418964
    Two-Electron Energy =                 697.9561390590191650
    Total Energy =                       -490.6369565435062441
  Basis Set: (AUG-CC-PVTZ AUX)
    Blend: AUG-CC-PVTZ-RI
    Molecular point group: c1

    Geometry (in Angstrom), charge = 0, multiplicity = 1:

       Center              X                  Y                   Z               Mass
    ------------   -----------------  -----------------  -----------------  -----------------
         O            1.600102163641    -0.941573536420     0.386403535047    15.994914619570
         O           -0.882834836359    -1.805861536420    -0.187760464953    15.994914619570
         N           -1.753940636359     0.299446963580     0.030321135047    14.003074004430
         N            1.164607163641     1.099303463580    -0.435809464953    14.003074004430
         C           -0.733723836359    -0.583758536420    -0.061505464953    12.000000000000
         C           -1.682172836359     1.711333463580     0.377687535047    12.000000000000
         C           -3.116659836359    -0.220607536420    -0.116126464953    12.000000000000
         C            0.659352163641    -0.044888536420    -0.024684464953    12.000000000000
         C            2.788683163641    -0.292042536420     0.227890535047    12.000000000000
         C            2.528986163641     0.950196463580    -0.273891464953    12.000000000000
         H           -2.120362836359     2.327259463580    -0.414551464953     1.007825032230
         H           -0.649066836359     2.013010463580     0.516115535047     1.007825032230
         H           -2.248549836359     1.876708463580     1.301665535047     1.007825032230
         H           -3.621576836359    -0.220036536420     0.856861535047     1.007825032230
         H           -3.061942836359    -1.240065536420    -0.492411464953     1.007825032230
         H           -3.684304836359     0.408128463580    -0.808708464953     1.007825032230
         H            3.675934163641    -0.834595536420     0.514875535047     1.007825032230
         H            3.222554163641     1.737499463580    -0.532848464953     1.007825032230

  Basis Set: AUG-CC-PVTZ
    Blend: AUG-CC-PVTZ
  Basis Set: (AUG-CC-PVTZ AUX)
    Blend: AUG-CC-PVTZ-JKFIT
	 Reference Energy          =    -490.6369565435061872 [Eh]
	 Singles Energy            =      -0.0000000000000000 [Eh]
	 Same-Spin Energy          =      -0.5064820879821679 [Eh]
	 Opposite-Spin Energy      =      -1.5499407755357830 [Eh]
	 Correlation Energy        =      -2.0564228635179509 [Eh]
	 Total Energy              =    -492.6933794070241106 [Eh]

	 ================> DF-SCS-MP2 Energies <==================
	-----------------------------------------------------------
	 SCS Same-Spin Scale       =       0.3333333333333333 [-]
	 SCS Opposite-Spin Scale   =       1.2000000000000000 [-]
	 SCS Same-Spin Energy      =      -0.1688273626607226 [Eh]
	 SCS Opposite-Spin Energy  =      -1.8599289306429396 [Eh]
	 SCS Correlation Energy    =      -2.0287562933036623 [Eh]
	 SCS Total Energy          =    -492.6657128368098597 [Eh]
	-----------------------------------------------------------

  Dipole Moment: [D]
     X:     0.3007      Y:     2.8247      Z:     0.9350     Total:     2.9905

*** Psi4 exiting successfully. Buy a developer a beer!
