                               Psi4 1.4a3.dev225

  ==> Input File <==

--------------------------------------------------------------------------
#psi4
#
memory 32 gb

molecule  {
0 1
  O        1.6580350    -0.9827140     0.3821500
  O       -0.8249020    -1.8470020    -0.1920140
  N       -1.7073370     0.2644950     0.0041840
  N        1.2225400     1.0581630    -0.4400630
  C       -0.6757910    -0.6248990    -0.0657590
  C       -1.6242400     1.6701930     0.3734340
  C       -3.0587270    -0.2617480    -0.1203800
  C        0.7172850    -0.0860290    -0.0289380
  C        2.8466160    -0.3331830     0.2236370
  C        2.5964339     0.8635425    -0.2597606
  H       -2.0624300     2.2861190    -0.4188050
  H       -0.5911340     1.9718700     0.5118620
  H       -2.1906170     1.8355680     1.2974120
  H       -3.5636440    -0.2611770     0.8526080
  H       -3.0040100    -1.2812060    -0.4966650
  H       -3.6263720     0.3669880    -0.8129620
  H        3.7338670    -0.8757360     0.5106220
  H        3.2804870     1.6963590    -0.5371020
units angstrom
no_reorient  #important for SAPT in psi4, default
symmetry c1  #important for SAPT in psi4, default
}

set PROPERTIES_ORIGIN ["COM"]
properties('MP2/aug-cc-pvtz', properties = ['dipole'])
--------------------------------------------------------------------------

    Molecular point group: c1
  Charge       = 0
  Multiplicity = 1
  Basis Set: AUG-CC-PVTZ
    Blend: AUG-CC-PVTZ
  Basis Set: (AUG-CC-PVTZ AUX)
    Blend: AUG-CC-PVTZ-JKFIT

    Orbital Energies [Eh]
    ---------------------

    Doubly Occupied:

       1A    -20.649318     2A    -20.528646     3A    -15.602642
       4A    -15.591759     5A    -11.374662     6A    -11.357813
       7A    -11.304629     8A    -11.272798     9A    -11.266874
      10A    -11.259830    11A     -1.498404    12A     -1.383150
      13A     -1.259539    14A     -1.240092    15A     -1.064696
      16A     -0.978166    17A     -0.961531    18A     -0.869151
      19A     -0.838643    20A     -0.779428    21A     -0.727869
      22A     -0.682796    23A     -0.667142    24A     -0.660152
      25A     -0.652503    26A     -0.610358    27A     -0.588433
      28A     -0.584867    29A     -0.567308    30A     -0.562467
      31A     -0.542146    32A     -0.535639    33A     -0.485108
      34A     -0.462678    35A     -0.442292    36A     -0.381068
      37A     -0.361176

  @DF-RHF Final Energy:  -490.63556917882710

   => Energetics <=

    Nuclear Repulsion Energy =            528.9106906301730078
    One-Electron Energy =               -1717.9009738423192175
    Two-Electron Energy =                 698.3547140333190555
    Total Energy =                       -490.6355691788270406
  Basis Set: (AUG-CC-PVTZ AUX)
    Blend: AUG-CC-PVTZ-RI
    Molecular point group: c1

    Geometry (in Angstrom), charge = 0, multiplicity = 1:

       Center              X                  Y                   Z               Mass
    ------------   -----------------  -----------------  -----------------  -----------------
         O            1.600419636707    -0.938292737880     0.387016313442    15.994914619570
         O           -0.882517363293    -1.802580737880    -0.187147686558    15.994914619570
         N           -1.764952363293     0.308916262120     0.009050313442    14.003074004430
         N            1.164924636707     1.102584262120    -0.435196686558    14.003074004430
         C           -0.733406363293    -0.580477737880    -0.060892686558    12.000000000000
         C           -1.681855363293     1.714614262120     0.378300313442    12.000000000000
         C           -3.116342363293    -0.217326737880    -0.115513686558    12.000000000000
         C            0.659669636707    -0.041607737880    -0.024071686558    12.000000000000
         C            2.789000636707    -0.288761737880     0.228503313442    12.000000000000
         C            2.538818536707     0.907963762120    -0.254894286558    12.000000000000
         H           -2.120045363293     2.330540262120    -0.413938686558     1.007825032230
         H           -0.648749363293     2.016291262120     0.516728313442     1.007825032230
         H           -2.248232363293     1.879989262120     1.302278313442     1.007825032230
         H           -3.621259363293    -0.216755737880     0.857474313442     1.007825032230
         H           -3.061625363293    -1.236784737880    -0.491798686558     1.007825032230
         H           -3.683987363293     0.411409262120    -0.808095686558     1.007825032230
         H            3.676251636707    -0.831314737880     0.515488313442     1.007825032230
         H            3.222871636707     1.740780262120    -0.532235686558     1.007825032230

  Basis Set: AUG-CC-PVTZ
    Blend: AUG-CC-PVTZ
  Basis Set: (AUG-CC-PVTZ AUX)
    Blend: AUG-CC-PVTZ-JKFIT
	 Reference Energy          =    -490.6355691788270974 [Eh]
	 Singles Energy            =      -0.0000000000000000 [Eh]
	 Same-Spin Energy          =      -0.5056065322225919 [Eh]
	 Opposite-Spin Energy      =      -1.5488193337054887 [Eh]
	 Correlation Energy        =      -2.0544258659280805 [Eh]
	 Total Energy              =    -492.6899950447551646 [Eh]

	 ================> DF-SCS-MP2 Energies <==================
	-----------------------------------------------------------
	 SCS Same-Spin Scale       =       0.3333333333333333 [-]
	 SCS Opposite-Spin Scale   =       1.2000000000000000 [-]
	 SCS Same-Spin Energy      =      -0.1685355107408640 [Eh]
	 SCS Opposite-Spin Energy  =      -1.8585832004465863 [Eh]
	 SCS Correlation Energy    =      -2.0271187111874505 [Eh]
	 SCS Total Energy          =    -492.6626878900145243 [Eh]
	-----------------------------------------------------------

  Dipole Moment: [D]
     X:     0.3151      Y:     2.7434      Z:     0.9662     Total:     2.9256

*** Psi4 exiting successfully. Buy a developer a beer!
