                               Psi4 1.4a3.dev225

  ==> Input File <==

--------------------------------------------------------------------------
#psi4
#
memory 32 gb

molecule  {
0 1
  O        1.6580350    -0.9827140     0.3821500
  O       -0.8249020    -1.8470020    -0.1920140
  N       -1.7523665     0.2935101    -0.0821594
  N        1.2225400     1.0581630    -0.4400630
  C       -0.6757910    -0.6248990    -0.0657590
  C       -1.6242400     1.6701930     0.3734340
  C       -3.0587270    -0.2617480    -0.1203800
  C        0.7172850    -0.0860290    -0.0289380
  C        2.8466160    -0.3331830     0.2236370
  C        2.5869190     0.9090560    -0.2781450
  H       -2.0624300     2.2861190    -0.4188050
  H       -0.5911340     1.9718700     0.5118620
  H       -2.1906170     1.8355680     1.2974120
  H       -3.5636440    -0.2611770     0.8526080
  H       -3.0040100    -1.2812060    -0.4966650
  H       -3.6263720     0.3669880    -0.8129620
  H        3.7338670    -0.8757360     0.5106220
  H        3.2804870     1.6963590    -0.5371020
units angstrom
no_reorient  #important for SAPT in psi4, default
symmetry c1  #important for SAPT in psi4, default
}

set PROPERTIES_ORIGIN ["COM"]
properties('MP2/aug-cc-pvtz', properties = ['dipole'])
--------------------------------------------------------------------------

    Molecular point group: c1
  Charge       = 0
  Multiplicity = 1
  Basis Set: AUG-CC-PVTZ
    Blend: AUG-CC-PVTZ
  Basis Set: (AUG-CC-PVTZ AUX)
    Blend: AUG-CC-PVTZ-JKFIT

    Orbital Energies [Eh]
    ---------------------

    Doubly Occupied:

       1A    -20.656191     2A    -20.538489     3A    -15.598070
       4A    -15.594274     5A    -11.380834     6A    -11.359389
       7A    -11.314781     8A    -11.279075     9A    -11.262812
      10A    -11.253400    11A     -1.500957    12A     -1.385267
      13A     -1.258621    14A     -1.243680    15A     -1.060059
      16A     -0.978572    17A     -0.946987    18A     -0.866229
      19A     -0.844440    20A     -0.783050    21A     -0.726793
      22A     -0.684505    23A     -0.668216    24A     -0.659679
      25A     -0.652390    26A     -0.623308    27A     -0.592113
      28A     -0.588838    29A     -0.566707    30A     -0.556996
      31A     -0.538217    32A     -0.534794    33A     -0.484276
      34A     -0.466983    35A     -0.446820    36A     -0.377307
      37A     -0.352961

  @DF-RHF Final Energy:  -490.63009527693072

   => Energetics <=

    Nuclear Repulsion Energy =            527.5155162840690082
    One-Electron Energy =               -1715.0390662041006635
    Two-Electron Energy =                 696.8934546431008812
    Total Energy =                       -490.6300952769307742
  Basis Set: (AUG-CC-PVTZ AUX)
    Blend: AUG-CC-PVTZ-RI
    Molecular point group: c1

    Geometry (in Angstrom), charge = 0, multiplicity = 1:

       Center              X                  Y                   Z               Mass
    ------------   -----------------  -----------------  -----------------  -----------------
         O            1.605736913479    -0.945093196728     0.397224083972    15.994914619570
         O           -0.877200086521    -1.809381196728    -0.176939916028    15.994914619570
         N           -1.804664586521     0.331130903272    -0.067085316028    14.003074004430
         N            1.170241913479     1.095783803272    -0.424988916028    14.003074004430
         C           -0.728089086521    -0.587278196728    -0.050684916028    12.000000000000
         C           -1.676538086521     1.707813803272     0.388508083972    12.000000000000
         C           -3.111025086521    -0.224127196728    -0.105305916028    12.000000000000
         C            0.664986913479    -0.048408196728    -0.013863916028    12.000000000000
         C            2.794317913479    -0.295562196728     0.238711083972    12.000000000000
         C            2.534620913479     0.946676803272    -0.263070916028    12.000000000000
         H           -2.114728086521     2.323739803272    -0.403730916028     1.007825032230
         H           -0.643432086521     2.009490803272     0.526936083972     1.007825032230
         H           -2.242915086521     1.873188803272     1.312486083972     1.007825032230
         H           -3.615942086521    -0.223556196728     0.867682083972     1.007825032230
         H           -3.056308086521    -1.243585196728    -0.481590916028     1.007825032230
         H           -3.678670086521     0.404608803272    -0.797887916028     1.007825032230
         H            3.681568913479    -0.838115196728     0.525696083972     1.007825032230
         H            3.228188913479     1.733979803272    -0.522027916028     1.007825032230

  Basis Set: AUG-CC-PVTZ
    Blend: AUG-CC-PVTZ
  Basis Set: (AUG-CC-PVTZ AUX)
    Blend: AUG-CC-PVTZ-JKFIT
	 Reference Energy          =    -490.6300952769307173 [Eh]
	 Singles Energy            =      -0.0000000000000000 [Eh]
	 Same-Spin Energy          =      -0.5070822805829871 [Eh]
	 Opposite-Spin Energy      =      -1.5511726686925553 [Eh]
	 Correlation Energy        =      -2.0582549492755424 [Eh]
	 Total Energy              =    -492.6883502262062393 [Eh]

	 ================> DF-SCS-MP2 Energies <==================
	-----------------------------------------------------------
	 SCS Same-Spin Scale       =       0.3333333333333333 [-]
	 SCS Opposite-Spin Scale   =       1.2000000000000000 [-]
	 SCS Same-Spin Energy      =      -0.1690274268609957 [Eh]
	 SCS Opposite-Spin Energy  =      -1.8614072024310664 [Eh]
	 SCS Correlation Energy    =      -2.0304346292920621 [Eh]
	 SCS Total Energy          =    -492.6605299062227914 [Eh]
	-----------------------------------------------------------

  Dipole Moment: [D]
     X:     0.7065      Y:     2.5344      Z:     1.0369     Total:     2.8280

*** Psi4 exiting successfully. Buy a developer a beer!
