                               Psi4 1.4a3.dev225

  ==> Input File <==

--------------------------------------------------------------------------
#psi4
#
memory 32 gb

molecule  {
0 1
  O        1.6580350    -0.9827140     0.3821500
  O       -0.8249020    -1.8470020    -0.1920140
  N       -1.6619027     0.2423283     0.0923264
  N        1.2225400     1.0581630    -0.4400630
  C       -0.6757910    -0.6248990    -0.0657590
  C       -1.6242400     1.6701930     0.3734340
  C       -3.0587270    -0.2617480    -0.1203800
  C        0.7172850    -0.0860290    -0.0289380
  C        2.8466160    -0.3331830     0.2236370
  C        2.5869190     0.9090560    -0.2781450
  H       -2.0624300     2.2861190    -0.4188050
  H       -0.5911340     1.9718700     0.5118620
  H       -2.1906170     1.8355680     1.2974120
  H       -3.5636440    -0.2611770     0.8526080
  H       -3.0040100    -1.2812060    -0.4966650
  H       -3.6263720     0.3669880    -0.8129620
  H        3.7338670    -0.8757360     0.5106220
  H        3.2804870     1.6963590    -0.5371020
units angstrom
no_reorient  #important for SAPT in psi4, default
symmetry c1  #important for SAPT in psi4, default
}

set PROPERTIES_ORIGIN ["COM"]
properties('MP2/aug-cc-pvtz', properties = ['dipole'])
--------------------------------------------------------------------------

    Molecular point group: c1
  Charge       = 0
  Multiplicity = 1
  Basis Set: AUG-CC-PVTZ
    Blend: AUG-CC-PVTZ
  Basis Set: (AUG-CC-PVTZ AUX)
    Blend: AUG-CC-PVTZ-JKFIT

    Orbital Energies [Eh]
    ---------------------

    Doubly Occupied:

       1A    -20.651302     2A    -20.519984     3A    -15.605502
       4A    -15.589634     5A    -11.367958     6A    -11.353286
       7A    -11.310322     8A    -11.275397     9A    -11.269451
      10A    -11.265353    11A     -1.496276    12A     -1.381311
      13A     -1.261350    14A     -1.241416    15A     -1.055536
      16A     -0.976380    17A     -0.968363    18A     -0.865077
      19A     -0.843056    20A     -0.779205    21A     -0.727669
      22A     -0.680828    23A     -0.666918    24A     -0.660951
      25A     -0.649796    26A     -0.620792    27A     -0.586887
      28A     -0.584478    29A     -0.570126    30A     -0.565376
      31A     -0.537357    32A     -0.533884    33A     -0.479695
      34A     -0.463497    35A     -0.437539    36A     -0.384661
      37A     -0.349572

  @DF-RHF Final Energy:  -490.63346201779700

   => Energetics <=

    Nuclear Repulsion Energy =            528.9368513071733560
    One-Electron Energy =               -1717.9882631013897480
    Two-Electron Energy =                 698.4179497764193911
    Total Energy =                       -490.6334620177970010
  Basis Set: (AUG-CC-PVTZ AUX)
    Blend: AUG-CC-PVTZ-RI
    Molecular point group: c1

    Geometry (in Angstrom), charge = 0, multiplicity = 1:

       Center              X                  Y                   Z               Mass
    ------------   -----------------  -----------------  -----------------  -----------------
         O            1.596692331500    -0.939976033996     0.379778971980    15.994914619570
         O           -0.886244668500    -1.804264033996    -0.194385028020    15.994914619570
         N           -1.723245368500     0.285066266004     0.089955371980    14.003074004430
         N            1.161197331500     1.100900966004    -0.442434028020    14.003074004430
         C           -0.737133668500    -0.582161033996    -0.068130028020    12.000000000000
         C           -1.685582668500     1.712930966004     0.371062971980    12.000000000000
         C           -3.120069668500    -0.219010033996    -0.122751028020    12.000000000000
         C            0.655942331500    -0.043291033996    -0.031309028020    12.000000000000
         C            2.785273331500    -0.290445033996     0.221265971980    12.000000000000
         C            2.525576331500     0.951793966004    -0.280516028020    12.000000000000
         H           -2.123772668500     2.328856966004    -0.421176028020     1.007825032230
         H           -0.652476668500     2.014607966004     0.509490971980     1.007825032230
         H           -2.251959668500     1.878305966004     1.295040971980     1.007825032230
         H           -3.624986668500    -0.218439033996     0.850236971980     1.007825032230
         H           -3.065352668500    -1.238468033996    -0.499036028020     1.007825032230
         H           -3.687714668500     0.409725966004    -0.815333028020     1.007825032230
         H            3.672524331500    -0.832998033996     0.508250971980     1.007825032230
         H            3.219144331500     1.739096966004    -0.539473028020     1.007825032230

  Basis Set: AUG-CC-PVTZ
    Blend: AUG-CC-PVTZ
  Basis Set: (AUG-CC-PVTZ AUX)
    Blend: AUG-CC-PVTZ-JKFIT
	 Reference Energy          =    -490.6334620177970010 [Eh]
	 Singles Energy            =      -0.0000000000000000 [Eh]
	 Same-Spin Energy          =      -0.5063021002490655 [Eh]
	 Opposite-Spin Energy      =      -1.5497903845954257 [Eh]
	 Correlation Energy        =      -2.0560924848444913 [Eh]
	 Total Energy              =    -492.6895545026414993 [Eh]

	 ================> DF-SCS-MP2 Energies <==================
	-----------------------------------------------------------
	 SCS Same-Spin Scale       =       0.3333333333333333 [-]
	 SCS Opposite-Spin Scale   =       1.2000000000000000 [-]
	 SCS Same-Spin Energy      =      -0.1687673667496885 [Eh]
	 SCS Opposite-Spin Energy  =      -1.8597484615145108 [Eh]
	 SCS Correlation Energy    =      -2.0285158282641991 [Eh]
	 SCS Total Energy          =    -492.6619778460611769 [Eh]
	-----------------------------------------------------------

  Dipole Moment: [D]
     X:     0.1087      Y:     2.9481      Z:     0.8712     Total:     3.0760

*** Psi4 exiting successfully. Buy a developer a beer!
