                               Psi4 1.4a3.dev225

  ==> Input File <==

--------------------------------------------------------------------------
#psi4
#
memory 32 gb

molecule  {
0 1
  O        1.6580350    -0.9827140     0.3821500
  O       -0.8249020    -1.8470020    -0.1920140
  N       -1.7073370     0.2644950     0.0041840
  N        1.2225400     1.0581630    -0.4400630
  C       -0.6757910    -0.6248990    -0.0657590
  C       -1.6242400     1.6701930     0.3734340
  C       -3.0587270    -0.2617480    -0.1203800
  C        0.7172850    -0.0860290    -0.0289380
  C        2.8291846    -0.3427088     0.2259617
  C        2.5869190     0.9090560    -0.2781450
  H       -2.0624300     2.2861190    -0.4188050
  H       -0.5911340     1.9718700     0.5118620
  H       -2.1906170     1.8355680     1.2974120
  H       -3.5636440    -0.2611770     0.8526080
  H       -3.0040100    -1.2812060    -0.4966650
  H       -3.6263720     0.3669880    -0.8129620
  H        3.7338670    -0.8757360     0.5106220
  H        3.2804870     1.6963590    -0.5371020
units angstrom
no_reorient  #important for SAPT in psi4, default
symmetry c1  #important for SAPT in psi4, default
}

set PROPERTIES_ORIGIN ["COM"]
properties('MP2/aug-cc-pvtz', properties = ['dipole'])
--------------------------------------------------------------------------

    Molecular point group: c1
  Charge       = 0
  Multiplicity = 1
  Basis Set: AUG-CC-PVTZ
    Blend: AUG-CC-PVTZ
  Basis Set: (AUG-CC-PVTZ AUX)
    Blend: AUG-CC-PVTZ-JKFIT

    Orbital Energies [Eh]
    ---------------------

    Doubly Occupied:

       1A    -20.656630     2A    -20.527395     3A    -15.601597
       4A    -15.592650     5A    -11.373866     6A    -11.355146
       7A    -11.313605     8A    -11.276354     9A    -11.266285
      10A    -11.259195    11A     -1.506480    12A     -1.382374
      13A     -1.260190    14A     -1.243653    15A     -1.057363
      16A     -0.977054    17A     -0.958349    18A     -0.867519
      19A     -0.843671    20A     -0.783279    21A     -0.727323
      22A     -0.685189    23A     -0.669085    24A     -0.660058
      25A     -0.652989    26A     -0.622419    27A     -0.587743
      28A     -0.585424    29A     -0.567053    30A     -0.561890
      31A     -0.541791    32A     -0.535207    33A     -0.482010
      34A     -0.465992    35A     -0.441709    36A     -0.380338
      37A     -0.348878

  @DF-RHF Final Energy:  -490.63676390674686

   => Energetics <=

    Nuclear Repulsion Energy =            528.7128109086510221
    One-Electron Energy =               -1717.4636447436034814
    Two-Electron Energy =                 698.1140699282057085
    Total Energy =                       -490.6367639067468644
  Basis Set: (AUG-CC-PVTZ AUX)
    Blend: AUG-CC-PVTZ-RI
    Molecular point group: c1

    Geometry (in Angstrom), charge = 0, multiplicity = 1:

       Center              X                  Y                   Z               Mass
    ------------   -----------------  -----------------  -----------------  -----------------
         O            1.602728353572    -0.941376107765     0.388392283436    15.994914619570
         O           -0.880208646428    -1.805664107765    -0.185771716564    15.994914619570
         N           -1.762643646428     0.305832892235     0.010426283436    14.003074004430
         N            1.167233353572     1.099500892235    -0.433820716564    14.003074004430
         C           -0.731097646428    -0.583561107765    -0.059516716564    12.000000000000
         C           -1.679546646428     1.711530892235     0.379676283436    12.000000000000
         C           -3.114033646428    -0.220410107765    -0.114137716564    12.000000000000
         C            0.661978353572    -0.044691107765    -0.022695716564    12.000000000000
         C            2.773877953572    -0.301370907765     0.232203983436    12.000000000000
         C            2.531612353572     0.950393892235    -0.271902716564    12.000000000000
         H           -2.117736646428     2.327456892235    -0.412562716564     1.007825032230
         H           -0.646440646428     2.013207892235     0.518104283436     1.007825032230
         H           -2.245923646428     1.876905892235     1.303654283436     1.007825032230
         H           -3.618950646428    -0.219839107765     0.858850283436     1.007825032230
         H           -3.059316646428    -1.239868107765    -0.490422716564     1.007825032230
         H           -3.681678646428     0.408325892235    -0.806719716564     1.007825032230
         H            3.678560353572    -0.834398107765     0.516864283436     1.007825032230
         H            3.225180353572     1.737696892235    -0.530859716564     1.007825032230

  Basis Set: AUG-CC-PVTZ
    Blend: AUG-CC-PVTZ
  Basis Set: (AUG-CC-PVTZ AUX)
    Blend: AUG-CC-PVTZ-JKFIT
	 Reference Energy          =    -490.6367639067468644 [Eh]
	 Singles Energy            =      -0.0000000000000000 [Eh]
	 Same-Spin Energy          =      -0.5067149600873790 [Eh]
	 Opposite-Spin Energy      =      -1.5498599282774337 [Eh]
	 Correlation Energy        =      -2.0565748883648127 [Eh]
	 Total Energy              =    -492.6933387951116856 [Eh]

	 ================> DF-SCS-MP2 Energies <==================
	-----------------------------------------------------------
	 SCS Same-Spin Scale       =       0.3333333333333333 [-]
	 SCS Opposite-Spin Scale   =       1.2000000000000000 [-]
	 SCS Same-Spin Energy      =      -0.1689049866957930 [Eh]
	 SCS Opposite-Spin Energy  =      -1.8598319139329202 [Eh]
	 SCS Correlation Energy    =      -2.0287369006287133 [Eh]
	 SCS Total Energy          =    -492.6655008073755653 [Eh]
	-----------------------------------------------------------

  Dipole Moment: [D]
     X:     0.3691      Y:     2.7563      Z:     0.9619     Total:     2.9426

*** Psi4 exiting successfully. Buy a developer a beer!
