                               Psi4 1.4a3.dev225

  ==> Input File <==

--------------------------------------------------------------------------
#psi4
#
memory 32 gb

molecule  {
0 1
  O        1.6580350    -0.9827140     0.3821500
  O       -0.8249020    -1.8470020    -0.1920140
  N       -1.7073370     0.2644950     0.0041840
  N        1.2225400     1.0581630    -0.4400630
  C       -0.6001544    -0.6901125    -0.0708875
  C       -1.6242400     1.6701930     0.3734340
  C       -3.0587270    -0.2617480    -0.1203800
  C        0.7172850    -0.0860290    -0.0289380
  C        2.8466160    -0.3331830     0.2236370
  C        2.5869190     0.9090560    -0.2781450
  H       -2.0624300     2.2861190    -0.4188050
  H       -0.5911340     1.9718700     0.5118620
  H       -2.1906170     1.8355680     1.2974120
  H       -3.5636440    -0.2611770     0.8526080
  H       -3.0040100    -1.2812060    -0.4966650
  H       -3.6263720     0.3669880    -0.8129620
  H        3.7338670    -0.8757360     0.5106220
  H        3.2804870     1.6963590    -0.5371020
units angstrom
no_reorient  #important for SAPT in psi4, default
symmetry c1  #important for SAPT in psi4, default
}

set PROPERTIES_ORIGIN ["COM"]
properties('MP2/aug-cc-pvtz', properties = ['dipole'])
--------------------------------------------------------------------------

    Molecular point group: c1
  Charge       = 0
  Multiplicity = 1
  Basis Set: AUG-CC-PVTZ
    Blend: AUG-CC-PVTZ
  Basis Set: (AUG-CC-PVTZ AUX)
    Blend: AUG-CC-PVTZ-JKFIT

    Orbital Energies [Eh]
    ---------------------

    Doubly Occupied:

       1A    -20.658505     2A    -20.546083     3A    -15.599810
       4A    -15.581958     5A    -11.376501     6A    -11.358057
       7A    -11.318343     8A    -11.282563     9A    -11.254603
      10A    -11.249441    11A     -1.505760    12A     -1.419792
      13A     -1.256465    14A     -1.223662    15A     -1.069116
      16A     -0.964350    17A     -0.942153    18A     -0.872174
      19A     -0.844474    20A     -0.786304    21A     -0.718896
      22A     -0.690739    23A     -0.669818    24A     -0.662496
      25A     -0.641717    26A     -0.624497    27A     -0.596675
      28A     -0.593052    29A     -0.559240    30A     -0.556277
      31A     -0.548919    32A     -0.528448    33A     -0.487947
      34A     -0.469764    35A     -0.449381    36A     -0.369756
      37A     -0.353737

  @DF-RHF Final Energy:  -490.62524741033690

   => Energetics <=

    Nuclear Repulsion Energy =            528.4347023944070543
    One-Electron Energy =               -1716.8569498566882885
    Two-Electron Energy =                 697.7970000519442237
    Total Energy =                       -490.6252474103368968
  Basis Set: (AUG-CC-PVTZ AUX)
    Blend: AUG-CC-PVTZ-RI
    Molecular point group: c1

    Geometry (in Angstrom), charge = 0, multiplicity = 1:

       Center              X                  Y                   Z               Mass
    ------------   -----------------  -----------------  -----------------  -----------------
         O            1.594754432804    -0.936604872673     0.389030861962    15.994914619570
         O           -0.888182567196    -1.800892872673    -0.185133138038    15.994914619570
         N           -1.770617567196     0.310604127327     0.011064861962    14.003074004430
         N            1.159259432804     1.104272127327    -0.433182138038    14.003074004430
         C           -0.663434967196    -0.644003372673    -0.064006638038    12.000000000000
         C           -1.687520567196     1.716302127327     0.380314861962    12.000000000000
         C           -3.122007567196    -0.215638872673    -0.113499138038    12.000000000000
         C            0.654004432804    -0.039919872673    -0.022057138038    12.000000000000
         C            2.783335432804    -0.287073872673     0.230517861962    12.000000000000
         C            2.523638432804     0.955165127327    -0.271264138038    12.000000000000
         H           -2.125710567196     2.332228127327    -0.411924138038     1.007825032230
         H           -0.654414567196     2.017979127327     0.518742861962     1.007825032230
         H           -2.253897567196     1.881677127327     1.304292861962     1.007825032230
         H           -3.626924567196    -0.215067872673     0.859488861962     1.007825032230
         H           -3.067290567196    -1.235096872673    -0.489784138038     1.007825032230
         H           -3.689652567196     0.413097127327    -0.806081138038     1.007825032230
         H            3.670586432804    -0.829626872673     0.517502861962     1.007825032230
         H            3.217206432804     1.742468127327    -0.530221138038     1.007825032230

  Basis Set: AUG-CC-PVTZ
    Blend: AUG-CC-PVTZ
  Basis Set: (AUG-CC-PVTZ AUX)
    Blend: AUG-CC-PVTZ-JKFIT
	 Reference Energy          =    -490.6252474103368968 [Eh]
	 Singles Energy            =      -0.0000000000000000 [Eh]
	 Same-Spin Energy          =      -0.5067261204855253 [Eh]
	 Opposite-Spin Energy      =      -1.5501191523188722 [Eh]
	 Correlation Energy        =      -2.0568452728043978 [Eh]
	 Total Energy              =    -492.6820926831413203 [Eh]

	 ================> DF-SCS-MP2 Energies <==================
	-----------------------------------------------------------
	 SCS Same-Spin Scale       =       0.3333333333333333 [-]
	 SCS Opposite-Spin Scale   =       1.2000000000000000 [-]
	 SCS Same-Spin Energy      =      -0.1689087068285084 [Eh]
	 SCS Opposite-Spin Energy  =      -1.8601429827826466 [Eh]
	 SCS Correlation Energy    =      -2.0290516896111548 [Eh]
	 SCS Total Energy          =    -492.6542990999480480 [Eh]
	-----------------------------------------------------------

  Dipole Moment: [D]
     X:     1.2008      Y:     2.1647      Z:     0.8546     Total:     2.6188

*** Psi4 exiting successfully. Buy a developer a beer!
