                               Psi4 1.4a3.dev225

  ==> Input File <==

--------------------------------------------------------------------------
#psi4
#
memory 32 gb

molecule  {
0 1
  O        1.7243011    -0.9177072     0.3612900
  O       -0.8249020    -1.8470020    -0.1920140
  N       -1.7073370     0.2644950     0.0041840
  N        1.2225400     1.0581630    -0.4400630
  C       -0.6757910    -0.6248990    -0.0657590
  C       -1.6242400     1.6701930     0.3734340
  C       -3.0587270    -0.2617480    -0.1203800
  C        0.7172850    -0.0860290    -0.0289380
  C        2.8466160    -0.3331830     0.2236370
  C        2.5869190     0.9090560    -0.2781450
  H       -2.0624300     2.2861190    -0.4188050
  H       -0.5911340     1.9718700     0.5118620
  H       -2.1906170     1.8355680     1.2974120
  H       -3.5636440    -0.2611770     0.8526080
  H       -3.0040100    -1.2812060    -0.4966650
  H       -3.6263720     0.3669880    -0.8129620
  H        3.7338670    -0.8757360     0.5106220
  H        3.2804870     1.6963590    -0.5371020
units angstrom
no_reorient  #important for SAPT in psi4, default
symmetry c1  #important for SAPT in psi4, default
}

set PROPERTIES_ORIGIN ["COM"]
properties('MP2/aug-cc-pvtz', properties = ['dipole'])
--------------------------------------------------------------------------

    Molecular point group: c1
  Charge       = 0
  Multiplicity = 1
  Basis Set: AUG-CC-PVTZ
    Blend: AUG-CC-PVTZ
  Basis Set: (AUG-CC-PVTZ AUX)
    Blend: AUG-CC-PVTZ-JKFIT

    Orbital Energies [Eh]
    ---------------------

    Doubly Occupied:

       1A    -20.655031     2A    -20.527939     3A    -15.602380
       4A    -15.592029     5A    -11.376454     6A    -11.351151
       7A    -11.308884     8A    -11.267066     9A    -11.266390
      10A    -11.259828    11A     -1.532477    12A     -1.383878
      13A     -1.259852    14A     -1.242489    15A     -1.064208
      16A     -0.977854    17A     -0.959863    18A     -0.873600
      19A     -0.846082    20A     -0.788455    21A     -0.731441
      22A     -0.697824    23A     -0.683074    24A     -0.661284
      25A     -0.656118    26A     -0.620712    27A     -0.587304
      28A     -0.573290    29A     -0.568147    30A     -0.562234
      31A     -0.543435    32A     -0.536486    33A     -0.481288
      34A     -0.463173    35A     -0.442800    36A     -0.381073
      37A     -0.345954

  @DF-RHF Final Energy:  -490.63273175008811

   => Energetics <=

    Nuclear Repulsion Energy =            529.8081972767674870
    One-Electron Energy =               -1719.5387581126776695
    Two-Electron Energy =                 699.0978290858220134
    Total Energy =                       -490.6327317500881691
  Basis Set: (AUG-CC-PVTZ AUX)
    Blend: AUG-CC-PVTZ-RI
    Molecular point group: c1

    Geometry (in Angstrom), charge = 0, multiplicity = 1:

       Center              X                  Y                   Z               Mass
    ------------   -----------------  -----------------  -----------------  -----------------
         O            1.659933263360    -0.884609344443     0.370113705619    15.994914619570
         O           -0.889269836640    -1.813904144443    -0.183190294381    15.994914619570
         N           -1.771704836640     0.297592855557     0.013007705619    14.003074004430
         N            1.158172163360     1.091260855557    -0.431239294381    14.003074004430
         C           -0.740158836640    -0.591801144443    -0.056935294381    12.000000000000
         C           -1.688607836640     1.703290855557     0.382257705619    12.000000000000
         C           -3.123094836640    -0.228650144443    -0.111556294381    12.000000000000
         C            0.652917163360    -0.052931144443    -0.020114294381    12.000000000000
         C            2.782248163360    -0.300085144443     0.232460705619    12.000000000000
         C            2.522551163360     0.942153855557    -0.269321294381    12.000000000000
         H           -2.126797836640     2.319216855557    -0.409981294381     1.007825032230
         H           -0.655501836640     2.004967855557     0.520685705619     1.007825032230
         H           -2.254984836640     1.868665855557     1.306235705619     1.007825032230
         H           -3.628011836640    -0.228079144443     0.861431705619     1.007825032230
         H           -3.068377836640    -1.248108144443    -0.487841294381     1.007825032230
         H           -3.690739836640     0.400085855557    -0.804138294381     1.007825032230
         H            3.669499163360    -0.842638144443     0.519445705619     1.007825032230
         H            3.216119163360     1.729456855557    -0.528278294381     1.007825032230

  Basis Set: AUG-CC-PVTZ
    Blend: AUG-CC-PVTZ
  Basis Set: (AUG-CC-PVTZ AUX)
    Blend: AUG-CC-PVTZ-JKFIT
	 Reference Energy          =    -490.6327317500881122 [Eh]
	 Singles Energy            =      -0.0000000000000000 [Eh]
	 Same-Spin Energy          =      -0.5065147470362430 [Eh]
	 Opposite-Spin Energy      =      -1.5471664622061596 [Eh]
	 Correlation Energy        =      -2.0536812092424026 [Eh]
	 Total Energy              =    -492.6864129593305393 [Eh]

	 ================> DF-SCS-MP2 Energies <==================
	-----------------------------------------------------------
	 SCS Same-Spin Scale       =       0.3333333333333333 [-]
	 SCS Opposite-Spin Scale   =       1.2000000000000000 [-]
	 SCS Same-Spin Energy      =      -0.1688382490120810 [Eh]
	 SCS Opposite-Spin Energy  =      -1.8565997546473914 [Eh]
	 SCS Correlation Energy    =      -2.0254380036594721 [Eh]
	 SCS Total Energy          =    -492.6581697537475861 [Eh]
	-----------------------------------------------------------

  Dipole Moment: [D]
     X:     0.2758      Y:     2.5515      Z:     1.0409     Total:     2.7694

*** Psi4 exiting successfully. Buy a developer a beer!
