                               Psi4 1.4a3.dev225

  ==> Input File <==

--------------------------------------------------------------------------
#psi4
#
memory 32 gb

molecule  {
0 1
  O        1.6580350    -0.9827140     0.3821500
  O       -0.8249020    -1.8470020    -0.1920140
  N       -1.7073370     0.2644950     0.0041840
  N        1.2225400     1.0581630    -0.4400630
  C       -0.6757910    -0.6248990    -0.0657590
  C       -1.6128237     1.8633152     0.4241635
  C       -3.0587270    -0.2617480    -0.1203800
  C        0.7172850    -0.0860290    -0.0289380
  C        2.8466160    -0.3331830     0.2236370
  C        2.5869190     0.9090560    -0.2781450
  H       -2.0624300     2.2861190    -0.4188050
  H       -0.5911340     1.9718700     0.5118620
  H       -2.1906170     1.8355680     1.2974120
  H       -3.5636440    -0.2611770     0.8526080
  H       -3.0040100    -1.2812060    -0.4966650
  H       -3.6263720     0.3669880    -0.8129620
  H        3.7338670    -0.8757360     0.5106220
  H        3.2804870     1.6963590    -0.5371020
units angstrom
no_reorient  #important for SAPT in psi4, default
symmetry c1  #important for SAPT in psi4, default
}

set PROPERTIES_ORIGIN ["COM"]
properties('MP2/aug-cc-pvtz', properties = ['dipole'])
--------------------------------------------------------------------------

    Molecular point group: c1
  Charge       = 0
  Multiplicity = 1
  Basis Set: AUG-CC-PVTZ
    Blend: AUG-CC-PVTZ
  Basis Set: (AUG-CC-PVTZ AUX)
    Blend: AUG-CC-PVTZ-JKFIT

    Orbital Energies [Eh]
    ---------------------

    Doubly Occupied:

       1A    -20.651294     2A    -20.519401     3A    -15.592899
       4A    -15.589874     5A    -11.365644     6A    -11.353914
       7A    -11.310353     8A    -11.277579     9A    -11.275710
      10A    -11.254571    11A     -1.496217    12A     -1.372892
      13A     -1.248824    14A     -1.218305    15A     -1.054357
      16A     -0.982095    17A     -0.954615    18A     -0.863078
      19A     -0.840779    20A     -0.777302    21A     -0.708452
      22A     -0.679572    23A     -0.661952    24A     -0.653662
      25A     -0.647432    26A     -0.620944    27A     -0.606043
      28A     -0.588774    29A     -0.585282    30A     -0.565184
      31A     -0.531682    32A     -0.507828    33A     -0.481631
      34A     -0.465195    35A     -0.434587    36A     -0.376011
      37A     -0.349191

  @DF-RHF Final Energy:  -490.60964341760030

   => Energetics <=

    Nuclear Repulsion Energy =            524.7834054583011039
    One-Electron Energy =               -1709.8598426245303017
    Two-Electron Energy =                 694.4667937486289020
    Total Energy =                       -490.6096434176002958
  Basis Set: (AUG-CC-PVTZ AUX)
    Blend: AUG-CC-PVTZ-RI
    Molecular point group: c1

    Geometry (in Angstrom), charge = 0, multiplicity = 1:

       Center              X                  Y                   Z               Mass
    ------------   -----------------  -----------------  -----------------  -----------------
         O            1.600256727727    -0.958738671653     0.384245035832    15.994914619570
         O           -0.882680272273    -1.823026671653    -0.189918964168    15.994914619570
         N           -1.765115272273     0.288470328347     0.006279035832    14.003074004430
         N            1.164761727727     1.082138328347    -0.437967964168    14.003074004430
         C           -0.733569272273    -0.600923671653    -0.063663964168    12.000000000000
         C           -1.670601972273     1.887290528347     0.426258535832    12.000000000000
         C           -3.116505272273    -0.237772671653    -0.118284964168    12.000000000000
         C            0.659506727727    -0.062053671653    -0.026842964168    12.000000000000
         C            2.788837727727    -0.309207671653     0.225732035832    12.000000000000
         C            2.529140727727     0.933031328347    -0.276049964168    12.000000000000
         H           -2.120208272273     2.310094328347    -0.416709964168     1.007825032230
         H           -0.648912272273     1.995845328347     0.513957035832     1.007825032230
         H           -2.248395272273     1.859543328347     1.299507035832     1.007825032230
         H           -3.621422272273    -0.237201671653     0.854703035832     1.007825032230
         H           -3.061788272273    -1.257230671653    -0.494569964168     1.007825032230
         H           -3.684150272273     0.390963328347    -0.810866964168     1.007825032230
         H            3.676088727727    -0.851760671653     0.512717035832     1.007825032230
         H            3.222708727727     1.720334328347    -0.535006964168     1.007825032230

  Basis Set: AUG-CC-PVTZ
    Blend: AUG-CC-PVTZ
  Basis Set: (AUG-CC-PVTZ AUX)
    Blend: AUG-CC-PVTZ-JKFIT
	 Reference Energy          =    -490.6096434176002958 [Eh]
	 Singles Energy            =      -0.0000000000000000 [Eh]
	 Same-Spin Energy          =      -0.5062852523075524 [Eh]
	 Opposite-Spin Energy      =      -1.5517621254954697 [Eh]
	 Correlation Energy        =      -2.0580473778030219 [Eh]
	 Total Energy              =    -492.6676907954033027 [Eh]

	 ================> DF-SCS-MP2 Energies <==================
	-----------------------------------------------------------
	 SCS Same-Spin Scale       =       0.3333333333333333 [-]
	 SCS Opposite-Spin Scale   =       1.2000000000000000 [-]
	 SCS Same-Spin Energy      =      -0.1687617507691841 [Eh]
	 SCS Opposite-Spin Energy  =      -1.8621145505945635 [Eh]
	 SCS Correlation Energy    =      -2.0308763013637479 [Eh]
	 SCS Total Energy          =    -492.6405197189640717 [Eh]
	-----------------------------------------------------------

  Dipole Moment: [D]
     X:     0.2035      Y:     3.2532      Z:     1.0841     Total:     3.4352

*** Psi4 exiting successfully. Buy a developer a beer!
