                               Psi4 1.4a3.dev225

  ==> Input File <==

--------------------------------------------------------------------------
#psi4
#
memory 32 gb

molecule  {
0 1
  O        1.6580350    -0.9827140     0.3821500
  O       -0.8249020    -1.8470020    -0.1920140
  N       -1.7073370     0.2644950     0.0041840
  N        1.2225400     1.0581630    -0.4400630
  C       -0.6379727    -0.6575058    -0.0683232
  C       -1.6242400     1.6701930     0.3734340
  C       -3.0587270    -0.2617480    -0.1203800
  C        0.7172850    -0.0860290    -0.0289380
  C        2.8466160    -0.3331830     0.2236370
  C        2.5869190     0.9090560    -0.2781450
  H       -2.0624300     2.2861190    -0.4188050
  H       -0.5911340     1.9718700     0.5118620
  H       -2.1906170     1.8355680     1.2974120
  H       -3.5636440    -0.2611770     0.8526080
  H       -3.0040100    -1.2812060    -0.4966650
  H       -3.6263720     0.3669880    -0.8129620
  H        3.7338670    -0.8757360     0.5106220
  H        3.2804870     1.6963590    -0.5371020
units angstrom
no_reorient  #important for SAPT in psi4, default
symmetry c1  #important for SAPT in psi4, default
}

set PROPERTIES_ORIGIN ["COM"]
properties('MP2/aug-cc-pvtz', properties = ['dipole'])
--------------------------------------------------------------------------

    Molecular point group: c1
  Charge       = 0
  Multiplicity = 1
  Basis Set: AUG-CC-PVTZ
    Blend: AUG-CC-PVTZ
  Basis Set: (AUG-CC-PVTZ AUX)
    Blend: AUG-CC-PVTZ-JKFIT

    Orbital Energies [Eh]
    ---------------------

    Doubly Occupied:

       1A    -20.656038     2A    -20.537125     3A    -15.595761
       4A    -15.592166     5A    -11.375441     6A    -11.357031
       7A    -11.315346     8A    -11.279806     9A    -11.260525
      10A    -11.254366    11A     -1.501989    12A     -1.400194
      13A     -1.255749    14A     -1.235925    15A     -1.063222
      16A     -0.970696    17A     -0.948942    18A     -0.869951
      19A     -0.844651    20A     -0.783607    21A     -0.722360
      22A     -0.686346    23A     -0.667664    24A     -0.660398
      25A     -0.647337    26A     -0.622659    27A     -0.593547
      28A     -0.590480    29A     -0.562309    30A     -0.557127
      31A     -0.545512    32A     -0.533433    33A     -0.484972
      34A     -0.467443    35A     -0.447256    36A     -0.374862
      37A     -0.353254

  @DF-RHF Final Energy:  -490.63395155218950

   => Energetics <=

    Nuclear Repulsion Energy =            528.3680984238009160
    One-Electron Energy =               -1716.7731152192889112
    Two-Electron Energy =                 697.7710652432983807
    Total Energy =                       -490.6339515521895009
  Basis Set: (AUG-CC-PVTZ AUX)
    Blend: AUG-CC-PVTZ-RI
    Molecular point group: c1

    Geometry (in Angstrom), charge = 0, multiplicity = 1:

       Center              X                  Y                   Z               Mass
    ------------   -----------------  -----------------  -----------------  -----------------
         O            1.597994645635    -0.939398563762     0.388811156746    15.994914619570
         O           -0.884942354365    -1.803686563762    -0.185352843254    15.994914619570
         N           -1.767377354365     0.307810436238     0.010845156746    14.003074004430
         N            1.162499645635     1.101478436238    -0.433401843254    14.003074004430
         C           -0.698013054365    -0.614190363762    -0.061662043254    12.000000000000
         C           -1.684280354365     1.713508436238     0.380095156746    12.000000000000
         C           -3.118767354365    -0.218432563762    -0.113718843254    12.000000000000
         C            0.657244645635    -0.042713563762    -0.022276843254    12.000000000000
         C            2.786575645635    -0.289867563762     0.230298156746    12.000000000000
         C            2.526878645635     0.952371436238    -0.271483843254    12.000000000000
         H           -2.122470354365     2.329434436238    -0.412143843254     1.007825032230
         H           -0.651174354365     2.015185436238     0.518523156746     1.007825032230
         H           -2.250657354365     1.878883436238     1.304073156746     1.007825032230
         H           -3.623684354365    -0.217861563762     0.859269156746     1.007825032230
         H           -3.064050354365    -1.237890563762    -0.490003843254     1.007825032230
         H           -3.686412354365     0.410303436238    -0.806300843254     1.007825032230
         H            3.673826645635    -0.832420563762     0.517283156746     1.007825032230
         H            3.220446645635     1.739674436238    -0.530440843254     1.007825032230

  Basis Set: AUG-CC-PVTZ
    Blend: AUG-CC-PVTZ
  Basis Set: (AUG-CC-PVTZ AUX)
    Blend: AUG-CC-PVTZ-JKFIT
	 Reference Energy          =    -490.6339515521895009 [Eh]
	 Singles Energy            =      -0.0000000000000000 [Eh]
	 Same-Spin Energy          =      -0.5065918311692446 [Eh]
	 Opposite-Spin Energy      =      -1.5499954372878981 [Eh]
	 Correlation Energy        =      -2.0565872684571427 [Eh]
	 Total Energy              =    -492.6905388206466228 [Eh]

	 ================> DF-SCS-MP2 Energies <==================
	-----------------------------------------------------------
	 SCS Same-Spin Scale       =       0.3333333333333333 [-]
	 SCS Opposite-Spin Scale   =       1.2000000000000000 [-]
	 SCS Same-Spin Energy      =      -0.1688639437230815 [Eh]
	 SCS Opposite-Spin Energy  =      -1.8599945247454777 [Eh]
	 SCS Correlation Energy    =      -2.0288584684685591 [Eh]
	 SCS Total Energy          =    -492.6628100206580712 [Eh]
	-----------------------------------------------------------

  Dipole Moment: [D]
     X:     0.7784      Y:     2.4715      Z:     0.9055     Total:     2.7448

*** Psi4 exiting successfully. Buy a developer a beer!
