                               Psi4 1.4a3.dev225

  ==> Input File <==

--------------------------------------------------------------------------
#psi4
#
memory 32 gb

molecule  {
0 1
  O        1.6818331    -1.0204899     0.3986559
  O       -0.8249020    -1.8470020    -0.1920140
  N       -1.7073370     0.2644950     0.0041840
  N        1.2225400     1.0581630    -0.4400630
  C       -0.6757910    -0.6248990    -0.0657590
  C       -1.6242400     1.6701930     0.3734340
  C       -3.0587270    -0.2617480    -0.1203800
  C        0.7172850    -0.0860290    -0.0289380
  C        2.8466160    -0.3331830     0.2236370
  C        2.5869190     0.9090560    -0.2781450
  H       -2.0624300     2.2861190    -0.4188050
  H       -0.5911340     1.9718700     0.5118620
  H       -2.1906170     1.8355680     1.2974120
  H       -3.5636440    -0.2611770     0.8526080
  H       -3.0040100    -1.2812060    -0.4966650
  H       -3.6263720     0.3669880    -0.8129620
  H        3.7338670    -0.8757360     0.5106220
  H        3.2804870     1.6963590    -0.5371020
units angstrom
no_reorient  #important for SAPT in psi4, default
symmetry c1  #important for SAPT in psi4, default
}

set PROPERTIES_ORIGIN ["COM"]
properties('MP2/aug-cc-pvtz', properties = ['dipole'])
--------------------------------------------------------------------------

    Molecular point group: c1
  Charge       = 0
  Multiplicity = 1
  Basis Set: AUG-CC-PVTZ
    Blend: AUG-CC-PVTZ
  Basis Set: (AUG-CC-PVTZ AUX)
    Blend: AUG-CC-PVTZ-JKFIT

    Orbital Energies [Eh]
    ---------------------

    Doubly Occupied:

       1A    -20.652979     2A    -20.527654     3A    -15.602180
       4A    -15.598421     5A    -11.374711     6A    -11.359940
       7A    -11.313879     8A    -11.277044     9A    -11.267052
      10A    -11.259604    11A     -1.482932    12A     -1.382314
      13A     -1.261761    14A     -1.245880    15A     -1.052482
      16A     -0.977490    17A     -0.959125    18A     -0.864091
      19A     -0.842749    20A     -0.777800    21A     -0.726366
      22A     -0.677128    23A     -0.665566    24A     -0.658096
      25A     -0.649303    26A     -0.619871    27A     -0.588765
      28A     -0.585567    29A     -0.567708    30A     -0.562437
      31A     -0.542322    32A     -0.535323    33A     -0.485704
      34A     -0.469132    35A     -0.442045    36A     -0.380700
      37A     -0.349618

  @DF-RHF Final Energy:  -490.63149143398482

   => Energetics <=

    Nuclear Repulsion Energy =            526.9161349314041445
    One-Electron Energy =               -1713.9237726436763296
    Two-Electron Energy =                 696.3761462782874787
    Total Energy =                       -490.6314914339848201
  Basis Set: (AUG-CC-PVTZ AUX)
    Blend: AUG-CC-PVTZ-RI
    Molecular point group: c1

    Geometry (in Angstrom), charge = 0, multiplicity = 1:

       Center              X                  Y                   Z               Mass
    ------------   -----------------  -----------------  -----------------  -----------------
         O            1.622315177204    -0.975654094935     0.403212359794    15.994914619570
         O           -0.884419922796    -1.802166194935    -0.187457540206    15.994914619570
         N           -1.766854922796     0.309330805065     0.008740459794    14.003074004430
         N            1.163022077204     1.102998805065    -0.435506540206    14.003074004430
         C           -0.735308922796    -0.580063194935    -0.061202540206    12.000000000000
         C           -1.683757922796     1.715028805065     0.377990459794    12.000000000000
         C           -3.118244922796    -0.216912194935    -0.115823540206    12.000000000000
         C            0.657767077204    -0.041193194935    -0.024381540206    12.000000000000
         C            2.787098077204    -0.288347194935     0.228193459794    12.000000000000
         C            2.527401077204     0.953891805065    -0.273588540206    12.000000000000
         H           -2.121947922796     2.330954805065    -0.414248540206     1.007825032230
         H           -0.650651922796     2.016705805065     0.516418459794     1.007825032230
         H           -2.250134922796     1.880403805065     1.301968459794     1.007825032230
         H           -3.623161922796    -0.216341194935     0.857164459794     1.007825032230
         H           -3.063527922796    -1.236370194935    -0.492108540206     1.007825032230
         H           -3.685889922796     0.411823805065    -0.808405540206     1.007825032230
         H            3.674349077204    -0.830900194935     0.515178459794     1.007825032230
         H            3.220969077204     1.741194805065    -0.532545540206     1.007825032230

  Basis Set: AUG-CC-PVTZ
    Blend: AUG-CC-PVTZ
  Basis Set: (AUG-CC-PVTZ AUX)
    Blend: AUG-CC-PVTZ-JKFIT
	 Reference Energy          =    -490.6314914339848201 [Eh]
	 Singles Energy            =      -0.0000000000000000 [Eh]
	 Same-Spin Energy          =      -0.5071960124469850 [Eh]
	 Opposite-Spin Energy      =      -1.5522583347923664 [Eh]
	 Correlation Energy        =      -2.0594543472393516 [Eh]
	 Total Energy              =    -492.6909457812241726 [Eh]

	 ================> DF-SCS-MP2 Energies <==================
	-----------------------------------------------------------
	 SCS Same-Spin Scale       =       0.3333333333333333 [-]
	 SCS Opposite-Spin Scale   =       1.2000000000000000 [-]
	 SCS Same-Spin Energy      =      -0.1690653374823283 [Eh]
	 SCS Opposite-Spin Energy  =      -1.8627100017508396 [Eh]
	 SCS Correlation Energy    =      -2.0317753392331679 [Eh]
	 SCS Total Energy          =    -492.6632667732179698 [Eh]
	-----------------------------------------------------------

  Dipole Moment: [D]
     X:     0.3025      Y:     2.8830      Z:     0.9026     Total:     3.0361

*** Psi4 exiting successfully. Buy a developer a beer!
