                               Psi4 1.4a3.dev225

  ==> Input File <==

--------------------------------------------------------------------------
#psi4
#
memory 32 gb

molecule  {
0 1
  O        1.6580350    -0.9827140     0.3821500
  O       -0.8249020    -1.8470020    -0.1920140
  N       -1.7073370     0.2644950     0.0041840
  N        1.2225400     1.0581630    -0.4400630
  C       -0.6757910    -0.6248990    -0.0657590
  C       -1.6242400     1.6701930     0.3734340
  C       -3.0587270    -0.2617480    -0.1203800
  C        0.7172850    -0.0860290    -0.0289380
  C        2.8466160    -0.3331830     0.2236370
  C        2.5869190     0.9090560    -0.2781450
  H       -2.0624300     2.2861190    -0.4188050
  H       -0.5911340     1.9718700     0.5118620
  H       -2.1906170     1.8355680     1.2974120
  H       -3.5636440    -0.2611770     0.8526080
  H       -3.0040100    -1.2812060    -0.4966650
  H       -3.6263720     0.3669880    -0.8129620
  H        3.7338670    -0.8757360     0.5106220
  H        3.4088407     1.8420596    -0.5850253
units angstrom
no_reorient  #important for SAPT in psi4, default
symmetry c1  #important for SAPT in psi4, default
}

set PROPERTIES_ORIGIN ["COM"]
properties('MP2/aug-cc-pvtz', properties = ['dipole'])
--------------------------------------------------------------------------

    Molecular point group: c1
  Charge       = 0
  Multiplicity = 1
  Basis Set: AUG-CC-PVTZ
    Blend: AUG-CC-PVTZ
  Basis Set: (AUG-CC-PVTZ AUX)
    Blend: AUG-CC-PVTZ-JKFIT

    Orbital Energies [Eh]
    ---------------------

    Doubly Occupied:

       1A    -20.654850     2A    -20.528430     3A    -15.602431
       4A    -15.593822     5A    -11.374883     6A    -11.357788
       7A    -11.313695     8A    -11.296967     9A    -11.266800
      10A    -11.259722    11A     -1.499719    12A     -1.383054
      13A     -1.260633    14A     -1.243588    15A     -1.056014
      16A     -0.977597    17A     -0.959067    18A     -0.862427
      19A     -0.837297    20A     -0.774143    21A     -0.726958
      22A     -0.682675    23A     -0.666240    24A     -0.659589
      25A     -0.652265    26A     -0.607134    27A     -0.586250
      28A     -0.569886    29A     -0.563318    30A     -0.562221
      31A     -0.542112    32A     -0.535264    33A     -0.481133
      34A     -0.466351    35A     -0.442484    36A     -0.380961
      37A     -0.351952

  @DF-RHF Final Energy:  -490.61362192281018

   => Energetics <=

    Nuclear Repulsion Energy =            527.3889921626825981
    One-Electron Energy =               -1714.8457938528667910
    Two-Electron Energy =                 696.8431797673739538
    Total Energy =                       -490.6136219228102391
  Basis Set: (AUG-CC-PVTZ AUX)
    Blend: AUG-CC-PVTZ-RI
    Molecular point group: c1

    Geometry (in Angstrom), charge = 0, multiplicity = 1:

       Center              X                  Y                   Z               Mass
    ------------   -----------------  -----------------  -----------------  -----------------
         O            1.600311258683    -0.943240686976     0.388936303679    15.994914619570
         O           -0.882625741317    -1.807528686976    -0.185227696321    15.994914619570
         N           -1.765060741317     0.303968313024     0.010970303679    14.003074004430
         N            1.164816258683     1.097636313024    -0.433276696321    14.003074004430
         C           -0.733514741317    -0.585425686976    -0.058972696321    12.000000000000
         C           -1.681963741317     1.709666313024     0.380220303679    12.000000000000
         C           -3.116450741317    -0.222274686976    -0.113593696321    12.000000000000
         C            0.659561258683    -0.046555686976    -0.022151696321    12.000000000000
         C            2.788892258683    -0.293709686976     0.230423303679    12.000000000000
         C            2.529195258683     0.948529313024    -0.271358696321    12.000000000000
         H           -2.120153741317     2.325592313024    -0.412018696321     1.007825032230
         H           -0.648857741317     2.011343313024     0.518648303679     1.007825032230
         H           -2.248340741317     1.875041313024     1.304198303679     1.007825032230
         H           -3.621367741317    -0.221703686976     0.859394303679     1.007825032230
         H           -3.061733741317    -1.241732686976    -0.489878696321     1.007825032230
         H           -3.684095741317     0.406461313024    -0.806175696321     1.007825032230
         H            3.676143258683    -0.836262686976     0.517408303679     1.007825032230
         H            3.351116958683     1.881532913024    -0.578238996321     1.007825032230

  Basis Set: AUG-CC-PVTZ
    Blend: AUG-CC-PVTZ
  Basis Set: (AUG-CC-PVTZ AUX)
    Blend: AUG-CC-PVTZ-JKFIT
	 Reference Energy          =    -490.6136219228101822 [Eh]
	 Singles Energy            =      -0.0000000000000000 [Eh]
	 Same-Spin Energy          =      -0.5071062084749055 [Eh]
	 Opposite-Spin Energy      =      -1.5521928192337406 [Eh]
	 Correlation Energy        =      -2.0592990277086463 [Eh]
	 Total Energy              =    -492.6729209505188010 [Eh]

	 ================> DF-SCS-MP2 Energies <==================
	-----------------------------------------------------------
	 SCS Same-Spin Scale       =       0.3333333333333333 [-]
	 SCS Opposite-Spin Scale   =       1.2000000000000000 [-]
	 SCS Same-Spin Energy      =      -0.1690354028249685 [Eh]
	 SCS Opposite-Spin Energy  =      -1.8626313830804886 [Eh]
	 SCS Correlation Energy    =      -2.0316667859054571 [Eh]
	 SCS Total Energy          =    -492.6452887087156114 [Eh]
	-----------------------------------------------------------

  Dipole Moment: [D]
     X:     0.3275      Y:     2.7855      Z:     0.9477     Total:     2.9604

*** Psi4 exiting successfully. Buy a developer a beer!
