                               Psi4 1.4a3.dev225

  ==> Input File <==

--------------------------------------------------------------------------
#psi4
#
memory 32 gb

molecule  {
0 1
  O        1.6580350    -0.9827140     0.3821500
  O       -0.8249020    -1.8470020    -0.1920140
  N       -1.7073370     0.2644950     0.0041840
  N        1.2225400     1.0581630    -0.4400630
  C       -0.6757910    -0.6248990    -0.0657590
  C       -1.6242400     1.6701930     0.3734340
  C       -3.0587270    -0.2617480    -0.1203800
  C        0.7172850    -0.0860290    -0.0289380
  C        2.8466160    -0.3331830     0.2236370
  C        2.5869190     0.9090560    -0.2781450
  H       -2.0624300     2.2861190    -0.4188050
  H       -0.5911340     1.9718700     0.5118620
  H       -2.1906170     1.8355680     1.2974120
  H       -3.6097048    -0.2611249     0.9413683
  H       -3.0040100    -1.2812060    -0.4966650
  H       -3.6263720     0.3669880    -0.8129620
  H        3.7338670    -0.8757360     0.5106220
  H        3.2804870     1.6963590    -0.5371020
units angstrom
no_reorient  #important for SAPT in psi4, default
symmetry c1  #important for SAPT in psi4, default
}

set PROPERTIES_ORIGIN ["COM"]
properties('MP2/aug-cc-pvtz', properties = ['dipole'])
--------------------------------------------------------------------------

    Molecular point group: c1
  Charge       = 0
  Multiplicity = 1
  Basis Set: AUG-CC-PVTZ
    Blend: AUG-CC-PVTZ
  Basis Set: (AUG-CC-PVTZ AUX)
    Blend: AUG-CC-PVTZ-JKFIT

    Orbital Energies [Eh]
    ---------------------

    Doubly Occupied:

       1A    -20.654104     2A    -20.528814     3A    -15.603576
       4A    -15.592325     5A    -11.375097     6A    -11.356859
       7A    -11.312858     8A    -11.277521     9A    -11.271149
      10A    -11.266674    11A     -1.498948    12A     -1.383359
      13A     -1.260583    14A     -1.243273    15A     -1.058021
      16A     -0.974669    17A     -0.957262    18A     -0.865156
      19A     -0.843233    20A     -0.780770    21A     -0.727559
      22A     -0.682812    23A     -0.666382    24A     -0.661110
      25A     -0.648026    26A     -0.622557    27A     -0.588633
      28A     -0.585728    29A     -0.567394    30A     -0.554988
      31A     -0.542741    32A     -0.528396    33A     -0.482407
      34A     -0.465582    35A     -0.442810    36A     -0.380046
      37A     -0.351553

  @DF-RHF Final Energy:  -490.63041401819902

   => Energetics <=

    Nuclear Repulsion Energy =            527.8974017797506804
    One-Electron Energy =               -1715.8496835236253446
    Two-Electron Energy =                 697.3218677256755882
    Total Energy =                       -490.6304140181990761
  Basis Set: (AUG-CC-PVTZ AUX)
    Blend: AUG-CC-PVTZ-RI
    Molecular point group: c1

    Geometry (in Angstrom), charge = 0, multiplicity = 1:

       Center              X                  Y                   Z               Mass
    ------------   -----------------  -----------------  -----------------  -----------------
         O            1.601566299983    -0.942192638318     0.387952764105    15.994914619570
         O           -0.881370700017    -1.806480638318    -0.186211235895    15.994914619570
         N           -1.763805700017     0.305016361682     0.009986764105    14.003074004430
         N            1.166071299983     1.098684361682    -0.434260235895    14.003074004430
         C           -0.732259700017    -0.584377638318    -0.059956235895    12.000000000000
         C           -1.680708700017     1.710714361682     0.379236764105    12.000000000000
         C           -3.115195700017    -0.221226638318    -0.114577235895    12.000000000000
         C            0.660816299983    -0.045507638318    -0.023135235895    12.000000000000
         C            2.790147299983    -0.292661638318     0.229439764105    12.000000000000
         C            2.530450299983     0.949577361682    -0.272342235895    12.000000000000
         H           -2.118898700017     2.326640361682    -0.413002235895     1.007825032230
         H           -0.647602700017     2.012391361682     0.517664764105     1.007825032230
         H           -2.247085700017     1.876089361682     1.303214764105     1.007825032230
         H           -3.666173500017    -0.220603538318     0.947171064105     1.007825032230
         H           -3.060478700017    -1.240684638318    -0.490862235895     1.007825032230
         H           -3.682840700017     0.407509361682    -0.807159235895     1.007825032230
         H            3.677398299983    -0.835214638318     0.516424764105     1.007825032230
         H            3.224018299983     1.736880361682    -0.531299235895     1.007825032230

  Basis Set: AUG-CC-PVTZ
    Blend: AUG-CC-PVTZ
  Basis Set: (AUG-CC-PVTZ AUX)
    Blend: AUG-CC-PVTZ-JKFIT
	 Reference Energy          =    -490.6304140181990192 [Eh]
	 Singles Energy            =      -0.0000000000000000 [Eh]
	 Same-Spin Energy          =      -0.5066212652573869 [Eh]
	 Opposite-Spin Energy      =      -1.5508053238569397 [Eh]
	 Correlation Energy        =      -2.0574265891143266 [Eh]
	 Total Energy              =    -492.6878406073133192 [Eh]

	 ================> DF-SCS-MP2 Energies <==================
	-----------------------------------------------------------
	 SCS Same-Spin Scale       =       0.3333333333333333 [-]
	 SCS Opposite-Spin Scale   =       1.2000000000000000 [-]
	 SCS Same-Spin Energy      =      -0.1688737550857956 [Eh]
	 SCS Opposite-Spin Energy  =      -1.8609663886283276 [Eh]
	 SCS Correlation Energy    =      -2.0298401437141234 [Eh]
	 SCS Total Energy          =    -492.6602541619131443 [Eh]
	-----------------------------------------------------------

  Dipole Moment: [D]
     X:     0.4548      Y:     2.7734      Z:     0.9018     Total:     2.9516

*** Psi4 exiting successfully. Buy a developer a beer!
