                               Psi4 1.4a3.dev225

  ==> Input File <==

--------------------------------------------------------------------------
#psi4
#
memory 32 gb

molecule  {
0 1
  O        1.6580350    -0.9827140     0.3821500
  O       -0.8249020    -1.8470020    -0.1920140
  N       -1.7073370     0.2644950     0.0041840
  N        1.2225400     1.0581630    -0.4400630
  C       -0.6757910    -0.6248990    -0.0657590
  C       -1.6242400     1.6701930     0.3734340
  C       -3.0587270    -0.2617480    -0.1203800
  C        0.7172850    -0.0860290    -0.0289380
  C        2.8466160    -0.3331830     0.2236370
  C        2.5869190     0.9090560    -0.2781450
  H       -2.0624300     2.2861190    -0.4188050
  H       -0.5911340     1.9718700     0.5118620
  H       -2.1906170     1.8355680     1.2974120
  H       -3.5636440    -0.2611770     0.8526080
  H       -3.0040100    -1.2812060    -0.4966650
  H       -3.6263720     0.3669880    -0.8129620
  H        3.7338670    -0.8757360     0.5106220
  H        3.3125754     1.7327842    -0.5490828
units angstrom
no_reorient  #important for SAPT in psi4, default
symmetry c1  #important for SAPT in psi4, default
}

set PROPERTIES_ORIGIN ["COM"]
properties('MP2/aug-cc-pvtz', properties = ['dipole'])
--------------------------------------------------------------------------

    Molecular point group: c1
  Charge       = 0
  Multiplicity = 1
  Basis Set: AUG-CC-PVTZ
    Blend: AUG-CC-PVTZ
  Basis Set: (AUG-CC-PVTZ AUX)
    Blend: AUG-CC-PVTZ-JKFIT

    Orbital Energies [Eh]
    ---------------------

    Doubly Occupied:

       1A    -20.653889     2A    -20.527945     3A    -15.602049
       4A    -15.592248     5A    -11.374325     6A    -11.356648
       7A    -11.312641     8A    -11.282464     9A    -11.266531
      10A    -11.259458    11A     -1.498747    12A     -1.382589
      13A     -1.260079    14A     -1.242905    15A     -1.057064
      16A     -0.977368    17A     -0.959035    18A     -0.864335
      19A     -0.841867    20A     -0.778936    21A     -0.727144
      22A     -0.682370    23A     -0.666886    24A     -0.660075
      25A     -0.651969    26A     -0.616590    27A     -0.586006
      28A     -0.584623    29A     -0.567075    30A     -0.562123
      31A     -0.541782    32A     -0.535237    33A     -0.481828
      34A     -0.465406    35A     -0.442050    36A     -0.380612
      37A     -0.351295

  @DF-RHF Final Energy:  -490.63429218971874

   => Energetics <=

    Nuclear Repulsion Energy =            528.0816870534168856
    One-Electron Energy =               -1716.2435736266588719
    Two-Electron Energy =                 697.5275943835233647
    Total Energy =                       -490.6342921897187352
  Basis Set: (AUG-CC-PVTZ AUX)
    Blend: AUG-CC-PVTZ-RI
    Molecular point group: c1

    Geometry (in Angstrom), charge = 0, multiplicity = 1:

       Center              X                  Y                   Z               Mass
    ------------   -----------------  -----------------  -----------------  -----------------
         O            1.601003958701    -0.942454369669     0.388677670813    15.994914619570
         O           -0.881933041299    -1.806742369669    -0.185486329187    15.994914619570
         N           -1.764368041299     0.304754630331     0.010711670813    14.003074004430
         N            1.165508958701     1.098422630331    -0.433535329187    14.003074004430
         C           -0.732822041299    -0.584639369669    -0.059231329187    12.000000000000
         C           -1.681271041299     1.710452630331     0.379961670813    12.000000000000
         C           -3.115758041299    -0.221488369669    -0.113852329187    12.000000000000
         C            0.660253958701    -0.045769369669    -0.022410329187    12.000000000000
         C            2.789584958701    -0.292923369669     0.230164670813    12.000000000000
         C            2.529887958701     0.949315630331    -0.271617329187    12.000000000000
         H           -2.119461041299     2.326378630331    -0.412277329187     1.007825032230
         H           -0.648165041299     2.012129630331     0.518389670813     1.007825032230
         H           -2.247648041299     1.875827630331     1.303939670813     1.007825032230
         H           -3.620675041299    -0.220917369669     0.859135670813     1.007825032230
         H           -3.061041041299    -1.240946369669    -0.490137329187     1.007825032230
         H           -3.683403041299     0.407247630331    -0.806434329187     1.007825032230
         H            3.676835958701    -0.835476369669     0.517149670813     1.007825032230
         H            3.255544358701     1.773043830331    -0.542555129187     1.007825032230

  Basis Set: AUG-CC-PVTZ
    Blend: AUG-CC-PVTZ
  Basis Set: (AUG-CC-PVTZ AUX)
    Blend: AUG-CC-PVTZ-JKFIT
	 Reference Energy          =    -490.6342921897187352 [Eh]
	 Singles Energy            =      -0.0000000000000000 [Eh]
	 Same-Spin Energy          =      -0.5066895525900280 [Eh]
	 Opposite-Spin Energy      =      -1.5504750378391499 [Eh]
	 Correlation Energy        =      -2.0571645904291778 [Eh]
	 Total Energy              =    -492.6914567801479166 [Eh]

	 ================> DF-SCS-MP2 Energies <==================
	-----------------------------------------------------------
	 SCS Same-Spin Scale       =       0.3333333333333333 [-]
	 SCS Opposite-Spin Scale   =       1.2000000000000000 [-]
	 SCS Same-Spin Energy      =      -0.1688965175300093 [Eh]
	 SCS Opposite-Spin Energy  =      -1.8605700454069798 [Eh]
	 SCS Correlation Energy    =      -2.0294665629369892 [Eh]
	 SCS Total Energy          =    -492.6637587526557240 [Eh]
	-----------------------------------------------------------

  Dipole Moment: [D]
     X:     0.3659      Y:     2.7799      Z:     0.9527     Total:     2.9613

*** Psi4 exiting successfully. Buy a developer a beer!
