                               Psi4 1.4a3.dev225

  ==> Input File <==

--------------------------------------------------------------------------
#psi4
#
memory 32 gb

molecule  {
0 1
  O        1.6580350    -0.9827140     0.3821500
  O       -0.8249020    -1.8470020    -0.1920140
  N       -1.7073370     0.2644950     0.0041840
  N        1.2225400     1.0581630    -0.4400630
  C       -0.6757910    -0.6248990    -0.0657590
  C       -1.6242400     1.6701930     0.3734340
  C       -3.0587270    -0.2617480    -0.1203800
  C        0.6789098    -0.1729329     0.0022878
  C        2.8466160    -0.3331830     0.2236370
  C        2.5869190     0.9090560    -0.2781450
  H       -2.0624300     2.2861190    -0.4188050
  H       -0.5911340     1.9718700     0.5118620
  H       -2.1906170     1.8355680     1.2974120
  H       -3.5636440    -0.2611770     0.8526080
  H       -3.0040100    -1.2812060    -0.4966650
  H       -3.6263720     0.3669880    -0.8129620
  H        3.7338670    -0.8757360     0.5106220
  H        3.2804870     1.6963590    -0.5371020
units angstrom
no_reorient  #important for SAPT in psi4, default
symmetry c1  #important for SAPT in psi4, default
}

set PROPERTIES_ORIGIN ["COM"]
properties('MP2/aug-cc-pvtz', properties = ['dipole'])
--------------------------------------------------------------------------

    Molecular point group: c1
  Charge       = 0
  Multiplicity = 1
  Basis Set: AUG-CC-PVTZ
    Blend: AUG-CC-PVTZ
  Basis Set: (AUG-CC-PVTZ AUX)
    Blend: AUG-CC-PVTZ-JKFIT

    Orbital Energies [Eh]
    ---------------------

    Doubly Occupied:

       1A    -20.664479     2A    -20.526786     3A    -15.602414
       4A    -15.595130     5A    -11.370359     6A    -11.360906
       7A    -11.313067     8A    -11.279464     9A    -11.264944
      10A    -11.259727    11A     -1.511138    12A     -1.385956
      13A     -1.256452    14A     -1.216818    15A     -1.066693
      16A     -0.976902    17A     -0.962413    18A     -0.875191
      19A     -0.843617    20A     -0.785325    21A     -0.727435
      22A     -0.689255    23A     -0.675663    24A     -0.661353
      25A     -0.652951    26A     -0.617491    27A     -0.595097
      28A     -0.581692    29A     -0.566183    30A     -0.561467
      31A     -0.542310    32A     -0.535566    33A     -0.469818
      34A     -0.453015    35A     -0.444992    36A     -0.380504
      37A     -0.343682

  @DF-RHF Final Energy:  -490.61772416828614

   => Energetics <=

    Nuclear Repulsion Energy =            528.3028420460532288
    One-Electron Energy =               -1716.6086254055542213
    Two-Electron Energy =                 697.6880591912148475
    Total Energy =                       -490.6177241682861450
  Basis Set: (AUG-CC-PVTZ AUX)
    Blend: AUG-CC-PVTZ-RI
    Molecular point group: c1

    Geometry (in Angstrom), charge = 0, multiplicity = 1:

       Center              X                  Y                   Z               Mass
    ------------   -----------------  -----------------  -----------------  -----------------
         O            1.604522785620    -0.934746473104     0.385916082362    15.994914619570
         O           -0.878414214380    -1.799034473104    -0.188247917638    15.994914619570
         N           -1.760849214380     0.312462526896     0.007950082362    14.003074004430
         N            1.169027785620     1.106130526896    -0.436296917638    14.003074004430
         C           -0.729303214380    -0.576931473104    -0.061992917638    12.000000000000
         C           -1.677752214380     1.718160526896     0.377200082362    12.000000000000
         C           -3.112239214380    -0.213780473104    -0.116613917638    12.000000000000
         C            0.625397585620    -0.124965373104     0.006053882362    12.000000000000
         C            2.793103785620    -0.285215473104     0.227403082362    12.000000000000
         C            2.533406785620     0.957023526896    -0.274378917638    12.000000000000
         H           -2.115942214380     2.334086526896    -0.415038917638     1.007825032230
         H           -0.644646214380     2.019837526896     0.515628082362     1.007825032230
         H           -2.244129214380     1.883535526896     1.301178082362     1.007825032230
         H           -3.617156214380    -0.213209473104     0.856374082362     1.007825032230
         H           -3.057522214380    -1.233238473104    -0.492898917638     1.007825032230
         H           -3.679884214380     0.414955526896    -0.809195917638     1.007825032230
         H            3.680354785620    -0.827768473104     0.514388082362     1.007825032230
         H            3.226974785620     1.744326526896    -0.533335917638     1.007825032230

  Basis Set: AUG-CC-PVTZ
    Blend: AUG-CC-PVTZ
  Basis Set: (AUG-CC-PVTZ AUX)
    Blend: AUG-CC-PVTZ-JKFIT
	 Reference Energy          =    -490.6177241682861450 [Eh]
	 Singles Energy            =      -0.0000000000000000 [Eh]
	 Same-Spin Energy          =      -0.5096599233632179 [Eh]
	 Opposite-Spin Energy      =      -1.5545405690615217 [Eh]
	 Correlation Energy        =      -2.0642004924247397 [Eh]
	 Total Energy              =    -492.6819246607108767 [Eh]

	 ================> DF-SCS-MP2 Energies <==================
	-----------------------------------------------------------
	 SCS Same-Spin Scale       =       0.3333333333333333 [-]
	 SCS Opposite-Spin Scale   =       1.2000000000000000 [-]
	 SCS Same-Spin Energy      =      -0.1698866411210726 [Eh]
	 SCS Opposite-Spin Energy  =      -1.8654486828738259 [Eh]
	 SCS Correlation Energy    =      -2.0353353239948984 [Eh]
	 SCS Total Energy          =    -492.6530594922810451 [Eh]
	-----------------------------------------------------------

  Dipole Moment: [D]
     X:     0.5845      Y:     2.6423      Z:     1.0377     Total:     2.8983

*** Psi4 exiting successfully. Buy a developer a beer!
