                               Psi4 1.4a3.dev225

  ==> Input File <==

--------------------------------------------------------------------------
#psi4
#
memory 32 gb

molecule  {
0 1
  O        1.6580350    -0.9827140     0.3821500
  O       -0.8249020    -1.8470020    -0.1920140
  N       -1.7073370     0.2644950     0.0041840
  N        1.2225400     1.0581630    -0.4400630
  C       -0.6757910    -0.6248990    -0.0657590
  C       -1.6242400     1.6701930     0.3734340
  C       -3.0587270    -0.2617480    -0.1203800
  C        0.7172850    -0.0860290    -0.0289380
  C        2.8466160    -0.3331830     0.2236370
  C        2.6336725     0.9181549    -0.2775555
  H       -2.0624300     2.2861190    -0.4188050
  H       -0.5911340     1.9718700     0.5118620
  H       -2.1906170     1.8355680     1.2974120
  H       -3.5636440    -0.2611770     0.8526080
  H       -3.0040100    -1.2812060    -0.4966650
  H       -3.6263720     0.3669880    -0.8129620
  H        3.7338670    -0.8757360     0.5106220
  H        3.2804870     1.6963590    -0.5371020
units angstrom
no_reorient  #important for SAPT in psi4, default
symmetry c1  #important for SAPT in psi4, default
}

set PROPERTIES_ORIGIN ["COM"]
properties('MP2/aug-cc-pvtz', properties = ['dipole'])
--------------------------------------------------------------------------

    Molecular point group: c1
  Charge       = 0
  Multiplicity = 1
  Basis Set: AUG-CC-PVTZ
    Blend: AUG-CC-PVTZ
  Basis Set: (AUG-CC-PVTZ AUX)
    Blend: AUG-CC-PVTZ-JKFIT

    Orbital Energies [Eh]
    ---------------------

    Doubly Occupied:

       1A    -20.652727     2A    -20.528250     3A    -15.601998
       4A    -15.592906     5A    -11.374524     6A    -11.356285
       7A    -11.315372     8A    -11.277910     9A    -11.266057
      10A    -11.259375    11A     -1.496469    12A     -1.382741
      13A     -1.257703    14A     -1.232495    15A     -1.058588
      16A     -0.977211    17A     -0.959428    18A     -0.869098
      19A     -0.841556    20A     -0.778890    21A     -0.727035
      22A     -0.681330    23A     -0.667115    24A     -0.660203
      25A     -0.651497    26A     -0.625643    27A     -0.592218
      28A     -0.584210    29A     -0.566916    30A     -0.561867
      31A     -0.541570    32A     -0.535344    33A     -0.478022
      34A     -0.458221    35A     -0.441383    36A     -0.380500
      37A     -0.355125

  @DF-RHF Final Energy:  -490.63423672778657

   => Energetics <=

    Nuclear Repulsion Energy =            527.3320393749608002
    One-Electron Energy =               -1714.7569773732109297
    Two-Electron Energy =                 696.7907012704637282
    Total Energy =                       -490.6342367277865151
  Basis Set: (AUG-CC-PVTZ AUX)
    Blend: AUG-CC-PVTZ-RI
    Molecular point group: c1

    Geometry (in Angstrom), charge = 0, multiplicity = 1:

       Center              X                  Y                   Z               Mass
    ------------   -----------------  -----------------  -----------------  -----------------
         O            1.597229091665    -0.942971842950     0.388540952659    15.994914619570
         O           -0.885707908335    -1.807259842950    -0.185623047341    15.994914619570
         N           -1.768142908335     0.304237157050     0.010574952659    14.003074004430
         N            1.161734091665     1.097905157050    -0.433672047341    14.003074004430
         C           -0.736596908335    -0.585156842950    -0.059368047341    12.000000000000
         C           -1.685045908335     1.709935157050     0.379824952659    12.000000000000
         C           -3.119532908335    -0.222005842950    -0.113989047341    12.000000000000
         C            0.656479091665    -0.046286842950    -0.022547047341    12.000000000000
         C            2.785810091665    -0.293440842950     0.230027952659    12.000000000000
         C            2.572866591665     0.957897057050    -0.271164547341    12.000000000000
         H           -2.123235908335     2.325861157050    -0.412414047341     1.007825032230
         H           -0.651939908335     2.011612157050     0.518252952659     1.007825032230
         H           -2.251422908335     1.875310157050     1.303802952659     1.007825032230
         H           -3.624449908335    -0.221434842950     0.858998952659     1.007825032230
         H           -3.064815908335    -1.241463842950    -0.490274047341     1.007825032230
         H           -3.687177908335     0.406730157050    -0.806571047341     1.007825032230
         H            3.673061091665    -0.835993842950     0.517012952659     1.007825032230
         H            3.219681091665     1.736101157050    -0.530711047341     1.007825032230

  Basis Set: AUG-CC-PVTZ
    Blend: AUG-CC-PVTZ
  Basis Set: (AUG-CC-PVTZ AUX)
    Blend: AUG-CC-PVTZ-JKFIT
	 Reference Energy          =    -490.6342367277865719 [Eh]
	 Singles Energy            =      -0.0000000000000000 [Eh]
	 Same-Spin Energy          =      -0.5060233745688011 [Eh]
	 Opposite-Spin Energy      =      -1.5504036110685719 [Eh]
	 Correlation Energy        =      -2.0564269856373731 [Eh]
	 Total Energy              =    -492.6906637134239304 [Eh]

	 ================> DF-SCS-MP2 Energies <==================
	-----------------------------------------------------------
	 SCS Same-Spin Scale       =       0.3333333333333333 [-]
	 SCS Opposite-Spin Scale   =       1.2000000000000000 [-]
	 SCS Same-Spin Energy      =      -0.1686744581896004 [Eh]
	 SCS Opposite-Spin Energy  =      -1.8604843332822862 [Eh]
	 SCS Correlation Energy    =      -2.0291587914718865 [Eh]
	 SCS Total Energy          =    -492.6633955192584722 [Eh]
	-----------------------------------------------------------

  Dipole Moment: [D]
     X:     0.3676      Y:     2.7847      Z:     0.9502     Total:     2.9652

*** Psi4 exiting successfully. Buy a developer a beer!
