                               Psi4 1.4a3.dev225

  ==> Input File <==

--------------------------------------------------------------------------
#psi4
#
memory 32 gb

molecule  {
0 1
  O        1.6580350    -0.9827140     0.3821500
  O       -0.8249020    -1.8470020    -0.1920140
  N       -1.7073370     0.2644950     0.0041840
  N        1.2225400     1.0581630    -0.4400630
  C       -0.6757910    -0.6248990    -0.0657590
  C       -1.6242400     1.6701930     0.3734340
  C       -3.0587270    -0.2617480    -0.1203800
  C        0.7172850    -0.0860290    -0.0289380
  C        2.8466160    -0.3331830     0.2236370
  C        2.5869190     0.9090560    -0.2781450
  H       -2.0624300     2.2861190    -0.4188050
  H       -0.5911340     1.9718700     0.5118620
  H       -2.1906170     1.8355680     1.2974120
  H       -3.5636440    -0.2611770     0.8526080
  H       -3.0040100    -1.2812060    -0.4966650
  H       -3.5226135     0.2520629    -0.6863666
  H        3.7338670    -0.8757360     0.5106220
  H        3.2804870     1.6963590    -0.5371020
units angstrom
no_reorient  #important for SAPT in psi4, default
symmetry c1  #important for SAPT in psi4, default
}

set PROPERTIES_ORIGIN ["COM"]
properties('MP2/aug-cc-pvtz', properties = ['dipole'])
--------------------------------------------------------------------------

    Molecular point group: c1
  Charge       = 0
  Multiplicity = 1
  Basis Set: AUG-CC-PVTZ
    Blend: AUG-CC-PVTZ
  Basis Set: (AUG-CC-PVTZ AUX)
    Blend: AUG-CC-PVTZ-JKFIT

    Orbital Energies [Eh]
    ---------------------

    Doubly Occupied:

       1A    -20.653121     2A    -20.526622     3A    -15.600029
       4A    -15.591286     5A    -11.372895     6A    -11.355748
       7A    -11.311951     8A    -11.276718     9A    -11.266470
      10A    -11.234729    11A     -1.497977    12A     -1.381312
      13A     -1.259925    14A     -1.242673    15A     -1.058391
      16A     -0.993357    17A     -0.962880    18A     -0.869909
      19A     -0.846350    20A     -0.782397    21A     -0.726702
      22A     -0.684312    23A     -0.670554    24A     -0.666202
      25A     -0.652334    26A     -0.623871    27A     -0.594016
      28A     -0.586660    29A     -0.580887    30A     -0.564428
      31A     -0.543983    32A     -0.533988    33A     -0.481422
      34A     -0.464783    35A     -0.440886    36A     -0.380746
      37A     -0.350796

  @DF-RHF Final Energy:  -490.60308784940264

   => Energetics <=

    Nuclear Repulsion Energy =            529.4072660725887545
    One-Electron Energy =               -1718.7580897952559553
    Two-Electron Energy =                 698.7477358732645598
    Total Energy =                       -490.6030878494026410
  Basis Set: (AUG-CC-PVTZ AUX)
    Blend: AUG-CC-PVTZ-RI
    Molecular point group: c1

    Geometry (in Angstrom), charge = 0, multiplicity = 1:

       Center              X                  Y                   Z               Mass
    ------------   -----------------  -----------------  -----------------  -----------------
         O            1.600488239334    -0.941365292343     0.387680512583    15.994914619570
         O           -0.882448760666    -1.805653292343    -0.186483487417    15.994914619570
         N           -1.764883760666     0.305843707657     0.009714512583    14.003074004430
         N            1.164993239334     1.099511707657    -0.434532487417    14.003074004430
         C           -0.733337760666    -0.583550292343    -0.060228487417    12.000000000000
         C           -1.681786760666     1.711541707657     0.378964512583    12.000000000000
         C           -3.116273760666    -0.220399292343    -0.114849487417    12.000000000000
         C            0.659738239334    -0.044680292343    -0.023407487417    12.000000000000
         C            2.789069239334    -0.291834292343     0.229167512583    12.000000000000
         C            2.529372239334     0.950404707657    -0.272614487417    12.000000000000
         H           -2.119976760666     2.327467707657    -0.413274487417     1.007825032230
         H           -0.648680760666     2.013218707657     0.517392512583     1.007825032230
         H           -2.248163760666     1.876916707657     1.302942512583     1.007825032230
         H           -3.621190760666    -0.219828292343     0.858138512583     1.007825032230
         H           -3.061556760666    -1.239857292343    -0.491134487417     1.007825032230
         H           -3.580160260666     0.293411607657    -0.680836087417     1.007825032230
         H            3.676320239334    -0.834387292343     0.516152512583     1.007825032230
         H            3.222940239334     1.737707707657    -0.531571487417     1.007825032230

  Basis Set: AUG-CC-PVTZ
    Blend: AUG-CC-PVTZ
  Basis Set: (AUG-CC-PVTZ AUX)
    Blend: AUG-CC-PVTZ-JKFIT
	 Reference Energy          =    -490.6030878494026410 [Eh]
	 Singles Energy            =      -0.0000000000000000 [Eh]
	 Same-Spin Energy          =      -0.5066295442588308 [Eh]
	 Opposite-Spin Energy      =      -1.5494396305273694 [Eh]
	 Correlation Energy        =      -2.0560691747862001 [Eh]
	 Total Energy              =    -492.6591570241888576 [Eh]

	 ================> DF-SCS-MP2 Energies <==================
	-----------------------------------------------------------
	 SCS Same-Spin Scale       =       0.3333333333333333 [-]
	 SCS Opposite-Spin Scale   =       1.2000000000000000 [-]
	 SCS Same-Spin Energy      =      -0.1688765147529436 [Eh]
	 SCS Opposite-Spin Energy  =      -1.8593275566328433 [Eh]
	 SCS Correlation Energy    =      -2.0282040713857867 [Eh]
	 SCS Total Energy          =    -492.6312919207884420 [Eh]
	-----------------------------------------------------------

  Dipole Moment: [D]
     X:     0.2891      Y:     2.8079      Z:     0.9121     Total:     2.9664

*** Psi4 exiting successfully. Buy a developer a beer!
