                               Psi4 1.4a3.dev225

  ==> Input File <==

--------------------------------------------------------------------------
#psi4
#
memory 32 gb

molecule  {
0 1
  O        1.6697548    -1.0017038     0.3904283
  O       -0.8249020    -1.8470020    -0.1920140
  N       -1.7073370     0.2644950     0.0041840
  N        1.2225400     1.0581630    -0.4400630
  C       -0.6757910    -0.6248990    -0.0657590
  C       -1.6242400     1.6701930     0.3734340
  C       -3.0587270    -0.2617480    -0.1203800
  C        0.7172850    -0.0860290    -0.0289380
  C        2.8466160    -0.3331830     0.2236370
  C        2.5869190     0.9090560    -0.2781450
  H       -2.0624300     2.2861190    -0.4188050
  H       -0.5911340     1.9718700     0.5118620
  H       -2.1906170     1.8355680     1.2974120
  H       -3.5636440    -0.2611770     0.8526080
  H       -3.0040100    -1.2812060    -0.4966650
  H       -3.6263720     0.3669880    -0.8129620
  H        3.7338670    -0.8757360     0.5106220
  H        3.2804870     1.6963590    -0.5371020
units angstrom
no_reorient  #important for SAPT in psi4, default
symmetry c1  #important for SAPT in psi4, default
}

set PROPERTIES_ORIGIN ["COM"]
properties('MP2/aug-cc-pvtz', properties = ['dipole'])
--------------------------------------------------------------------------

    Molecular point group: c1
  Charge       = 0
  Multiplicity = 1
  Basis Set: AUG-CC-PVTZ
    Blend: AUG-CC-PVTZ
  Basis Set: (AUG-CC-PVTZ AUX)
    Blend: AUG-CC-PVTZ-JKFIT

    Orbital Energies [Eh]
    ---------------------

    Doubly Occupied:

       1A    -20.653347     2A    -20.527723     3A    -15.602053
       4A    -15.595167     5A    -11.374430     6A    -11.358152
       7A    -11.313160     8A    -11.277097     9A    -11.266753
      10A    -11.259490    11A     -1.490507    12A     -1.382380
      13A     -1.260789    14A     -1.244406    15A     -1.055010
      16A     -0.977398    17A     -0.959108    18A     -0.864861
      19A     -0.843467    20A     -0.779345    21A     -0.726811
      22A     -0.679541    23A     -0.666237    24A     -0.659364
      25A     -0.650760    26A     -0.621077    27A     -0.587840
      28A     -0.586367    29A     -0.567470    30A     -0.562247
      31A     -0.542005    32A     -0.535256    33A     -0.483866
      34A     -0.467168    35A     -0.441982    36A     -0.380602
      37A     -0.350399

  @DF-RHF Final Energy:  -490.63457938442622

   => Energetics <=

    Nuclear Repulsion Energy =            527.6228181992426016
    One-Electron Energy =               -1715.3275267999167681
    Two-Electron Energy =                 697.0701292162478921
    Total Energy =                       -490.6345793844262744
  Basis Set: (AUG-CC-PVTZ AUX)
    Blend: AUG-CC-PVTZ-RI
    Molecular point group: c1

    Geometry (in Angstrom), charge = 0, multiplicity = 1:

       Center              X                  Y                   Z               Mass
    ------------   -----------------  -----------------  -----------------  -----------------
         O            1.611616238473    -0.959013397744     0.395924364935    15.994914619570
         O           -0.883040561527    -1.804311597744    -0.186517935065    15.994914619570
         N           -1.765475561527     0.307185402256     0.009680064935    14.003074004430
         N            1.164401438473     1.100853402256    -0.434566935065    14.003074004430
         C           -0.733929561527    -0.582208597744    -0.060262935065    12.000000000000
         C           -1.682378561527     1.712883402256     0.378930064935    12.000000000000
         C           -3.116865561527    -0.219057597744    -0.114883935065    12.000000000000
         C            0.659146438473    -0.043338597744    -0.023441935065    12.000000000000
         C            2.788477438473    -0.290492597744     0.229133064935    12.000000000000
         C            2.528780438473     0.951746402256    -0.272648935065    12.000000000000
         H           -2.120568561527     2.328809402256    -0.413308935065     1.007825032230
         H           -0.649272561527     2.014560402256     0.517358064935     1.007825032230
         H           -2.248755561527     1.878258402256     1.302908064935     1.007825032230
         H           -3.621782561527    -0.218486597744     0.858104064935     1.007825032230
         H           -3.062148561527    -1.238515597744    -0.491168935065     1.007825032230
         H           -3.684510561527     0.409678402256    -0.807465935065     1.007825032230
         H            3.675728438473    -0.833045597744     0.516118064935     1.007825032230
         H            3.222348438473     1.739049402256    -0.531605935065     1.007825032230

  Basis Set: AUG-CC-PVTZ
    Blend: AUG-CC-PVTZ
  Basis Set: (AUG-CC-PVTZ AUX)
    Blend: AUG-CC-PVTZ-JKFIT
	 Reference Energy          =    -490.6345793844262175 [Eh]
	 Singles Energy            =      -0.0000000000000000 [Eh]
	 Same-Spin Energy          =      -0.5068768770941856 [Eh]
	 Opposite-Spin Energy      =      -1.5511582731302727 [Eh]
	 Correlation Energy        =      -2.0580351502244580 [Eh]
	 Total Energy              =    -492.6926145346506587 [Eh]

	 ================> DF-SCS-MP2 Energies <==================
	-----------------------------------------------------------
	 SCS Same-Spin Scale       =       0.3333333333333333 [-]
	 SCS Opposite-Spin Scale   =       1.2000000000000000 [-]
	 SCS Same-Spin Energy      =      -0.1689589590313952 [Eh]
	 SCS Opposite-Spin Energy  =      -1.8613899277563271 [Eh]
	 SCS Correlation Energy    =      -2.0303488867877224 [Eh]
	 SCS Total Energy          =    -492.6649282712139666 [Eh]
	-----------------------------------------------------------

  Dipole Moment: [D]
     X:     0.3396      Y:     2.8292      Z:     0.9288     Total:     2.9971

*** Psi4 exiting successfully. Buy a developer a beer!
