                               Psi4 1.4a3.dev225

  ==> Input File <==

--------------------------------------------------------------------------
#psi4
#
memory 32 gb

molecule  {
0 1
  O        1.6580350    -0.9827140     0.3821500
  O       -0.8249020    -1.8470020    -0.1920140
  N       -1.7073370     0.2644950     0.0041840
  N        1.2225400     1.0581630    -0.4400630
  C       -0.6733814    -0.6051498    -0.0637187
  C       -1.6242400     1.6701930     0.3734340
  C       -3.0587270    -0.2617480    -0.1203800
  C        0.7172850    -0.0860290    -0.0289380
  C        2.8466160    -0.3331830     0.2236370
  C        2.5869190     0.9090560    -0.2781450
  H       -2.0624300     2.2861190    -0.4188050
  H       -0.5911340     1.9718700     0.5118620
  H       -2.1906170     1.8355680     1.2974120
  H       -3.5636440    -0.2611770     0.8526080
  H       -3.0040100    -1.2812060    -0.4966650
  H       -3.6263720     0.3669880    -0.8129620
  H        3.7338670    -0.8757360     0.5106220
  H        3.2804870     1.6963590    -0.5371020
units angstrom
no_reorient  #important for SAPT in psi4, default
symmetry c1  #important for SAPT in psi4, default
}

set PROPERTIES_ORIGIN ["COM"]
properties('MP2/aug-cc-pvtz', properties = ['dipole'])
--------------------------------------------------------------------------

    Molecular point group: c1
  Charge       = 0
  Multiplicity = 1
  Basis Set: AUG-CC-PVTZ
    Blend: AUG-CC-PVTZ
  Basis Set: (AUG-CC-PVTZ AUX)
    Blend: AUG-CC-PVTZ-JKFIT

    Orbital Energies [Eh]
    ---------------------

    Doubly Occupied:

       1A    -20.654207     2A    -20.523402     3A    -15.605038
       4A    -15.592529     5A    -11.373670     6A    -11.356917
       7A    -11.313127     8A    -11.277511     9A    -11.267618
      10A    -11.260741    11A     -1.498809    12A     -1.371280
      13A     -1.260485    14A     -1.243695    15A     -1.059075
      16A     -0.978857    17A     -0.962403    18A     -0.867376
      19A     -0.845586    20A     -0.781765    21A     -0.728281
      22A     -0.682282    23A     -0.667943    24A     -0.660217
      25A     -0.651888    26A     -0.622897    27A     -0.588237
      28A     -0.581387    29A     -0.568889    30A     -0.563181
      31A     -0.541058    32A     -0.530965    33A     -0.482089
      34A     -0.465417    35A     -0.439057    36A     -0.380321
      37A     -0.351508

  @DF-RHF Final Energy:  -490.63466288330972

   => Energetics <=

    Nuclear Repulsion Energy =            528.3670245221468349
    One-Electron Energy =               -1716.8039588930125774
    Two-Electron Energy =                 697.8022714875561405
    Total Energy =                       -490.6346628833097157
  Basis Set: (AUG-CC-PVTZ AUX)
    Blend: AUG-CC-PVTZ-RI
    Molecular point group: c1

    Geometry (in Angstrom), charge = 0, multiplicity = 1:

       Center              X                  Y                   Z               Mass
    ------------   -----------------  -----------------  -----------------  -----------------
         O            1.601028407705    -0.943884344006     0.388416650383    15.994914619570
         O           -0.881908592295    -1.808172344006    -0.185747349617    15.994914619570
         N           -1.764343592295     0.303324655994     0.010450650383    14.003074004430
         N            1.165533407705     1.096992655994    -0.433796349617    14.003074004430
         C           -0.730387992295    -0.566320144006    -0.057452049617    12.000000000000
         C           -1.681246592295     1.709022655994     0.379700650383    12.000000000000
         C           -3.115733592295    -0.222918344006    -0.114113349617    12.000000000000
         C            0.660278407705    -0.047199344006    -0.022671349617    12.000000000000
         C            2.789609407705    -0.294353344006     0.229903650383    12.000000000000
         C            2.529912407705     0.947885655994    -0.271878349617    12.000000000000
         H           -2.119436592295     2.324948655994    -0.412538349617     1.007825032230
         H           -0.648140592295     2.010699655994     0.518128650383     1.007825032230
         H           -2.247623592295     1.874397655994     1.303678650383     1.007825032230
         H           -3.620650592295    -0.222347344006     0.858874650383     1.007825032230
         H           -3.061016592295    -1.242376344006    -0.490398349617     1.007825032230
         H           -3.683378592295     0.405817655994    -0.806695349617     1.007825032230
         H            3.676860407705    -0.836906344006     0.516888650383     1.007825032230
         H            3.223480407705     1.735188655994    -0.530835349617     1.007825032230

  Basis Set: AUG-CC-PVTZ
    Blend: AUG-CC-PVTZ
  Basis Set: (AUG-CC-PVTZ AUX)
    Blend: AUG-CC-PVTZ-JKFIT
	 Reference Energy          =    -490.6346628833097157 [Eh]
	 Singles Energy            =      -0.0000000000000000 [Eh]
	 Same-Spin Energy          =      -0.5070573996276301 [Eh]
	 Opposite-Spin Energy      =      -1.5510253677489299 [Eh]
	 Correlation Energy        =      -2.0580827673765598 [Eh]
	 Total Energy              =    -492.6927456506862768 [Eh]

	 ================> DF-SCS-MP2 Energies <==================
	-----------------------------------------------------------
	 SCS Same-Spin Scale       =       0.3333333333333333 [-]
	 SCS Opposite-Spin Scale   =       1.2000000000000000 [-]
	 SCS Same-Spin Energy      =      -0.1690191332092100 [Eh]
	 SCS Opposite-Spin Energy  =      -1.8612304412987157 [Eh]
	 SCS Correlation Energy    =      -2.0302495745079256 [Eh]
	 SCS Total Energy          =    -492.6649124578176497 [Eh]
	-----------------------------------------------------------

  Dipole Moment: [D]
     X:     0.3411      Y:     2.9108      Z:     0.9729     Total:     3.0879

*** Psi4 exiting successfully. Buy a developer a beer!
