                               Psi4 1.4a3.dev225

  ==> Input File <==

--------------------------------------------------------------------------
#psi4
#
memory 32 gb

molecule  {
0 1
  O        1.6580350    -0.9827140     0.3821500
  O       -0.8249020    -1.8470020    -0.1920140
  N       -1.7073370     0.2644950     0.0041840
  N        1.2225400     1.0581630    -0.4400630
  C       -0.8270642    -0.4944720    -0.0555021
  C       -1.6242400     1.6701930     0.3734340
  C       -3.0587270    -0.2617480    -0.1203800
  C        0.7172850    -0.0860290    -0.0289380
  C        2.8466160    -0.3331830     0.2236370
  C        2.5869190     0.9090560    -0.2781450
  H       -2.0624300     2.2861190    -0.4188050
  H       -0.5911340     1.9718700     0.5118620
  H       -2.1906170     1.8355680     1.2974120
  H       -3.5636440    -0.2611770     0.8526080
  H       -3.0040100    -1.2812060    -0.4966650
  H       -3.6263720     0.3669880    -0.8129620
  H        3.7338670    -0.8757360     0.5106220
  H        3.2804870     1.6963590    -0.5371020
units angstrom
no_reorient  #important for SAPT in psi4, default
symmetry c1  #important for SAPT in psi4, default
}

set PROPERTIES_ORIGIN ["COM"]
properties('MP2/aug-cc-pvtz', properties = ['dipole'])
--------------------------------------------------------------------------

    Molecular point group: c1
  Charge       = 0
  Multiplicity = 1
  Basis Set: AUG-CC-PVTZ
    Blend: AUG-CC-PVTZ
  Basis Set: (AUG-CC-PVTZ AUX)
    Blend: AUG-CC-PVTZ-JKFIT

    Orbital Energies [Eh]
    ---------------------

    Doubly Occupied:

       1A    -20.644437     2A    -20.488359     3A    -15.635429
       4A    -15.577224     5A    -11.361649     6A    -11.355118
       7A    -11.301439     8A    -11.290320     9A    -11.280508
      10A    -11.267250    11A     -1.486290    12A     -1.395415
      13A     -1.246606    14A     -1.236631    15A     -1.042764
      16A     -1.017624    17A     -1.002311    18A     -0.842072
      19A     -0.835805    20A     -0.775265    21A     -0.749177
      22A     -0.702452    23A     -0.685656    24A     -0.661128
      25A     -0.646989    26A     -0.617941    27A     -0.592849
      28A     -0.585152    29A     -0.577147    30A     -0.566345
      31A     -0.535447    32A     -0.514678    33A     -0.471267
      34A     -0.456908    35A     -0.403376    36A     -0.386648
      37A     -0.339764

  @DF-RHF Final Energy:  -490.57045924214458

   => Energetics <=

    Nuclear Repulsion Energy =            528.7986916863549141
    One-Electron Energy =               -1717.5874297958675925
    Two-Electron Energy =                 698.2182788673680989
    Total Energy =                       -490.5704592421445795
  Basis Set: (AUG-CC-PVTZ AUX)
    Blend: AUG-CC-PVTZ-RI
    Molecular point group: c1

    Geometry (in Angstrom), charge = 0, multiplicity = 1:

       Center              X                  Y                   Z               Mass
    ------------   -----------------  -----------------  -----------------  -----------------
         O            1.614195709793    -0.953367044914     0.387712664938    15.994914619570
         O           -0.868741290207    -1.817655044914    -0.186451335062    15.994914619570
         N           -1.751176290207     0.293841955086     0.009746664938    14.003074004430
         N            1.178700709793     1.087509955086    -0.434500335062    14.003074004430
         C           -0.870903490207    -0.465125044914    -0.049939435062    12.000000000000
         C           -1.668079290207     1.699539955086     0.378996664938    12.000000000000
         C           -3.102566290207    -0.232401044914    -0.114817335062    12.000000000000
         C            0.673445709793    -0.056682044914    -0.023375335062    12.000000000000
         C            2.802776709793    -0.303836044914     0.229199664938    12.000000000000
         C            2.543079709793     0.938402955086    -0.272582335062    12.000000000000
         H           -2.106269290207     2.315465955086    -0.413242335062     1.007825032230
         H           -0.634973290207     2.001216955086     0.517424664938     1.007825032230
         H           -2.234456290207     1.864914955086     1.302974664938     1.007825032230
         H           -3.607483290207    -0.231830044914     0.858170664938     1.007825032230
         H           -3.047849290207    -1.251859044914    -0.491102335062     1.007825032230
         H           -3.670211290207     0.396334955086    -0.807399335062     1.007825032230
         H            3.690027709793    -0.846389044914     0.516184664938     1.007825032230
         H            3.236647709793     1.725705955086    -0.531539335062     1.007825032230

  Basis Set: AUG-CC-PVTZ
    Blend: AUG-CC-PVTZ
  Basis Set: (AUG-CC-PVTZ AUX)
    Blend: AUG-CC-PVTZ-JKFIT
	 Reference Energy          =    -490.5704592421445795 [Eh]
	 Singles Energy            =      -0.0000000000000000 [Eh]
	 Same-Spin Energy          =      -0.5068245708802261 [Eh]
	 Opposite-Spin Energy      =      -1.5510674389503050 [Eh]
	 Correlation Energy        =      -2.0578920098305309 [Eh]
	 Total Energy              =    -492.6283512519751184 [Eh]

	 ================> DF-SCS-MP2 Energies <==================
	-----------------------------------------------------------
	 SCS Same-Spin Scale       =       0.3333333333333333 [-]
	 SCS Opposite-Spin Scale   =       1.2000000000000000 [-]
	 SCS Same-Spin Energy      =      -0.1689415236267420 [Eh]
	 SCS Opposite-Spin Energy  =      -1.8612809267403658 [Eh]
	 SCS Correlation Energy    =      -2.0302224503671078 [Eh]
	 SCS Total Energy          =    -492.6006816925116709 [Eh]
	-----------------------------------------------------------

  Dipole Moment: [D]
     X:    -1.0699      Y:     4.0355      Z:     1.1531     Total:     4.3312

*** Psi4 exiting successfully. Buy a developer a beer!
