                               Psi4 1.4a3.dev225

  ==> Input File <==

--------------------------------------------------------------------------
#psi4
#
memory 32 gb

molecule  {
0 1
  O        1.5501493    -1.0719400     0.4096557
  O       -0.8249020    -1.8470020    -0.1920140
  N       -1.7073370     0.2644950     0.0041840
  N        1.2225400     1.0581630    -0.4400630
  C       -0.6757910    -0.6248990    -0.0657590
  C       -1.6242400     1.6701930     0.3734340
  C       -3.0587270    -0.2617480    -0.1203800
  C        0.7172850    -0.0860290    -0.0289380
  C        2.8466160    -0.3331830     0.2236370
  C        2.5869190     0.9090560    -0.2781450
  H       -2.0624300     2.2861190    -0.4188050
  H       -0.5911340     1.9718700     0.5118620
  H       -2.1906170     1.8355680     1.2974120
  H       -3.5636440    -0.2611770     0.8526080
  H       -3.0040100    -1.2812060    -0.4966650
  H       -3.6263720     0.3669880    -0.8129620
  H        3.7338670    -0.8757360     0.5106220
  H        3.2804870     1.6963590    -0.5371020
units angstrom
no_reorient  #important for SAPT in psi4, default
symmetry c1  #important for SAPT in psi4, default
}

set PROPERTIES_ORIGIN ["COM"]
properties('MP2/aug-cc-pvtz', properties = ['dipole'])
--------------------------------------------------------------------------

    Molecular point group: c1
  Charge       = 0
  Multiplicity = 1
  Basis Set: AUG-CC-PVTZ
    Blend: AUG-CC-PVTZ
  Basis Set: (AUG-CC-PVTZ AUX)
    Blend: AUG-CC-PVTZ-JKFIT

    Orbital Energies [Eh]
    ---------------------

    Doubly Occupied:

       1A    -20.650737     2A    -20.526250     3A    -15.600507
       4A    -15.591304     5A    -11.370051     6A    -11.363199
       7A    -11.319445     8A    -11.291275     9A    -11.266086
      10A    -11.258188    11A     -1.462361    12A     -1.378317
      13A     -1.260932    14A     -1.244477    15A     -1.050370
      16A     -0.976340    17A     -0.958549    18A     -0.861799
      19A     -0.839706    20A     -0.767866    21A     -0.723191
      22A     -0.670379    23A     -0.662854    24A     -0.649874
      25A     -0.641373    26A     -0.622914    27A     -0.597574
      28A     -0.581391    29A     -0.562830    30A     -0.560176
      31A     -0.539325    32A     -0.530867    33A     -0.483126
      34A     -0.469859    35A     -0.439085    36A     -0.379104
      37A     -0.356828

  @DF-RHF Final Energy:  -490.61453463822613

   => Energetics <=

    Nuclear Repulsion Energy =            526.6993452402697358
    One-Electron Energy =               -1713.6107390186530210
    Two-Electron Energy =                 696.2968591401570393
    Total Energy =                       -490.6145346382261323
  Basis Set: (AUG-CC-PVTZ AUX)
    Blend: AUG-CC-PVTZ-RI
    Molecular point group: c1

    Geometry (in Angstrom), charge = 0, multiplicity = 1:

       Center              X                  Y                   Z               Mass
    ------------   -----------------  -----------------  -----------------  -----------------
         O            1.505669878775    -1.021228510837     0.412955964957    15.994914619570
         O           -0.869381421225    -1.796290510837    -0.188713735043    15.994914619570
         N           -1.751816421225     0.315206489163     0.007484264957    14.003074004430
         N            1.178060578775     1.108874489163    -0.436762735043    14.003074004430
         C           -0.720270421225    -0.574187510837    -0.062458735043    12.000000000000
         C           -1.668719421225     1.720904489163     0.376734264957    12.000000000000
         C           -3.103206421225    -0.211036510837    -0.117079735043    12.000000000000
         C            0.672805578775    -0.035317510837    -0.025637735043    12.000000000000
         C            2.802136578775    -0.282471510837     0.226937264957    12.000000000000
         C            2.542439578775     0.959767489163    -0.274844735043    12.000000000000
         H           -2.106909421225     2.336830489163    -0.415504735043     1.007825032230
         H           -0.635613421225     2.022581489163     0.515162264957     1.007825032230
         H           -2.235096421225     1.886279489163     1.300712264957     1.007825032230
         H           -3.608123421225    -0.210465510837     0.855908264957     1.007825032230
         H           -3.048489421225    -1.230494510837    -0.493364735043     1.007825032230
         H           -3.670851421225     0.417699489163    -0.809661735043     1.007825032230
         H            3.689387578775    -0.825024510837     0.513922264957     1.007825032230
         H            3.236007578775     1.747070489163    -0.533801735043     1.007825032230

  Basis Set: AUG-CC-PVTZ
    Blend: AUG-CC-PVTZ
  Basis Set: (AUG-CC-PVTZ AUX)
    Blend: AUG-CC-PVTZ-JKFIT
	 Reference Energy          =    -490.6145346382261323 [Eh]
	 Singles Energy            =      -0.0000000000000000 [Eh]
	 Same-Spin Energy          =      -0.5073090345672830 [Eh]
	 Opposite-Spin Energy      =      -1.5554289086018014 [Eh]
	 Correlation Energy        =      -2.0627379431690844 [Eh]
	 Total Energy              =    -492.6772725813952434 [Eh]

	 ================> DF-SCS-MP2 Energies <==================
	-----------------------------------------------------------
	 SCS Same-Spin Scale       =       0.3333333333333333 [-]
	 SCS Opposite-Spin Scale   =       1.2000000000000000 [-]
	 SCS Same-Spin Energy      =      -0.1691030115224277 [Eh]
	 SCS Opposite-Spin Energy  =      -1.8665146903221617 [Eh]
	 SCS Correlation Energy    =      -2.0356177018445893 [Eh]
	 SCS Total Energy          =    -492.6501523400707470 [Eh]
	-----------------------------------------------------------

  Dipole Moment: [D]
     X:     0.5590      Y:     3.0287      Z:     0.8580     Total:     3.1972

*** Psi4 exiting successfully. Buy a developer a beer!
