                               Psi4 1.4a3.dev225

  ==> Input File <==

--------------------------------------------------------------------------
#psi4
#
memory 32 gb

molecule  {
0 1
  O        1.6580350    -0.9827140     0.3821500
  O       -0.8249020    -1.8470020    -0.1920140
  N       -1.7073370     0.2644950     0.0041840
  N        1.2225400     1.0581630    -0.4400630
  C       -0.6757910    -0.6248990    -0.0657590
  C       -1.6242400     1.6701930     0.3734340
  C       -3.0587270    -0.2617480    -0.1203800
  C        0.7172850    -0.0860290    -0.0289380
  C        2.8466160    -0.3331830     0.2236370
  C        2.5869190     0.9090560    -0.2781450
  H       -2.0624300     2.2861190    -0.4188050
  H       -0.5911340     1.9718700     0.5118620
  H       -2.1906170     1.8355680     1.2974120
  H       -3.5636440    -0.2611770     0.8526080
  H       -3.0040100    -1.2812060    -0.4966650
  H       -3.5744928     0.3095254    -0.7496643
  H        3.7338670    -0.8757360     0.5106220
  H        3.2804870     1.6963590    -0.5371020
units angstrom
no_reorient  #important for SAPT in psi4, default
symmetry c1  #important for SAPT in psi4, default
}

set PROPERTIES_ORIGIN ["COM"]
properties('MP2/aug-cc-pvtz', properties = ['dipole'])
--------------------------------------------------------------------------

    Molecular point group: c1
  Charge       = 0
  Multiplicity = 1
  Basis Set: AUG-CC-PVTZ
    Blend: AUG-CC-PVTZ
  Basis Set: (AUG-CC-PVTZ AUX)
    Blend: AUG-CC-PVTZ-JKFIT

    Orbital Energies [Eh]
    ---------------------

    Doubly Occupied:

       1A    -20.653337     2A    -20.527110     3A    -15.600825
       4A    -15.591500     5A    -11.373423     6A    -11.355990
       7A    -11.312143     8A    -11.276889     9A    -11.266443
      10A    -11.247024    11A     -1.498188    12A     -1.381778
      13A     -1.259756    14A     -1.242605    15A     -1.057853
      16A     -0.983113    17A     -0.961357    18A     -0.867574
      19A     -0.845089    20A     -0.781539    21A     -0.726867
      22A     -0.682816    23A     -0.667252    24A     -0.664145
      25A     -0.652255    26A     -0.622747    27A     -0.589156
      28A     -0.586043    29A     -0.575503    30A     -0.564473
      31A     -0.543480    32A     -0.534448    33A     -0.481627
      34A     -0.464939    35A     -0.441305    36A     -0.380595
      37A     -0.350943

  @DF-RHF Final Energy:  -490.63089676052510

   => Energetics <=

    Nuclear Repulsion Energy =            528.8380221822704925
    One-Electron Energy =               -1717.7135814008358921
    Two-Electron Energy =                 698.2446624580402386
    Total Energy =                       -490.6308967605250473
  Basis Set: (AUG-CC-PVTZ AUX)
    Blend: AUG-CC-PVTZ-RI
    Molecular point group: c1

    Geometry (in Angstrom), charge = 0, multiplicity = 1:

       Center              X                  Y                   Z               Mass
    ------------   -----------------  -----------------  -----------------  -----------------
         O            1.600861549260    -0.941778777522     0.388135986341    15.994914619570
         O           -0.882075450740    -1.806066777522    -0.186028013659    15.994914619570
         N           -1.764510450740     0.305430222478     0.010169986341    14.003074004430
         N            1.165366549260     1.099098222478    -0.434077013659    14.003074004430
         C           -0.732964450740    -0.583963777522    -0.059773013659    12.000000000000
         C           -1.681413450740     1.711128222478     0.379419986341    12.000000000000
         C           -3.115900450740    -0.220812777522    -0.114394013659    12.000000000000
         C            0.660111549260    -0.045093777522    -0.022952013659    12.000000000000
         C            2.789442549260    -0.292247777522     0.229622986341    12.000000000000
         C            2.529745549260     0.949991222478    -0.272159013659    12.000000000000
         H           -2.119603450740     2.327054222478    -0.412819013659     1.007825032230
         H           -0.648307450740     2.012805222478     0.517847986341     1.007825032230
         H           -2.247790450740     1.876503222478     1.303397986341     1.007825032230
         H           -3.620817450740    -0.220241777522     0.858593986341     1.007825032230
         H           -3.061183450740    -1.240270777522    -0.490679013659     1.007825032230
         H           -3.631666250740     0.350460622478    -0.743678313659     1.007825032230
         H            3.676693549260    -0.834800777522     0.516607986341     1.007825032230
         H            3.223313549260     1.737294222478    -0.531116013659     1.007825032230

  Basis Set: AUG-CC-PVTZ
    Blend: AUG-CC-PVTZ
  Basis Set: (AUG-CC-PVTZ AUX)
    Blend: AUG-CC-PVTZ-JKFIT
	 Reference Energy          =    -490.6308967605251041 [Eh]
	 Singles Energy            =      -0.0000000000000000 [Eh]
	 Same-Spin Energy          =      -0.5065696488792757 [Eh]
	 Opposite-Spin Energy      =      -1.5495968185016740 [Eh]
	 Correlation Energy        =      -2.0561664673809497 [Eh]
	 Total Energy              =    -492.6870632279060374 [Eh]

	 ================> DF-SCS-MP2 Energies <==================
	-----------------------------------------------------------
	 SCS Same-Spin Scale       =       0.3333333333333333 [-]
	 SCS Opposite-Spin Scale   =       1.2000000000000000 [-]
	 SCS Same-Spin Energy      =      -0.1688565496264252 [Eh]
	 SCS Opposite-Spin Energy  =      -1.8595161822020088 [Eh]
	 SCS Correlation Energy    =      -2.0283727318284339 [Eh]
	 SCS Total Energy          =    -492.6592694923535305 [Eh]
	-----------------------------------------------------------

  Dipole Moment: [D]
     X:     0.3222      Y:     2.7952      Z:     0.9284     Total:     2.9629

*** Psi4 exiting successfully. Buy a developer a beer!
