                               Psi4 1.4a3.dev225

  ==> Input File <==

--------------------------------------------------------------------------
#psi4
#
memory 32 gb

molecule  {
0 1
  O        1.6580350    -0.9827140     0.3821500
  O       -0.8249020    -1.8470020    -0.1920140
  N       -1.7073370     0.2644950     0.0041840
  N        1.2225400     1.0581630    -0.4400630
  C       -0.6516946    -0.4274070    -0.0453562
  C       -1.6242400     1.6701930     0.3734340
  C       -3.0587270    -0.2617480    -0.1203800
  C        0.7172850    -0.0860290    -0.0289380
  C        2.8466160    -0.3331830     0.2236370
  C        2.5869190     0.9090560    -0.2781450
  H       -2.0624300     2.2861190    -0.4188050
  H       -0.5911340     1.9718700     0.5118620
  H       -2.1906170     1.8355680     1.2974120
  H       -3.5636440    -0.2611770     0.8526080
  H       -3.0040100    -1.2812060    -0.4966650
  H       -3.6263720     0.3669880    -0.8129620
  H        3.7338670    -0.8757360     0.5106220
  H        3.2804870     1.6963590    -0.5371020
units angstrom
no_reorient  #important for SAPT in psi4, default
symmetry c1  #important for SAPT in psi4, default
}

set PROPERTIES_ORIGIN ["COM"]
properties('MP2/aug-cc-pvtz', properties = ['dipole'])
--------------------------------------------------------------------------

    Molecular point group: c1
  Charge       = 0
  Multiplicity = 1
  Basis Set: AUG-CC-PVTZ
    Blend: AUG-CC-PVTZ
  Basis Set: (AUG-CC-PVTZ AUX)
    Blend: AUG-CC-PVTZ-JKFIT

    Orbital Energies [Eh]
    ---------------------

    Doubly Occupied:

       1A    -20.657987     2A    -20.485838     3A    -15.631587
       4A    -15.597066     5A    -11.364166     6A    -11.359799
       7A    -11.318424     8A    -11.279727     9A    -11.276708
      10A    -11.272654    11A     -1.500860    12A     -1.347668
      13A     -1.253308    14A     -1.210530    15A     -1.068837
      16A     -0.995751    17A     -0.983411    18A     -0.885656
      19A     -0.855109    20A     -0.787326    21A     -0.741001
      22A     -0.687379    23A     -0.677789    24A     -0.668385
      25A     -0.655346    26A     -0.630575    27A     -0.590008
      28A     -0.586713    29A     -0.574003    30A     -0.557964
      31A     -0.511244    32A     -0.501438    33A     -0.485722
      34A     -0.465488    35A     -0.402085    36A     -0.369881
      37A     -0.349200

  @DF-RHF Final Energy:  -490.57438581928653

   => Energetics <=

    Nuclear Repulsion Energy =            528.9208858437546041
    One-Electron Energy =               -1717.8172722292786148
    Two-Electron Energy =                 698.3220005662375343
    Total Energy =                       -490.5743858192864764
  Basis Set: (AUG-CC-PVTZ AUX)
    Blend: AUG-CC-PVTZ-RI
    Molecular point group: c1

    Geometry (in Angstrom), charge = 0, multiplicity = 1:

       Center              X                  Y                   Z               Mass
    ------------   -----------------  -----------------  -----------------  -----------------
         O            1.599170316579    -0.959113069287     0.386843380085    15.994914619570
         O           -0.883766683421    -1.823401069287    -0.187320619915    15.994914619570
         N           -1.766201683421     0.288095930713     0.008877380085    14.003074004430
         N            1.163675316579     1.081763930713    -0.435369619915    14.003074004430
         C           -0.710559283421    -0.403806069287    -0.040662819915    12.000000000000
         C           -1.683104683421     1.693793930713     0.378127380085    12.000000000000
         C           -3.117591683421    -0.238147069287    -0.115686619915    12.000000000000
         C            0.658420316579    -0.062428069287    -0.024244619915    12.000000000000
         C            2.787751316579    -0.309582069287     0.228330380085    12.000000000000
         C            2.528054316579     0.932656930713    -0.273451619915    12.000000000000
         H           -2.121294683421     2.309719930713    -0.414111619915     1.007825032230
         H           -0.649998683421     1.995470930713     0.516555380085     1.007825032230
         H           -2.249481683421     1.859168930713     1.302105380085     1.007825032230
         H           -3.622508683421    -0.237576069287     0.857301380085     1.007825032230
         H           -3.062874683421    -1.257605069287    -0.491971619915     1.007825032230
         H           -3.685236683421     0.390588930713    -0.808268619915     1.007825032230
         H            3.675002316579    -0.852135069287     0.515315380085     1.007825032230
         H            3.221622316579     1.719959930713    -0.532408619915     1.007825032230

  Basis Set: AUG-CC-PVTZ
    Blend: AUG-CC-PVTZ
  Basis Set: (AUG-CC-PVTZ AUX)
    Blend: AUG-CC-PVTZ-JKFIT
	 Reference Energy          =    -490.5743858192865332 [Eh]
	 Singles Energy            =      -0.0000000000000000 [Eh]
	 Same-Spin Energy          =      -0.5111594395966520 [Eh]
	 Opposite-Spin Energy      =      -1.5591885600621147 [Eh]
	 Correlation Energy        =      -2.0703479996587668 [Eh]
	 Total Energy              =    -492.6447338189453262 [Eh]

	 ================> DF-SCS-MP2 Energies <==================
	-----------------------------------------------------------
	 SCS Same-Spin Scale       =       0.3333333333333333 [-]
	 SCS Opposite-Spin Scale   =       1.2000000000000000 [-]
	 SCS Same-Spin Energy      =      -0.1703864798655507 [Eh]
	 SCS Opposite-Spin Energy  =      -1.8710262720745376 [Eh]
	 SCS Correlation Energy    =      -2.0414127519400882 [Eh]
	 SCS Total Energy          =    -492.6157985712266054 [Eh]
	-----------------------------------------------------------

  Dipole Moment: [D]
     X:     0.0476      Y:     3.9542      Z:     1.1108     Total:     4.1075

*** Psi4 exiting successfully. Buy a developer a beer!
