                               Psi4 1.4a3.dev225

  ==> Input File <==

--------------------------------------------------------------------------
#psi4
#
memory 32 gb

molecule  {
0 1
  O        1.6580350    -0.9827140     0.3821500
  O       -0.8249020    -1.8470020    -0.1920140
  N       -1.7073370     0.2644950     0.0041840
  N        1.2225400     1.0581630    -0.4400630
  C       -0.6757910    -0.6248990    -0.0657590
  C       -1.6242400     1.6701930     0.3734340
  C       -3.0587270    -0.2617480    -0.1203800
  C        0.7172850    -0.0860290    -0.0289380
  C        2.8466160    -0.3331830     0.2236370
  C        2.5869190     0.9090560    -0.2781450
  H       -2.0624300     2.2861190    -0.4188050
  H       -0.5911340     1.9718700     0.5118620
  H       -2.1906170     1.8355680     1.2974120
  H       -3.5636440    -0.2611770     0.8526080
  H       -3.0040100    -1.2812060    -0.4966650
  H       -3.6523116     0.3957193    -0.8446108
  H        3.7338670    -0.8757360     0.5106220
  H        3.2804870     1.6963590    -0.5371020
units angstrom
no_reorient  #important for SAPT in psi4, default
symmetry c1  #important for SAPT in psi4, default
}

set PROPERTIES_ORIGIN ["COM"]
properties('MP2/aug-cc-pvtz', properties = ['dipole'])
--------------------------------------------------------------------------

    Molecular point group: c1
  Charge       = 0
  Multiplicity = 1
  Basis Set: AUG-CC-PVTZ
    Blend: AUG-CC-PVTZ
  Basis Set: (AUG-CC-PVTZ AUX)
    Blend: AUG-CC-PVTZ-JKFIT

    Orbital Energies [Eh]
    ---------------------

    Doubly Occupied:

       1A    -20.653859     2A    -20.528267     3A    -15.602640
       4A    -15.592039     5A    -11.374648     6A    -11.356567
       7A    -11.312620     8A    -11.277310     9A    -11.266496
      10A    -11.265377    11A     -1.498703    12A     -1.382906
      13A     -1.260182    14A     -1.242966    15A     -1.057846
      16A     -0.975729    17A     -0.957930    18A     -0.865386
      19A     -0.843442    20A     -0.780833    21A     -0.727583
      22A     -0.682454    23A     -0.667793    24A     -0.659242
      25A     -0.651648    26A     -0.621899    27A     -0.588392
      28A     -0.585521    29A     -0.566485    30A     -0.557611
      31A     -0.539214    32A     -0.535612    33A     -0.482133
      34A     -0.465330    35A     -0.442331    36A     -0.380507
      37A     -0.351334

  @DF-RHF Final Energy:  -490.63472995975718

   => Energetics <=

    Nuclear Repulsion Energy =            528.1112630692840639
    One-Electron Energy =               -1716.2903150010677109
    Two-Electron Energy =                 697.5443219720265233
    Total Energy =                       -490.6347299597572373
  Basis Set: (AUG-CC-PVTZ AUX)
    Blend: AUG-CC-PVTZ-RI
    Molecular point group: c1

    Geometry (in Angstrom), charge = 0, multiplicity = 1:

       Center              X                  Y                   Z               Mass
    ------------   -----------------  -----------------  -----------------  -----------------
         O            1.601421513070    -0.942399006369     0.388819196617    15.994914619570
         O           -0.881515486930    -1.806687006369    -0.185344803383    15.994914619570
         N           -1.763950486930     0.304809993631     0.010853196617    14.003074004430
         N            1.165926513070     1.098477993631    -0.433393803383    14.003074004430
         C           -0.732404486930    -0.584584006369    -0.059089803383    12.000000000000
         C           -1.680853486930     1.710507993631     0.380103196617    12.000000000000
         C           -3.115340486930    -0.221433006369    -0.113710803383    12.000000000000
         C            0.660671513070    -0.045714006369    -0.022268803383    12.000000000000
         C            2.790002513070    -0.292868006369     0.230306196617    12.000000000000
         C            2.530305513070     0.949370993631    -0.271475803383    12.000000000000
         H           -2.119043486930     2.326433993631    -0.412135803383     1.007825032230
         H           -0.647747486930     2.012184993631     0.518531196617     1.007825032230
         H           -2.247230486930     1.875882993631     1.304081196617     1.007825032230
         H           -3.620257486930    -0.220862006369     0.859277196617     1.007825032230
         H           -3.060623486930    -1.240891006369    -0.489995803383     1.007825032230
         H           -3.708925086930     0.436034293631    -0.837941603383     1.007825032230
         H            3.677253513070    -0.835421006369     0.517291196617     1.007825032230
         H            3.223873513070     1.736673993631    -0.530432803383     1.007825032230

  Basis Set: AUG-CC-PVTZ
    Blend: AUG-CC-PVTZ
  Basis Set: (AUG-CC-PVTZ AUX)
    Blend: AUG-CC-PVTZ-JKFIT
	 Reference Energy          =    -490.6347299597571805 [Eh]
	 Singles Energy            =      -0.0000000000000000 [Eh]
	 Same-Spin Energy          =      -0.5065986199981176 [Eh]
	 Opposite-Spin Energy      =      -1.5504422199620771 [Eh]
	 Correlation Energy        =      -2.0570408399601945 [Eh]
	 Total Energy              =    -492.6917707997173466 [Eh]

	 ================> DF-SCS-MP2 Energies <==================
	-----------------------------------------------------------
	 SCS Same-Spin Scale       =       0.3333333333333333 [-]
	 SCS Opposite-Spin Scale   =       1.2000000000000000 [-]
	 SCS Same-Spin Energy      =      -0.1688662066660392 [Eh]
	 SCS Opposite-Spin Energy  =      -1.8605306639544925 [Eh]
	 SCS Correlation Energy    =      -2.0293968706205319 [Eh]
	 SCS Total Energy          =    -492.6641268303777110 [Eh]
	-----------------------------------------------------------

  Dipole Moment: [D]
     X:     0.4068      Y:     2.7609      Z:     0.9730     Total:     2.9554

*** Psi4 exiting successfully. Buy a developer a beer!
