                               Psi4 1.4a3.dev225

  ==> Input File <==

--------------------------------------------------------------------------
#psi4
#
memory 32 gb

molecule  {
0 1
  O        1.6580350    -0.9827140     0.3821500
  O       -0.8249020    -1.8470020    -0.1920140
  N       -1.7073370     0.2644950     0.0041840
  N        1.2225400     1.0581630    -0.4400630
  C       -0.6757910    -0.6248990    -0.0657590
  C       -1.6242400     1.6701930     0.3734340
  C       -3.0587270    -0.2617480    -0.1203800
  C        0.7172850    -0.0860290    -0.0289380
  C        2.8466160    -0.3331830     0.2236370
  C        2.5869190     0.9090560    -0.2781450
  H       -2.0624300     2.2861190    -0.4188050
  H       -0.5911340     1.9718700     0.5118620
  H       -2.1906170     1.8355680     1.2974120
  H       -3.5636440    -0.2611770     0.8526080
  H       -3.0040100    -1.2812060    -0.4966650
  H       -3.7301305     0.4819131    -0.9395574
  H        3.7338670    -0.8757360     0.5106220
  H        3.2804870     1.6963590    -0.5371020
units angstrom
no_reorient  #important for SAPT in psi4, default
symmetry c1  #important for SAPT in psi4, default
}

set PROPERTIES_ORIGIN ["COM"]
properties('MP2/aug-cc-pvtz', properties = ['dipole'])
--------------------------------------------------------------------------

    Molecular point group: c1
  Charge       = 0
  Multiplicity = 1
  Basis Set: AUG-CC-PVTZ
    Blend: AUG-CC-PVTZ
  Basis Set: (AUG-CC-PVTZ AUX)
    Blend: AUG-CC-PVTZ-JKFIT

    Orbital Energies [Eh]
    ---------------------

    Doubly Occupied:

       1A    -20.654633     2A    -20.529963     3A    -15.605196
       4A    -15.592858     5A    -11.376403     6A    -11.357415
       7A    -11.313339     8A    -11.282168     9A    -11.277941
      10A    -11.266716    11A     -1.499469    12A     -1.384565
      13A     -1.261323    14A     -1.243836    15A     -1.058425
      16A     -0.973847    17A     -0.955093    18A     -0.864607
      19A     -0.842528    20A     -0.780835    21A     -0.728842
      22A     -0.682945    23A     -0.669042    24A     -0.658401
      25A     -0.650509    26A     -0.621921    27A     -0.588984
      28A     -0.586167    29A     -0.567490    30A     -0.551767
      31A     -0.537683    32A     -0.519636    33A     -0.482892
      34A     -0.465900    35A     -0.443849    36A     -0.380394
      37A     -0.351933

  @DF-RHF Final Energy:  -490.61682252835374

   => Energetics <=

    Nuclear Repulsion Energy =            527.4941403345429762
    One-Electron Energy =               -1715.0028976972421333
    Two-Electron Energy =                 696.8919348343455340
    Total Energy =                       -490.6168225283537367
  Basis Set: (AUG-CC-PVTZ AUX)
    Blend: AUG-CC-PVTZ-RI
    Molecular point group: c1

    Geometry (in Angstrom), charge = 0, multiplicity = 1:

       Center              X                  Y                   Z               Mass
    ------------   -----------------  -----------------  -----------------  -----------------
         O            1.601981477599    -0.943019234496     0.389502407613    15.994914619570
         O           -0.880955522401    -1.807307234496    -0.184661592387    15.994914619570
         N           -1.763390522401     0.304189765504     0.011536407613    14.003074004430
         N            1.166486477599     1.097857765504    -0.432710592387    14.003074004430
         C           -0.731844522401    -0.585204234496    -0.058406592387    12.000000000000
         C           -1.680293522401     1.709887765504     0.380786407613    12.000000000000
         C           -3.114780522401    -0.222053234496    -0.113027592387    12.000000000000
         C            0.661231477599    -0.046334234496    -0.021585592387    12.000000000000
         C            2.790562477599    -0.293488234496     0.230989407613    12.000000000000
         C            2.530865477599     0.948750765504    -0.270792592387    12.000000000000
         H           -2.118483522401     2.325813765504    -0.411452592387     1.007825032230
         H           -0.647187522401     2.011564765504     0.519214407613     1.007825032230
         H           -2.246670522401     1.875262765504     1.304764407613     1.007825032230
         H           -3.619697522401    -0.221482234496     0.859960407613     1.007825032230
         H           -3.060063522401    -1.241511234496    -0.489312592387     1.007825032230
         H           -3.786184022401     0.521607865504    -0.932204992387     1.007825032230
         H            3.677813477599    -0.836041234496     0.517974407613     1.007825032230
         H            3.224433477599     1.736053765504    -0.529749592387     1.007825032230

  Basis Set: AUG-CC-PVTZ
    Blend: AUG-CC-PVTZ
  Basis Set: (AUG-CC-PVTZ AUX)
    Blend: AUG-CC-PVTZ-JKFIT
	 Reference Energy          =    -490.6168225283537367 [Eh]
	 Singles Energy            =      -0.0000000000000000 [Eh]
	 Same-Spin Energy          =      -0.5066798133469012 [Eh]
	 Opposite-Spin Energy      =      -1.5517317946290350 [Eh]
	 Correlation Energy        =      -2.0584116079759363 [Eh]
	 Total Energy              =    -492.6752341363296637 [Eh]

	 ================> DF-SCS-MP2 Energies <==================
	-----------------------------------------------------------
	 SCS Same-Spin Scale       =       0.3333333333333333 [-]
	 SCS Opposite-Spin Scale   =       1.2000000000000000 [-]
	 SCS Same-Spin Energy      =      -0.1688932711156337 [Eh]
	 SCS Opposite-Spin Energy  =      -1.8620781535548419 [Eh]
	 SCS Correlation Energy    =      -2.0309714246704758 [Eh]
	 SCS Total Energy          =    -492.6477939530242338 [Eh]
	-----------------------------------------------------------

  Dipole Moment: [D]
     X:     0.5346      Y:     2.7087      Z:     1.0408     Total:     2.9506

*** Psi4 exiting successfully. Buy a developer a beer!
