                               Psi4 1.4a3.dev225

  ==> Input File <==

--------------------------------------------------------------------------
#psi4
#
memory 32 gb

molecule  {
0 1
  O        1.6580350    -0.9827140     0.3821500
  O       -0.8249020    -1.8470020    -0.1920140
  N       -1.7073370     0.2644950     0.0041840
  N        1.2225400     1.0581630    -0.4400630
  C       -0.6757910    -0.6248990    -0.0657590
  C       -1.6242400     1.6701930     0.3734340
  C       -3.0587270    -0.2617480    -0.1203800
  C        0.7172850    -0.0860290    -0.0289380
  C        2.8466160    -0.3331830     0.2236370
  C        2.7279006     0.9317699    -0.2745460
  H       -2.0624300     2.2861190    -0.4188050
  H       -0.5911340     1.9718700     0.5118620
  H       -2.1906170     1.8355680     1.2974120
  H       -3.5636440    -0.2611770     0.8526080
  H       -3.0040100    -1.2812060    -0.4966650
  H       -3.6263720     0.3669880    -0.8129620
  H        3.7338670    -0.8757360     0.5106220
  H        3.2804870     1.6963590    -0.5371020
units angstrom
no_reorient  #important for SAPT in psi4, default
symmetry c1  #important for SAPT in psi4, default
}

set PROPERTIES_ORIGIN ["COM"]
properties('MP2/aug-cc-pvtz', properties = ['dipole'])
--------------------------------------------------------------------------

    Molecular point group: c1
  Charge       = 0
  Multiplicity = 1
  Basis Set: AUG-CC-PVTZ
    Blend: AUG-CC-PVTZ
  Basis Set: (AUG-CC-PVTZ AUX)
    Blend: AUG-CC-PVTZ-JKFIT

    Orbital Energies [Eh]
    ---------------------

    Doubly Occupied:

       1A    -20.651655     2A    -20.529045     3A    -15.602109
       4A    -15.594223     5A    -11.375181     6A    -11.356308
       7A    -11.322218     8A    -11.280565     9A    -11.265378
      10A    -11.259373    11A     -1.493828    12A     -1.383279
      13A     -1.256502    14A     -1.213014    15A     -1.060480
      16A     -0.977090    17A     -0.960212    18A     -0.877105
      19A     -0.838875    20A     -0.778646    21A     -0.726556
      22A     -0.679544    23A     -0.665906    24A     -0.660406
      25A     -0.650953    26A     -0.638354    27A     -0.592620
      28A     -0.578427    29A     -0.566507    30A     -0.561553
      31A     -0.541418    32A     -0.535545    33A     -0.469358
      34A     -0.446352    35A     -0.438662    36A     -0.380522
      37A     -0.363196

  @DF-RHF Final Energy:  -490.61364919328446

   => Energetics <=

    Nuclear Repulsion Energy =            525.4610150196699578
    One-Electron Energy =               -1711.0074014269330291
    Two-Electron Energy =                 694.9327372139786121
    Total Energy =                       -490.6136491932844592
  Basis Set: (AUG-CC-PVTZ AUX)
    Blend: AUG-CC-PVTZ-RI
    Molecular point group: c1

    Geometry (in Angstrom), charge = 0, multiplicity = 1:

       Center              X                  Y                   Z               Mass
    ------------   -----------------  -----------------  -----------------  -----------------
         O            1.589155775342    -0.944138354868     0.388283103403    15.994914619570
         O           -0.893781224658    -1.808426354868    -0.185880896597    15.994914619570
         N           -1.776216224658     0.303070645132     0.010317103403    14.003074004430
         N            1.153660775342     1.096738645132    -0.433929896597    14.003074004430
         C           -0.744670224658    -0.586323354868    -0.059625896597    12.000000000000
         C           -1.693119224658     1.708768645132     0.379567103403    12.000000000000
         C           -3.127606224658    -0.223172354868    -0.114246896597    12.000000000000
         C            0.648405775342    -0.047453354868    -0.022804896597    12.000000000000
         C            2.777736775342    -0.294607354868     0.229770103403    12.000000000000
         C            2.659021375342     0.970345545132    -0.268412896597    12.000000000000
         H           -2.131309224658     2.324694645132    -0.412671896597     1.007825032230
         H           -0.660013224658     2.010445645132     0.517995103403     1.007825032230
         H           -2.259496224658     1.874143645132     1.303545103403     1.007825032230
         H           -3.632523224658    -0.222601354868     0.858741103403     1.007825032230
         H           -3.072889224658    -1.242630354868    -0.490531896597     1.007825032230
         H           -3.695251224658     0.405563645132    -0.806828896597     1.007825032230
         H            3.664987775342    -0.837160354868     0.516755103403     1.007825032230
         H            3.211607775342     1.734934645132    -0.530968896597     1.007825032230

  Basis Set: AUG-CC-PVTZ
    Blend: AUG-CC-PVTZ
  Basis Set: (AUG-CC-PVTZ AUX)
    Blend: AUG-CC-PVTZ-JKFIT
	 Reference Energy          =    -490.6136491932844592 [Eh]
	 Singles Energy            =      -0.0000000000000000 [Eh]
	 Same-Spin Energy          =      -0.5053678630515895 [Eh]
	 Opposite-Spin Energy      =      -1.5520086450387240 [Eh]
	 Correlation Energy        =      -2.0573765080903135 [Eh]
	 Total Energy              =    -492.6710257013747878 [Eh]

	 ================> DF-SCS-MP2 Energies <==================
	-----------------------------------------------------------
	 SCS Same-Spin Scale       =       0.3333333333333333 [-]
	 SCS Opposite-Spin Scale   =       1.2000000000000000 [-]
	 SCS Same-Spin Energy      =      -0.1684559543505298 [Eh]
	 SCS Opposite-Spin Energy  =      -1.8624103740464688 [Eh]
	 SCS Correlation Energy    =      -2.0308663283969985 [Eh]
	 SCS Total Energy          =    -492.6445155216814555 [Eh]
	-----------------------------------------------------------

  Dipole Moment: [D]
     X:     0.3271      Y:     2.7929      Z:     0.9431     Total:     2.9659

*** Psi4 exiting successfully. Buy a developer a beer!
