                               Psi4 1.4a3.dev225

  ==> Input File <==

--------------------------------------------------------------------------
#psi4
#
memory 32 gb

molecule  {
0 1
  O        1.6580350    -0.9827140     0.3821500
  O       -0.8249020    -1.8470020    -0.1920140
  N       -1.7073370     0.2644950     0.0041840
  N        1.2225400     1.0581630    -0.4400630
  C       -0.6757910    -0.6248990    -0.0657590
  C       -1.6242400     1.6701930     0.3734340
  C       -3.0587270    -0.2617480    -0.1203800
  C        0.7172850    -0.0860290    -0.0289380
  C        2.8640474    -0.3236572     0.2213123
  C        2.5869190     0.9090560    -0.2781450
  H       -2.0624300     2.2861190    -0.4188050
  H       -0.5911340     1.9718700     0.5118620
  H       -2.1906170     1.8355680     1.2974120
  H       -3.5636440    -0.2611770     0.8526080
  H       -3.0040100    -1.2812060    -0.4966650
  H       -3.6263720     0.3669880    -0.8129620
  H        3.7338670    -0.8757360     0.5106220
  H        3.2804870     1.6963590    -0.5371020
units angstrom
no_reorient  #important for SAPT in psi4, default
symmetry c1  #important for SAPT in psi4, default
}

set PROPERTIES_ORIGIN ["COM"]
properties('MP2/aug-cc-pvtz', properties = ['dipole'])
--------------------------------------------------------------------------

    Molecular point group: c1
  Charge       = 0
  Multiplicity = 1
  Basis Set: AUG-CC-PVTZ
    Blend: AUG-CC-PVTZ
  Basis Set: (AUG-CC-PVTZ AUX)
    Blend: AUG-CC-PVTZ-JKFIT

    Orbital Energies [Eh]
    ---------------------

    Doubly Occupied:

       1A    -20.650702     2A    -20.528215     3A    -15.602281
       4A    -15.591039     5A    -11.374468     6A    -11.357473
       7A    -11.311443     8A    -11.277971     9A    -11.266628
      10A    -11.259574    11A     -1.491009    12A     -1.382528
      13A     -1.259780    14A     -1.241870    15A     -1.058254
      16A     -0.977600    17A     -0.959909    18A     -0.864743
      19A     -0.843995    20A     -0.778829    21A     -0.727277
      22A     -0.680080    23A     -0.666258    24A     -0.660755
      25A     -0.650609    26A     -0.622249    27A     -0.588358
      28A     -0.585205    29A     -0.567018    30A     -0.562207
      31A     -0.541584    32A     -0.535151    33A     -0.481811
      34A     -0.464402    35A     -0.442129    36A     -0.380697
      37A     -0.353433

  @DF-RHF Final Energy:  -490.63611816035439

   => Energetics <=

    Nuclear Repulsion Energy =            527.9722279221914505
    One-Electron Energy =               -1716.0416232360771573
    Two-Electron Energy =                 697.4332771535313213
    Total Energy =                       -490.6361181603543855
  Basis Set: (AUG-CC-PVTZ AUX)
    Blend: AUG-CC-PVTZ-RI
    Molecular point group: c1

    Geometry (in Angstrom), charge = 0, multiplicity = 1:

       Center              X                  Y                   Z               Mass
    ------------   -----------------  -----------------  -----------------  -----------------
         O            1.599741363361    -0.943008419074     0.388790636760    15.994914619570
         O           -0.883195636639    -1.807296419074    -0.185373363240    15.994914619570
         N           -1.765630636639     0.304200580926     0.010824636760    14.003074004430
         N            1.164246363361     1.097868580926    -0.433422363240    14.003074004430
         C           -0.734084636639    -0.585193419074    -0.059118363240    12.000000000000
         C           -1.682533636639     1.709898580926     0.380074636760    12.000000000000
         C           -3.117020636639    -0.222042419074    -0.113739363240    12.000000000000
         C            0.658991363361    -0.046323419074    -0.022297363240    12.000000000000
         C            2.805753763361    -0.283951619074     0.227952936760    12.000000000000
         C            2.528625363361     0.948761580926    -0.271504363240    12.000000000000
         H           -2.120723636639     2.325824580926    -0.412164363240     1.007825032230
         H           -0.649427636639     2.011575580926     0.518502636760     1.007825032230
         H           -2.248910636639     1.875273580926     1.304052636760     1.007825032230
         H           -3.621937636639    -0.221471419074     0.859248636760     1.007825032230
         H           -3.062303636639    -1.241500419074    -0.490024363240     1.007825032230
         H           -3.684665636639     0.406693580926    -0.806321363240     1.007825032230
         H            3.675573363361    -0.836030419074     0.517262636760     1.007825032230
         H            3.222193363361     1.736064580926    -0.530461363240     1.007825032230

  Basis Set: AUG-CC-PVTZ
    Blend: AUG-CC-PVTZ
  Basis Set: (AUG-CC-PVTZ AUX)
    Blend: AUG-CC-PVTZ-JKFIT
	 Reference Energy          =    -490.6361181603543855 [Eh]
	 Singles Energy            =      -0.0000000000000000 [Eh]
	 Same-Spin Energy          =      -0.5064541389436985 [Eh]
	 Opposite-Spin Energy      =      -1.5503483017898232 [Eh]
	 Correlation Energy        =      -2.0568024407335219 [Eh]
	 Total Energy              =    -492.6929206010879057 [Eh]

	 ================> DF-SCS-MP2 Energies <==================
	-----------------------------------------------------------
	 SCS Same-Spin Scale       =       0.3333333333333333 [-]
	 SCS Opposite-Spin Scale   =       1.2000000000000000 [-]
	 SCS Same-Spin Energy      =      -0.1688180463145662 [Eh]
	 SCS Opposite-Spin Energy  =      -1.8604179621477877 [Eh]
	 SCS Correlation Energy    =      -2.0292360084623540 [Eh]
	 SCS Total Energy          =    -492.6653541688167479 [Eh]
	-----------------------------------------------------------

  Dipole Moment: [D]
     X:     0.3789      Y:     2.7916      Z:     0.9493     Total:     2.9728

*** Psi4 exiting successfully. Buy a developer a beer!
