                               Psi4 1.4a3.dev225

  ==> Input File <==

--------------------------------------------------------------------------
#psi4
#
memory 32 gb

molecule  {
0 1
  O        1.6580350    -0.9827140     0.3821500
  O       -0.8249020    -1.8470020    -0.1920140
  N       -1.7073370     0.2644950     0.0041840
  N        1.2225400     1.0581630    -0.4400630
  C       -0.6757910    -0.6248990    -0.0657590
  C       -1.6242400     1.6701930     0.3734340
  C       -3.0587270    -0.2617480    -0.1203800
  C        0.7172850    -0.0860290    -0.0289380
  C        2.8466160    -0.3331830     0.2236370
  C        2.6059487     0.8180290    -0.2413761
  H       -2.0624300     2.2861190    -0.4188050
  H       -0.5911340     1.9718700     0.5118620
  H       -2.1906170     1.8355680     1.2974120
  H       -3.5636440    -0.2611770     0.8526080
  H       -3.0040100    -1.2812060    -0.4966650
  H       -3.6263720     0.3669880    -0.8129620
  H        3.7338670    -0.8757360     0.5106220
  H        3.2804870     1.6963590    -0.5371020
units angstrom
no_reorient  #important for SAPT in psi4, default
symmetry c1  #important for SAPT in psi4, default
}

set PROPERTIES_ORIGIN ["COM"]
properties('MP2/aug-cc-pvtz', properties = ['dipole'])
--------------------------------------------------------------------------

    Molecular point group: c1
  Charge       = 0
  Multiplicity = 1
  Basis Set: AUG-CC-PVTZ
    Blend: AUG-CC-PVTZ
  Basis Set: (AUG-CC-PVTZ AUX)
    Blend: AUG-CC-PVTZ-JKFIT

    Orbital Energies [Eh]
    ---------------------

    Doubly Occupied:

       1A    -20.645139     2A    -20.529375     3A    -15.603256
       4A    -15.591922     5A    -11.375075     6A    -11.359141
       7A    -11.296409     8A    -11.268348     9A    -11.267253
      10A    -11.260222    11A     -1.498576    12A     -1.383761
      13A     -1.259333    14A     -1.236873    15A     -1.073412
      16A     -0.979071    17A     -0.963888    18A     -0.872937
      19A     -0.833139    20A     -0.776603    21A     -0.728502
      22A     -0.683501    23A     -0.667363    24A     -0.660246
      25A     -0.653217    26A     -0.604955    27A     -0.588757
      28A     -0.576504    29A     -0.567321    30A     -0.562833
      31A     -0.542531    32A     -0.535983    33A     -0.487637
      34A     -0.460457    35A     -0.442402    36A     -0.381821
      37A     -0.371704

  @DF-RHF Final Energy:  -490.62579091025566

   => Energetics <=

    Nuclear Repulsion Energy =            529.5135817433963439
    One-Electron Energy =               -1719.0998127263439983
    Two-Electron Energy =                 698.9604400726919948
    Total Energy =                       -490.6257909102556596
  Basis Set: (AUG-CC-PVTZ AUX)
    Blend: AUG-CC-PVTZ-RI
    Molecular point group: c1

    Geometry (in Angstrom), charge = 0, multiplicity = 1:

       Center              X                  Y                   Z               Mass
    ------------   -----------------  -----------------  -----------------  -----------------
         O            1.599604423515    -0.934393212341     0.385441158218    15.994914619570
         O           -0.883332576485    -1.798681212341    -0.188722841782    15.994914619570
         N           -1.765767576485     0.312815787659     0.007475158218    14.003074004430
         N            1.164109423515     1.106483787659    -0.436771841782    14.003074004430
         C           -0.734221576485    -0.576578212341    -0.062467841782    12.000000000000
         C           -1.682670576485     1.718513787659     0.376725158218    12.000000000000
         C           -3.117157576485    -0.213427212341    -0.117088841782    12.000000000000
         C            0.658854423515    -0.037708212341    -0.025646841782    12.000000000000
         C            2.788185423515    -0.284862212341     0.226928158218    12.000000000000
         C            2.547518123515     0.866349787659    -0.238084941782    12.000000000000
         H           -2.120860576485     2.334439787659    -0.415513841782     1.007825032230
         H           -0.649564576485     2.020190787659     0.515153158218     1.007825032230
         H           -2.249047576485     1.883888787659     1.300703158218     1.007825032230
         H           -3.622074576485    -0.212856212341     0.855899158218     1.007825032230
         H           -3.062440576485    -1.232885212341    -0.493373841782     1.007825032230
         H           -3.684802576485     0.415308787659    -0.809670841782     1.007825032230
         H            3.675436423515    -0.827415212341     0.513913158218     1.007825032230
         H            3.222056423515     1.744679787659    -0.533810841782     1.007825032230

  Basis Set: AUG-CC-PVTZ
    Blend: AUG-CC-PVTZ
  Basis Set: (AUG-CC-PVTZ AUX)
    Blend: AUG-CC-PVTZ-JKFIT
	 Reference Energy          =    -490.6257909102556596 [Eh]
	 Singles Energy            =      -0.0000000000000000 [Eh]
	 Same-Spin Energy          =      -0.5048154852836964 [Eh]
	 Opposite-Spin Energy      =      -1.5478955335899269 [Eh]
	 Correlation Energy        =      -2.0527110188736231 [Eh]
	 Total Energy              =    -492.6785019291293111 [Eh]

	 ================> DF-SCS-MP2 Energies <==================
	-----------------------------------------------------------
	 SCS Same-Spin Scale       =       0.3333333333333333 [-]
	 SCS Opposite-Spin Scale   =       1.2000000000000000 [-]
	 SCS Same-Spin Energy      =      -0.1682718284278988 [Eh]
	 SCS Opposite-Spin Energy  =      -1.8574746403079123 [Eh]
	 SCS Correlation Energy    =      -2.0257464687358109 [Eh]
	 SCS Total Energy          =    -492.6515373789914634 [Eh]
	-----------------------------------------------------------

  Dipole Moment: [D]
     X:     0.2518      Y:     2.7179      Z:     0.9745     Total:     2.8983

*** Psi4 exiting successfully. Buy a developer a beer!
