                               Psi4 1.4a3.dev225

  ==> Input File <==

--------------------------------------------------------------------------
#psi4
#
memory 32 gb

molecule  {
0 1
  O        1.5871857    -1.0433523     0.4010072
  O       -0.8249020    -1.8470020    -0.1920140
  N       -1.7073370     0.2644950     0.0041840
  N        1.2225400     1.0581630    -0.4400630
  C       -0.6757910    -0.6248990    -0.0657590
  C       -1.6242400     1.6701930     0.3734340
  C       -3.0587270    -0.2617480    -0.1203800
  C        0.7172850    -0.0860290    -0.0289380
  C        2.8466160    -0.3331830     0.2236370
  C        2.5869190     0.9090560    -0.2781450
  H       -2.0624300     2.2861190    -0.4188050
  H       -0.5911340     1.9718700     0.5118620
  H       -2.1906170     1.8355680     1.2974120
  H       -3.5636440    -0.2611770     0.8526080
  H       -3.0040100    -1.2812060    -0.4966650
  H       -3.6263720     0.3669880    -0.8129620
  H        3.7338670    -0.8757360     0.5106220
  H        3.2804870     1.6963590    -0.5371020
units angstrom
no_reorient  #important for SAPT in psi4, default
symmetry c1  #important for SAPT in psi4, default
}

set PROPERTIES_ORIGIN ["COM"]
properties('MP2/aug-cc-pvtz', properties = ['dipole'])
--------------------------------------------------------------------------

    Molecular point group: c1
  Charge       = 0
  Multiplicity = 1
  Basis Set: AUG-CC-PVTZ
    Blend: AUG-CC-PVTZ
  Basis Set: (AUG-CC-PVTZ AUX)
    Blend: AUG-CC-PVTZ-JKFIT

    Orbital Energies [Eh]
    ---------------------

    Doubly Occupied:

       1A    -20.651866     2A    -20.526962     3A    -15.601093
       4A    -15.591494     5A    -11.371515     6A    -11.361054
       7A    -11.316932     8A    -11.286718     9A    -11.266274
      10A    -11.258662    11A     -1.472611    12A     -1.380007
      13A     -1.260455    14A     -1.243899    15A     -1.052515
      16A     -0.976702    17A     -0.958697    18A     -0.862450
      19A     -0.841044    20A     -0.772368    21A     -0.724419
      22A     -0.673132    23A     -0.663094    24A     -0.653140
      25A     -0.644964    26A     -0.622398    27A     -0.596338
      28A     -0.583335    29A     -0.564573    30A     -0.561361
      31A     -0.540086    32A     -0.532694    33A     -0.482675
      34A     -0.468175    35A     -0.440238    36A     -0.379655
      37A     -0.355192

  @DF-RHF Final Energy:  -490.62478395367049

   => Energetics <=

    Nuclear Repulsion Energy =            527.1729528075481994
    One-Electron Energy =               -1714.5178974538225702
    Two-Electron Energy =                 696.7201606926039403
    Total Energy =                       -490.6247839536704305
  Basis Set: (AUG-CC-PVTZ AUX)
    Blend: AUG-CC-PVTZ-RI
    Molecular point group: c1

    Geometry (in Angstrom), charge = 0, multiplicity = 1:

       Center              X                  Y                   Z               Mass
    ------------   -----------------  -----------------  -----------------  -----------------
         O            1.538476662379    -0.995905572117     0.405295137555    15.994914619570
         O           -0.873611037621    -1.799555272117    -0.187726062445    15.994914619570
         N           -1.756046037621     0.311941727883     0.008471937555    14.003074004430
         N            1.173830962379     1.105609727883    -0.435775062445    14.003074004430
         C           -0.724500037621    -0.577452272117    -0.061471062445    12.000000000000
         C           -1.672949037621     1.717639727883     0.377721937555    12.000000000000
         C           -3.107436037621    -0.214301272117    -0.116092062445    12.000000000000
         C            0.668575962379    -0.038582272117    -0.024650062445    12.000000000000
         C            2.797906962379    -0.285736272117     0.227924937555    12.000000000000
         C            2.538209962379     0.956502727883    -0.273857062445    12.000000000000
         H           -2.111139037621     2.333565727883    -0.414517062445     1.007825032230
         H           -0.639843037621     2.019316727883     0.516149937555     1.007825032230
         H           -2.239326037621     1.883014727883     1.301699937555     1.007825032230
         H           -3.612353037621    -0.213730272117     0.856895937555     1.007825032230
         H           -3.052719037621    -1.233759272117    -0.492377062445     1.007825032230
         H           -3.675081037621     0.414434727883    -0.808674062445     1.007825032230
         H            3.685157962379    -0.828289272117     0.514909937555     1.007825032230
         H            3.231777962379     1.743805727883    -0.532814062445     1.007825032230

  Basis Set: AUG-CC-PVTZ
    Blend: AUG-CC-PVTZ
  Basis Set: (AUG-CC-PVTZ AUX)
    Blend: AUG-CC-PVTZ-JKFIT
	 Reference Energy          =    -490.6247839536704873 [Eh]
	 Singles Energy            =      -0.0000000000000000 [Eh]
	 Same-Spin Energy          =      -0.5069672900655352 [Eh]
	 Opposite-Spin Energy      =      -1.5535270340106160 [Eh]
	 Correlation Energy        =      -2.0604943240761511 [Eh]
	 Total Energy              =    -492.6852782777466473 [Eh]

	 ================> DF-SCS-MP2 Energies <==================
	-----------------------------------------------------------
	 SCS Same-Spin Scale       =       0.3333333333333333 [-]
	 SCS Opposite-Spin Scale   =       1.2000000000000000 [-]
	 SCS Same-Spin Energy      =      -0.1689890966885117 [Eh]
	 SCS Opposite-Spin Energy  =      -1.8642324408127391 [Eh]
	 SCS Correlation Energy    =      -2.0332215375012508 [Eh]
	 SCS Total Energy          =    -492.6580054911717639 [Eh]
	-----------------------------------------------------------

  Dipole Moment: [D]
     X:     0.4937      Y:     2.9542      Z:     0.8867     Total:     3.1236

*** Psi4 exiting successfully. Buy a developer a beer!
