                               Psi4 1.4a3.dev225

  ==> Input File <==

--------------------------------------------------------------------------
#psi4
#
memory 32 gb

molecule  {
0 1
  O        1.6580350    -0.9827140     0.3821500
  O       -0.8249020    -1.8470020    -0.1920140
  N       -1.7073370     0.2644950     0.0041840
  N        1.2225400     1.0581630    -0.4400630
  C       -0.6757910    -0.6248990    -0.0657590
  C       -1.6242400     1.6701930     0.3734340
  C       -3.0587270    -0.2617480    -0.1203800
  C        0.7172850    -0.0860290    -0.0289380
  C        2.8466160    -0.3331830     0.2236370
  C        2.5869190     0.9090560    -0.2781450
  H       -2.0624300     2.2861190    -0.4188050
  H       -0.5911340     1.9718700     0.5118620
  H       -2.1906170     1.8355680     1.2974120
  H       -3.5636440    -0.2611770     0.8526080
  H       -3.0040100    -1.2812060    -0.4966650
  H       -3.6263720     0.3669880    -0.8129620
  H        3.7338670    -0.8757360     0.5106220
  H        3.2676516     1.6817889    -0.5323097
units angstrom
no_reorient  #important for SAPT in psi4, default
symmetry c1  #important for SAPT in psi4, default
}

set PROPERTIES_ORIGIN ["COM"]
properties('MP2/aug-cc-pvtz', properties = ['dipole'])
--------------------------------------------------------------------------

    Molecular point group: c1
  Charge       = 0
  Multiplicity = 1
  Basis Set: AUG-CC-PVTZ
    Blend: AUG-CC-PVTZ
  Basis Set: (AUG-CC-PVTZ AUX)
    Blend: AUG-CC-PVTZ-JKFIT

    Orbital Energies [Eh]
    ---------------------

    Doubly Occupied:

       1A    -20.653577     2A    -20.527779     3A    -15.601918
       4A    -15.591678     5A    -11.374129     6A    -11.356235
       7A    -11.312374     8A    -11.274963     9A    -11.266439
      10A    -11.259370    11A     -1.498419    12A     -1.382430
      13A     -1.259917    14A     -1.242756    15A     -1.058117
      16A     -0.977321    17A     -0.959194    18A     -0.866821
      19A     -0.844791    20A     -0.781860    21A     -0.727349
      22A     -0.682509    23A     -0.667825    24A     -0.660521
      25A     -0.651953    26A     -0.624422    27A     -0.589315
      28A     -0.585503    29A     -0.567104    30A     -0.562038
      31A     -0.541666    32A     -0.535177    33A     -0.481973
      34A     -0.465100    35A     -0.441894    36A     -0.380494
      37A     -0.351149

  @DF-RHF Final Energy:  -490.63697268251394

   => Energetics <=

    Nuclear Repulsion Energy =            528.4468472819321505
    One-Electron Energy =               -1716.9554859682855295
    Two-Electron Energy =                 697.8716660038394366
    Total Energy =                       -490.6369726825139423
  Basis Set: (AUG-CC-PVTZ AUX)
    Blend: AUG-CC-PVTZ-RI
    Molecular point group: c1

    Geometry (in Angstrom), charge = 0, multiplicity = 1:

       Center              X                  Y                   Z               Mass
    ------------   -----------------  -----------------  -----------------  -----------------
         O            1.601327218661    -0.942087420776     0.388556975956    15.994914619570
         O           -0.881609781339    -1.806375420776    -0.185607024044    15.994914619570
         N           -1.764044781339     0.305121579224     0.010590975956    14.003074004430
         N            1.165832218661     1.098789579224    -0.433656024044    14.003074004430
         C           -0.732498781339    -0.584272420776    -0.059352024044    12.000000000000
         C           -1.680947781339     1.710819579224     0.379840975956    12.000000000000
         C           -3.115434781339    -0.221121420776    -0.113973024044    12.000000000000
         C            0.660577218661    -0.045402420776    -0.022531024044    12.000000000000
         C            2.789908218661    -0.292556420776     0.230043975956    12.000000000000
         C            2.530211218661     0.949682579224    -0.271738024044    12.000000000000
         H           -2.119137781339     2.326745579224    -0.412398024044     1.007825032230
         H           -0.647841781339     2.012496579224     0.518268975956     1.007825032230
         H           -2.247324781339     1.876194579224     1.303818975956     1.007825032230
         H           -3.620351781339    -0.220550420776     0.859014975956     1.007825032230
         H           -3.060717781339    -1.240579420776    -0.490258024044     1.007825032230
         H           -3.683079781339     0.407614579224    -0.806555024044     1.007825032230
         H            3.677159218661    -0.835109420776     0.517028975956     1.007825032230
         H            3.210943818661     1.722415479224    -0.525902724044     1.007825032230

  Basis Set: AUG-CC-PVTZ
    Blend: AUG-CC-PVTZ
  Basis Set: (AUG-CC-PVTZ AUX)
    Blend: AUG-CC-PVTZ-JKFIT
	 Reference Energy          =    -490.6369726825139423 [Eh]
	 Singles Energy            =      -0.0000000000000000 [Eh]
	 Same-Spin Energy          =      -0.5065394614193874 [Eh]
	 Opposite-Spin Energy      =      -1.5499778073913504 [Eh]
	 Correlation Energy        =      -2.0565172688107376 [Eh]
	 Total Energy              =    -492.6934899513246933 [Eh]

	 ================> DF-SCS-MP2 Energies <==================
	-----------------------------------------------------------
	 SCS Same-Spin Scale       =       0.3333333333333333 [-]
	 SCS Opposite-Spin Scale   =       1.2000000000000000 [-]
	 SCS Same-Spin Energy      =      -0.1688464871397958 [Eh]
	 SCS Opposite-Spin Energy  =      -1.8599733688696203 [Eh]
	 SCS Correlation Energy    =      -2.0288198560094162 [Eh]
	 SCS Total Energy          =    -492.6657925385233625 [Eh]
	-----------------------------------------------------------

  Dipole Moment: [D]
     X:     0.3763      Y:     2.7716      Z:     0.9567     Total:     2.9562

*** Psi4 exiting successfully. Buy a developer a beer!
