                               Psi4 1.4a3.dev225

  ==> Input File <==

--------------------------------------------------------------------------
#psi4
#
memory 32 gb

molecule  {
0 1
  O        1.6580350    -0.9827140     0.3821500
  O       -0.8249020    -1.8470020    -0.1920140
  N       -1.7073370     0.2644950     0.0041840
  N        1.2225400     1.0581630    -0.4400630
  C       -0.7514276    -0.5596855    -0.0606305
  C       -1.6242400     1.6701930     0.3734340
  C       -3.0587270    -0.2617480    -0.1203800
  C        0.7172850    -0.0860290    -0.0289380
  C        2.8466160    -0.3331830     0.2236370
  C        2.5869190     0.9090560    -0.2781450
  H       -2.0624300     2.2861190    -0.4188050
  H       -0.5911340     1.9718700     0.5118620
  H       -2.1906170     1.8355680     1.2974120
  H       -3.5636440    -0.2611770     0.8526080
  H       -3.0040100    -1.2812060    -0.4966650
  H       -3.6263720     0.3669880    -0.8129620
  H        3.7338670    -0.8757360     0.5106220
  H        3.2804870     1.6963590    -0.5371020
units angstrom
no_reorient  #important for SAPT in psi4, default
symmetry c1  #important for SAPT in psi4, default
}

set PROPERTIES_ORIGIN ["COM"]
properties('MP2/aug-cc-pvtz', properties = ['dipole'])
--------------------------------------------------------------------------

    Molecular point group: c1
  Charge       = 0
  Multiplicity = 1
  Basis Set: AUG-CC-PVTZ
    Blend: AUG-CC-PVTZ
  Basis Set: (AUG-CC-PVTZ AUX)
    Blend: AUG-CC-PVTZ-JKFIT

    Orbital Energies [Eh]
    ---------------------

    Doubly Occupied:

       1A    -20.649028     2A    -20.508189     3A    -15.620089
       4A    -15.584310     5A    -11.369855     6A    -11.355610
       7A    -11.306822     8A    -11.278439     9A    -11.272066
      10A    -11.269800    11A     -1.492125    12A     -1.366528
      13A     -1.269562    14A     -1.241351    15A     -1.048458
      16A     -0.992290    17A     -0.984974    18A     -0.854347
      19A     -0.840879    20A     -0.776506    21A     -0.739066
      22A     -0.683307    23A     -0.672252    24A     -0.666097
      25A     -0.652232    26A     -0.620865    27A     -0.582495
      28A     -0.581783    29A     -0.573716    30A     -0.562359
      31A     -0.544382    32A     -0.528498    33A     -0.476410
      34A     -0.460884    35A     -0.424586    36A     -0.387954
      37A     -0.345767

  @DF-RHF Final Energy:  -490.62181695011861

   => Energetics <=

    Nuclear Repulsion Energy =            528.4342007953424627
    One-Electron Energy =               -1716.9442701848518027
    Two-Electron Energy =                 697.8882524393906124
    Total Energy =                       -490.6218169501186139
  Basis Set: (AUG-CC-PVTZ AUX)
    Blend: AUG-CC-PVTZ-RI
    Molecular point group: c1

    Geometry (in Angstrom), charge = 0, multiplicity = 1:

       Center              X                  Y                   Z               Mass
    ------------   -----------------  -----------------  -----------------  -----------------
         O            1.607715284130    -0.947779654167     0.388152058234    15.994914619570
         O           -0.875221715870    -1.812067654167    -0.186011941766    15.994914619570
         N           -1.757656715870     0.299429345833     0.010186058234    14.003074004430
         N            1.172220284130     1.093097345833    -0.434060941766    14.003074004430
         C           -0.801747315870    -0.524751154167    -0.054628441766    12.000000000000
         C           -1.674559715870     1.705127345833     0.379436058234    12.000000000000
         C           -3.109046715870    -0.226813654167    -0.114377941766    12.000000000000
         C            0.666965284130    -0.051094654167    -0.022935941766    12.000000000000
         C            2.796296284130    -0.298248654167     0.229639058234    12.000000000000
         C            2.536599284130     0.943990345833    -0.272142941766    12.000000000000
         H           -2.112749715870     2.321053345833    -0.412802941766     1.007825032230
         H           -0.641453715870     2.006804345833     0.517864058234     1.007825032230
         H           -2.240936715870     1.870502345833     1.303414058234     1.007825032230
         H           -3.613963715870    -0.226242654167     0.858610058234     1.007825032230
         H           -3.054329715870    -1.246271654167    -0.490662941766     1.007825032230
         H           -3.676691715870     0.401922345833    -0.806959941766     1.007825032230
         H            3.683547284130    -0.840801654167     0.516624058234     1.007825032230
         H            3.230167284130     1.731293345833    -0.531099941766     1.007825032230

  Basis Set: AUG-CC-PVTZ
    Blend: AUG-CC-PVTZ
  Basis Set: (AUG-CC-PVTZ AUX)
    Blend: AUG-CC-PVTZ-JKFIT
	 Reference Energy          =    -490.6218169501186139 [Eh]
	 Singles Energy            =      -0.0000000000000000 [Eh]
	 Same-Spin Energy          =      -0.5067211609107082 [Eh]
	 Opposite-Spin Energy      =      -1.5506201816417304 [Eh]
	 Correlation Energy        =      -2.0573413425524385 [Eh]
	 Total Energy              =    -492.6791582926710475 [Eh]

	 ================> DF-SCS-MP2 Energies <==================
	-----------------------------------------------------------
	 SCS Same-Spin Scale       =       0.3333333333333333 [-]
	 SCS Opposite-Spin Scale   =       1.2000000000000000 [-]
	 SCS Same-Spin Energy      =      -0.1689070536369027 [Eh]
	 SCS Opposite-Spin Energy  =      -1.8607442179700764 [Eh]
	 SCS Correlation Energy    =      -2.0296512716069790 [Eh]
	 SCS Total Energy          =    -492.6514682217255654 [Eh]
	-----------------------------------------------------------

  Dipole Moment: [D]
     X:    -0.3796      Y:     3.3842      Z:     1.0535     Total:     3.5646

*** Psi4 exiting successfully. Buy a developer a beer!
