                               Psi4 1.4a3.dev225

  ==> Input File <==

--------------------------------------------------------------------------
#psi4
#
memory 32 gb

molecule  {
0 1
  O        1.6580350    -0.9827140     0.3821500
  O       -0.8249020    -1.8470020    -0.1920140
  N       -1.7073370     0.2644950     0.0041840
  N        1.2225400     1.0581630    -0.4400630
  C       -0.6757910    -0.6248990    -0.0657590
  C       -1.6242400     1.6701930     0.3734340
  C       -3.0587270    -0.2617480    -0.1203800
  C        0.7172850    -0.0860290    -0.0289380
  C        2.8466160    -0.3331830     0.2236370
  C        2.4487827     0.8727319    -0.2762464
  H       -2.0624300     2.2861190    -0.4188050
  H       -0.5911340     1.9718700     0.5118620
  H       -2.1906170     1.8355680     1.2974120
  H       -3.5636440    -0.2611770     0.8526080
  H       -3.0040100    -1.2812060    -0.4966650
  H       -3.6263720     0.3669880    -0.8129620
  H        3.7338670    -0.8757360     0.5106220
  H        3.2804870     1.6963590    -0.5371020
units angstrom
no_reorient  #important for SAPT in psi4, default
symmetry c1  #important for SAPT in psi4, default
}

set PROPERTIES_ORIGIN ["COM"]
properties('MP2/aug-cc-pvtz', properties = ['dipole'])
--------------------------------------------------------------------------

    Molecular point group: c1
  Charge       = 0
  Multiplicity = 1
  Basis Set: AUG-CC-PVTZ
    Blend: AUG-CC-PVTZ
  Basis Set: (AUG-CC-PVTZ AUX)
    Blend: AUG-CC-PVTZ-JKFIT

    Orbital Energies [Eh]
    ---------------------

    Doubly Occupied:

       1A    -20.658469     2A    -20.526814     3A    -15.602190
       4A    -15.588125     5A    -11.373557     6A    -11.357848
       7A    -11.305874     8A    -11.277062     9A    -11.268236
      10A    -11.259757    11A     -1.508918    12A     -1.382053
      13A     -1.296226    14A     -1.253893    15A     -1.055957
      16A     -0.978216    17A     -0.959165    18A     -0.868391
      19A     -0.846797    20A     -0.792840    21A     -0.728556
      22A     -0.688414    23A     -0.668392    24A     -0.661852
      25A     -0.654171    26A     -0.625757    27A     -0.587974
      28A     -0.572660    29A     -0.563322    30A     -0.560332
      31A     -0.541967    32A     -0.534644    33A     -0.492174
      34A     -0.482436    35A     -0.442213    36A     -0.381006
      37A     -0.340327

  @DF-RHF Final Energy:  -490.60653337927209

   => Energetics <=

    Nuclear Repulsion Energy =            531.6746788700831985
    One-Electron Energy =               -1723.1892591155772152
    Two-Electron Energy =                 700.9080468662219801
    Total Energy =                       -490.6065333792720367
  Basis Set: (AUG-CC-PVTZ AUX)
    Blend: AUG-CC-PVTZ-RI
    Molecular point group: c1

    Geometry (in Angstrom), charge = 0, multiplicity = 1:

       Center              X                  Y                   Z               Mass
    ------------   -----------------  -----------------  -----------------  -----------------
         O            1.613070160735    -0.939080071309     0.388428791018    15.994914619570
         O           -0.869866839265    -1.803368071309    -0.185735208982    15.994914619570
         N           -1.752301839265     0.308128928691     0.010462791018    14.003074004430
         N            1.177575160735     1.101796928691    -0.433784208982    14.003074004430
         C           -0.720755839265    -0.581265071309    -0.059480208982    12.000000000000
         C           -1.669204839265     1.713826928691     0.379712791018    12.000000000000
         C           -3.103691839265    -0.218114071309    -0.114101208982    12.000000000000
         C            0.672320160735    -0.042395071309    -0.022659208982    12.000000000000
         C            2.801651160735    -0.289549071309     0.229915791018    12.000000000000
         C            2.403817860735     0.916365828691    -0.269967608982    12.000000000000
         H           -2.107394839265     2.329752928691    -0.412526208982     1.007825032230
         H           -0.636098839265     2.015503928691     0.518140791018     1.007825032230
         H           -2.235581839265     1.879201928691     1.303690791018     1.007825032230
         H           -3.608608839265    -0.217543071309     0.858886791018     1.007825032230
         H           -3.048974839265    -1.237572071309    -0.490386208982     1.007825032230
         H           -3.671336839265     0.410621928691    -0.806683208982     1.007825032230
         H            3.688902160735    -0.832102071309     0.516900791018     1.007825032230
         H            3.235522160735     1.739992928691    -0.530823208982     1.007825032230

  Basis Set: AUG-CC-PVTZ
    Blend: AUG-CC-PVTZ
  Basis Set: (AUG-CC-PVTZ AUX)
    Blend: AUG-CC-PVTZ-JKFIT
	 Reference Energy          =    -490.6065333792720935 [Eh]
	 Singles Energy            =      -0.0000000000000000 [Eh]
	 Same-Spin Energy          =      -0.5089943685224628 [Eh]
	 Opposite-Spin Energy      =      -1.5513237138091431 [Eh]
	 Correlation Energy        =      -2.0603180823316061 [Eh]
	 Total Energy              =    -492.6668514616036987 [Eh]

	 ================> DF-SCS-MP2 Energies <==================
	-----------------------------------------------------------
	 SCS Same-Spin Scale       =       0.3333333333333333 [-]
	 SCS Opposite-Spin Scale   =       1.2000000000000000 [-]
	 SCS Same-Spin Energy      =      -0.1696647895074876 [Eh]
	 SCS Opposite-Spin Energy  =      -1.8615884565709717 [Eh]
	 SCS Correlation Energy    =      -2.0312532460784594 [Eh]
	 SCS Total Energy          =    -492.6377866253505431 [Eh]
	-----------------------------------------------------------

  Dipole Moment: [D]
     X:     0.2961      Y:     2.6935      Z:     0.9846     Total:     2.8830

*** Psi4 exiting successfully. Buy a developer a beer!
