                               Psi4 1.4a3.dev225

  ==> Input File <==

--------------------------------------------------------------------------
#psi4
#
memory 32 gb

molecule  {
0 1
  O        1.6580350    -0.9827140     0.3821500
  O       -0.8249020    -1.8470020    -0.1920140
  N       -1.7073370     0.2644950     0.0041840
  N        1.2225400     1.0581630    -0.4400630
  C       -0.6757910    -0.6248990    -0.0657590
  C       -1.6242400     1.6701930     0.3734340
  C       -3.0587270    -0.2617480    -0.1203800
  C        0.6405345    -0.2598368     0.0335137
  C        2.8466160    -0.3331830     0.2236370
  C        2.5869190     0.9090560    -0.2781450
  H       -2.0624300     2.2861190    -0.4188050
  H       -0.5911340     1.9718700     0.5118620
  H       -2.1906170     1.8355680     1.2974120
  H       -3.5636440    -0.2611770     0.8526080
  H       -3.0040100    -1.2812060    -0.4966650
  H       -3.6263720     0.3669880    -0.8129620
  H        3.7338670    -0.8757360     0.5106220
  H        3.2804870     1.6963590    -0.5371020
units angstrom
no_reorient  #important for SAPT in psi4, default
symmetry c1  #important for SAPT in psi4, default
}

set PROPERTIES_ORIGIN ["COM"]
properties('MP2/aug-cc-pvtz', properties = ['dipole'])
--------------------------------------------------------------------------

    Molecular point group: c1
  Charge       = 0
  Multiplicity = 1
  Basis Set: AUG-CC-PVTZ
    Blend: AUG-CC-PVTZ
  Basis Set: (AUG-CC-PVTZ AUX)
    Blend: AUG-CC-PVTZ-JKFIT

    Orbital Energies [Eh]
    ---------------------

    Doubly Occupied:

       1A    -20.673838     2A    -20.526179     3A    -15.602683
       4A    -15.595783     5A    -11.366238     6A    -11.364186
       7A    -11.314206     8A    -11.281815     9A    -11.263455
      10A    -11.259983    11A     -1.522523    12A     -1.390708
      13A     -1.255857    14A     -1.195648    15A     -1.075564
      16A     -0.977199    17A     -0.966504    18A     -0.884686
      19A     -0.845978    20A     -0.786733    21A     -0.727570
      22A     -0.696909    23A     -0.683694    24A     -0.661867
      25A     -0.653691    26A     -0.614696    27A     -0.598900
      28A     -0.574737    29A     -0.564493    30A     -0.560831
      31A     -0.544303    32A     -0.533920    33A     -0.459230
      34A     -0.446840    35A     -0.441437    36A     -0.380580
      37A     -0.334192

  @DF-RHF Final Energy:  -490.57777916664747

   => Energetics <=

    Nuclear Repulsion Energy =            528.3690475120272367
    One-Electron Energy =               -1716.6383422125500147
    Two-Electron Energy =                 697.6915155338753038
    Total Energy =                       -490.5777791666474741
  Basis Set: (AUG-CC-PVTZ AUX)
    Blend: AUG-CC-PVTZ-RI
    Molecular point group: c1

    Geometry (in Angstrom), charge = 0, multiplicity = 1:

       Center              X                  Y                   Z               Mass
    ------------   -----------------  -----------------  -----------------  -----------------
         O            1.607810721341    -0.927300682789     0.383240696058    15.994914619570
         O           -0.875126278659    -1.791588682789    -0.190923303942    15.994914619570
         N           -1.757561278659     0.319908317211     0.005274696058    14.003074004430
         N            1.172315721341     1.113576317211    -0.438972303942    14.003074004430
         C           -0.726015278659    -0.569485682789    -0.064668303942    12.000000000000
         C           -1.674464278659     1.725606317211     0.374524696058    12.000000000000
         C           -3.108951278659    -0.206334682789    -0.119289303942    12.000000000000
         C            0.590310221341    -0.204423482789     0.034604396058    12.000000000000
         C            2.796391721341    -0.277769682789     0.224727696058    12.000000000000
         C            2.536694721341     0.964469317211    -0.277054303942    12.000000000000
         H           -2.112654278659     2.341532317211    -0.417714303942     1.007825032230
         H           -0.641358278659     2.027283317211     0.512952696058     1.007825032230
         H           -2.240841278659     1.890981317211     1.298502696058     1.007825032230
         H           -3.613868278659    -0.205763682789     0.853698696058     1.007825032230
         H           -3.054234278659    -1.225792682789    -0.495574303942     1.007825032230
         H           -3.676596278659     0.422401317211    -0.811871303942     1.007825032230
         H            3.683642721341    -0.820322682789     0.511712696058     1.007825032230
         H            3.230262721341     1.751772317211    -0.536011303942     1.007825032230

  Basis Set: AUG-CC-PVTZ
    Blend: AUG-CC-PVTZ
  Basis Set: (AUG-CC-PVTZ AUX)
    Blend: AUG-CC-PVTZ-JKFIT
	 Reference Energy          =    -490.5777791666474741 [Eh]
	 Singles Energy            =      -0.0000000000000000 [Eh]
	 Same-Spin Energy          =      -0.5135877619619684 [Eh]
	 Opposite-Spin Energy      =      -1.5607741374885258 [Eh]
	 Correlation Energy        =      -2.0743618994504942 [Eh]
	 Total Energy              =    -492.6521410660979541 [Eh]

	 ================> DF-SCS-MP2 Energies <==================
	-----------------------------------------------------------
	 SCS Same-Spin Scale       =       0.3333333333333333 [-]
	 SCS Opposite-Spin Scale   =       1.2000000000000000 [-]
	 SCS Same-Spin Energy      =      -0.1711959206539895 [Eh]
	 SCS Opposite-Spin Energy  =      -1.8729289649862308 [Eh]
	 SCS Correlation Energy    =      -2.0441248856402203 [Eh]
	 SCS Total Energy          =    -492.6219040522876753 [Eh]
	-----------------------------------------------------------

  Dipole Moment: [D]
     X:     0.7809      Y:     2.5273      Z:     1.1030     Total:     2.8660

*** Psi4 exiting successfully. Buy a developer a beer!
