                               Psi4 1.4a3.dev225

  ==> Input File <==

--------------------------------------------------------------------------
#psi4
#
memory 32 gb

molecule  {
0 1
  O        1.6580350    -0.9827140     0.3821500
  O       -0.8249020    -1.8470020    -0.1920140
  N       -1.7073370     0.2644950     0.0041840
  N        1.2225400     1.0581630    -0.4400630
  C       -0.6909183    -0.6118563    -0.0647333
  C       -1.6242400     1.6701930     0.3734340
  C       -3.0587270    -0.2617480    -0.1203800
  C        0.7172850    -0.0860290    -0.0289380
  C        2.8466160    -0.3331830     0.2236370
  C        2.5869190     0.9090560    -0.2781450
  H       -2.0624300     2.2861190    -0.4188050
  H       -0.5911340     1.9718700     0.5118620
  H       -2.1906170     1.8355680     1.2974120
  H       -3.5636440    -0.2611770     0.8526080
  H       -3.0040100    -1.2812060    -0.4966650
  H       -3.6263720     0.3669880    -0.8129620
  H        3.7338670    -0.8757360     0.5106220
  H        3.2804870     1.6963590    -0.5371020
units angstrom
no_reorient  #important for SAPT in psi4, default
symmetry c1  #important for SAPT in psi4, default
}

set PROPERTIES_ORIGIN ["COM"]
properties('MP2/aug-cc-pvtz', properties = ['dipole'])
--------------------------------------------------------------------------

    Molecular point group: c1
  Charge       = 0
  Multiplicity = 1
  Basis Set: AUG-CC-PVTZ
    Blend: AUG-CC-PVTZ
  Basis Set: (AUG-CC-PVTZ AUX)
    Blend: AUG-CC-PVTZ-JKFIT

    Orbital Energies [Eh]
    ---------------------

    Doubly Occupied:

       1A    -20.652721     2A    -20.523994     3A    -15.605745
       4A    -15.590289     5A    -11.373550     6A    -11.356144
       7A    -11.311291     8A    -11.276106     9A    -11.268848
      10A    -11.261437    11A     -1.497173    12A     -1.376489
      13A     -1.263158    14A     -1.243376    15A     -1.055724
      16A     -0.980076    17A     -0.963949    18A     -0.863918
      19A     -0.843463    20A     -0.779983    21A     -0.729522
      22A     -0.681220    23A     -0.668036    24A     -0.661371
      25A     -0.652878    26A     -0.621972    27A     -0.587045
      28A     -0.582147    29A     -0.568879    30A     -0.564144
      31A     -0.542652    32A     -0.533653    33A     -0.480766
      34A     -0.464291    35A     -0.439063    36A     -0.382562
      37A     -0.350179

  @DF-RHF Final Energy:  -490.63620970209286

   => Energetics <=

    Nuclear Repulsion Energy =            528.3406547012682495
    One-Electron Energy =               -1716.7581004743162794
    Two-Electron Energy =                 697.7812360709551740
    Total Energy =                       -490.6362097020928559
  Basis Set: (AUG-CC-PVTZ AUX)
    Blend: AUG-CC-PVTZ-RI
    Molecular point group: c1

    Geometry (in Angstrom), charge = 0, multiplicity = 1:

       Center              X                  Y                   Z               Mass
    ------------   -----------------  -----------------  -----------------  -----------------
         O            1.602530941886    -0.943309741569     0.388503579725    15.994914619570
         O           -0.880406058114    -1.807597741569    -0.185660420275    15.994914619570
         N           -1.762841058114     0.303899258431     0.010537579725    14.003074004430
         N            1.167035941886     1.097567258431    -0.433709420275    14.003074004430
         C           -0.746422358114    -0.572452041569    -0.058379720275    12.000000000000
         C           -1.679744058114     1.709597258431     0.379787579725    12.000000000000
         C           -3.114231058114    -0.222343741569    -0.114026420275    12.000000000000
         C            0.661780941886    -0.046624741569    -0.022584420275    12.000000000000
         C            2.791111941886    -0.293778741569     0.229990579725    12.000000000000
         C            2.531414941886     0.948460258431    -0.271791420275    12.000000000000
         H           -2.117934058114     2.325523258431    -0.412451420275     1.007825032230
         H           -0.646638058114     2.011274258431     0.518215579725     1.007825032230
         H           -2.246121058114     1.874972258431     1.303765579725     1.007825032230
         H           -3.619148058114    -0.221772741569     0.858961579725     1.007825032230
         H           -3.059514058114    -1.241801741569    -0.490311420275     1.007825032230
         H           -3.681876058114     0.406392258431    -0.806608420275     1.007825032230
         H            3.678362941886    -0.836331741569     0.516975579725     1.007825032230
         H            3.224982941886     1.735763258431    -0.530748420275     1.007825032230

  Basis Set: AUG-CC-PVTZ
    Blend: AUG-CC-PVTZ
  Basis Set: (AUG-CC-PVTZ AUX)
    Blend: AUG-CC-PVTZ-JKFIT
	 Reference Energy          =    -490.6362097020928559 [Eh]
	 Singles Energy            =      -0.0000000000000000 [Eh]
	 Same-Spin Energy          =      -0.5065964073527861 [Eh]
	 Opposite-Spin Energy      =      -1.5501814410512429 [Eh]
	 Correlation Energy        =      -2.0567778484040291 [Eh]
	 Total Energy              =    -492.6929875504968663 [Eh]

	 ================> DF-SCS-MP2 Energies <==================
	-----------------------------------------------------------
	 SCS Same-Spin Scale       =       0.3333333333333333 [-]
	 SCS Opposite-Spin Scale   =       1.2000000000000000 [-]
	 SCS Same-Spin Energy      =      -0.1688654691175954 [Eh]
	 SCS Opposite-Spin Energy  =      -1.8602177292614914 [Eh]
	 SCS Correlation Energy    =      -2.0290831983790869 [Eh]
	 SCS Total Energy          =    -492.6652929004719681 [Eh]
	-----------------------------------------------------------

  Dipole Moment: [D]
     X:     0.2173      Y:     2.8951      Z:     0.9752     Total:     3.0627

*** Psi4 exiting successfully. Buy a developer a beer!
