                               Psi4 1.4a3.dev225

  ==> Input File <==

--------------------------------------------------------------------------
#psi4
#
memory 32 gb

molecule  {
0 1
  O        1.6580350    -0.9827140     0.3821500
  O       -0.8249020    -1.8470020    -0.1920140
  N       -1.7073370     0.2644950     0.0041840
  N        1.2225400     1.0581630    -0.4400630
  C       -0.6757910    -0.6248990    -0.0657590
  C       -1.6242400     1.6701930     0.3734340
  C       -3.0587270    -0.2617480    -0.1203800
  C        0.7172850    -0.0860290    -0.0289380
  C        2.8466160    -0.3331830     0.2236370
  C        2.5636573     0.9039382    -0.2782105
  H       -2.0624300     2.2861190    -0.4188050
  H       -0.5911340     1.9718700     0.5118620
  H       -2.1906170     1.8355680     1.2974120
  H       -3.5636440    -0.2611770     0.8526080
  H       -3.0040100    -1.2812060    -0.4966650
  H       -3.6263720     0.3669880    -0.8129620
  H        3.7338670    -0.8757360     0.5106220
  H        3.2804870     1.6963590    -0.5371020
units angstrom
no_reorient  #important for SAPT in psi4, default
symmetry c1  #important for SAPT in psi4, default
}

set PROPERTIES_ORIGIN ["COM"]
properties('MP2/aug-cc-pvtz', properties = ['dipole'])
--------------------------------------------------------------------------

    Molecular point group: c1
  Charge       = 0
  Multiplicity = 1
  Basis Set: AUG-CC-PVTZ
    Blend: AUG-CC-PVTZ
  Basis Set: (AUG-CC-PVTZ AUX)
    Blend: AUG-CC-PVTZ-JKFIT

    Orbital Energies [Eh]
    ---------------------

    Doubly Occupied:

       1A    -20.654236     2A    -20.527614     3A    -15.601943
       4A    -15.591224     5A    -11.374021     6A    -11.356428
       7A    -11.311094     8A    -11.276896     9A    -11.266693
      10A    -11.259414    11A     -1.499746    12A     -1.382350
      13A     -1.262586    14A     -1.247029    15A     -1.057394
      16A     -0.977414    17A     -0.959029    18A     -0.864783
      19A     -0.845172    20A     -0.782478    21A     -0.727427
      22A     -0.683101    23A     -0.667648    24A     -0.660526
      25A     -0.652225    26A     -0.621542    27A     -0.586516
      28A     -0.584531    29A     -0.567141    30A     -0.562173
      31A     -0.541775    32A     -0.535109    33A     -0.483605
      34A     -0.468912    35A     -0.442095    36A     -0.380554
      37A     -0.349249

  @DF-RHF Final Energy:  -490.63596501710140

   => Energetics <=

    Nuclear Repulsion Energy =            528.8621319130135134
    One-Electron Energy =               -1717.7728448536490760
    Two-Electron Energy =                 698.2747479235342780
    Total Energy =                       -490.6359650171013982
  Basis Set: (AUG-CC-PVTZ AUX)
    Blend: AUG-CC-PVTZ-RI
    Molecular point group: c1

    Geometry (in Angstrom), charge = 0, multiplicity = 1:

       Center              X                  Y                   Z               Mass
    ------------   -----------------  -----------------  -----------------  -----------------
         O            1.603227884563    -0.941753778315     0.388597072036    15.994914619570
         O           -0.879709115437    -1.806041778315    -0.185566927964    15.994914619570
         N           -1.762144115437     0.305455221685     0.010631072036    14.003074004430
         N            1.167732884563     1.099123221685    -0.433615927964    14.003074004430
         C           -0.730598115437    -0.583938778315    -0.059311927964    12.000000000000
         C           -1.679047115437     1.711153221685     0.379881072036    12.000000000000
         C           -3.113534115437    -0.220787778315    -0.113932927964    12.000000000000
         C            0.662477884563    -0.045068778315    -0.022490927964    12.000000000000
         C            2.791808884563    -0.292222778315     0.230084072036    12.000000000000
         C            2.508850184563     0.944898421685    -0.271763427964    12.000000000000
         H           -2.117237115437     2.327079221685    -0.412357927964     1.007825032230
         H           -0.645941115437     2.012830221685     0.518309072036     1.007825032230
         H           -2.245424115437     1.876528221685     1.303859072036     1.007825032230
         H           -3.618451115437    -0.220216778315     0.859055072036     1.007825032230
         H           -3.058817115437    -1.240245778315    -0.490217927964     1.007825032230
         H           -3.681179115437     0.407948221685    -0.806514927964     1.007825032230
         H            3.679059884563    -0.834775778315     0.517069072036     1.007825032230
         H            3.225679884563     1.737319221685    -0.530654927964     1.007825032230

  Basis Set: AUG-CC-PVTZ
    Blend: AUG-CC-PVTZ
  Basis Set: (AUG-CC-PVTZ AUX)
    Blend: AUG-CC-PVTZ-JKFIT
	 Reference Energy          =    -490.6359650171013982 [Eh]
	 Singles Energy            =      -0.0000000000000000 [Eh]
	 Same-Spin Energy          =      -0.5069080768761198 [Eh]
	 Opposite-Spin Energy      =      -1.5500746438700361 [Eh]
	 Correlation Energy        =      -2.0569827207461557 [Eh]
	 Total Energy              =    -492.6929477378475326 [Eh]

	 ================> DF-SCS-MP2 Energies <==================
	-----------------------------------------------------------
	 SCS Same-Spin Scale       =       0.3333333333333333 [-]
	 SCS Opposite-Spin Scale   =       1.2000000000000000 [-]
	 SCS Same-Spin Energy      =      -0.1689693589587066 [Eh]
	 SCS Opposite-Spin Energy  =      -1.8600895726440432 [Eh]
	 SCS Correlation Energy    =      -2.0290589316027496 [Eh]
	 SCS Total Energy          =    -492.6650239487041745 [Eh]
	-----------------------------------------------------------

  Dipole Moment: [D]
     X:     0.3722      Y:     2.7669      Z:     0.9587     Total:     2.9518

*** Psi4 exiting successfully. Buy a developer a beer!
