                               Psi4 1.4a3.dev225

  ==> Input File <==

--------------------------------------------------------------------------
#psi4
#
memory 32 gb

molecule  {
0 1
  O        1.6580350    -0.9827140     0.3821500
  O       -0.8249020    -1.8470020    -0.1920140
  N       -1.7073370     0.2644950     0.0041840
  N        1.2225400     1.0581630    -0.4400630
  C       -0.6757910    -0.6248990    -0.0657590
  C       -1.6242400     1.6701930     0.3734340
  C       -3.0587270    -0.2617480    -0.1203800
  C        0.7172850    -0.0860290    -0.0289380
  C        2.8466160    -0.3331830     0.2236370
  C        2.5869190     0.9090560    -0.2781450
  H       -2.0624300     2.2861190    -0.4188050
  H       -0.5911340     1.9718700     0.5118620
  H       -2.1906170     1.8355680     1.2974120
  H       -3.5636440    -0.2611770     0.8526080
  H       -3.0040100    -1.2812060    -0.4966650
  H       -3.6782512     0.4244506    -0.8762597
  H        3.7338670    -0.8757360     0.5106220
  H        3.2804870     1.6963590    -0.5371020
units angstrom
no_reorient  #important for SAPT in psi4, default
symmetry c1  #important for SAPT in psi4, default
}

set PROPERTIES_ORIGIN ["COM"]
properties('MP2/aug-cc-pvtz', properties = ['dipole'])
--------------------------------------------------------------------------

    Molecular point group: c1
  Charge       = 0
  Multiplicity = 1
  Basis Set: AUG-CC-PVTZ
    Blend: AUG-CC-PVTZ
  Basis Set: (AUG-CC-PVTZ AUX)
    Blend: AUG-CC-PVTZ-JKFIT

    Orbital Energies [Eh]
    ---------------------

    Doubly Occupied:

       1A    -20.654089     2A    -20.528771     3A    -15.603410
       4A    -15.592281     5A    -11.375175     6A    -11.356820
       7A    -11.312833     8A    -11.277496     9A    -11.271177
      10A    -11.266548    11A     -1.498930    12A     -1.383400
      13A     -1.260487    14A     -1.243203    15A     -1.057985
      16A     -0.974718    17A     -0.956808    18A     -0.864989
      19A     -0.843040    20A     -0.780757    21A     -0.727943
      22A     -0.682551    23A     -0.668154    24A     -0.658600
      25A     -0.651269    26A     -0.621821    27A     -0.588531
      28A     -0.585651    29A     -0.566648    30A     -0.554173
      31A     -0.536582    32A     -0.534081    33A     -0.482358
      34A     -0.465502    35A     -0.442783    36A     -0.380487
      37A     -0.351512

  @DF-RHF Final Energy:  -490.63031216482199

   => Energetics <=

    Nuclear Repulsion Energy =            527.8951643051813107
    One-Electron Energy =               -1715.8478244540251580
    Two-Electron Energy =                 697.3223479840216896
    Total Energy =                       -490.6303121648220440
  Basis Set: (AUG-CC-PVTZ AUX)
    Blend: AUG-CC-PVTZ-RI
    Molecular point group: c1

    Geometry (in Angstrom), charge = 0, multiplicity = 1:

       Center              X                  Y                   Z               Mass
    ------------   -----------------  -----------------  -----------------  -----------------
         O            1.601608167673    -0.942605749318     0.389046933855    15.994914619570
         O           -0.881328832327    -1.806893749318    -0.185117066145    15.994914619570
         N           -1.763763832327     0.304603250682     0.011080933855    14.003074004430
         N            1.166113167673     1.098271250682    -0.433166066145    14.003074004430
         C           -0.732217832327    -0.584790749318    -0.058862066145    12.000000000000
         C           -1.680666832327     1.710301250682     0.380330933855    12.000000000000
         C           -3.115153832327    -0.221639749318    -0.113483066145    12.000000000000
         C            0.660858167673    -0.045920749318    -0.022041066145    12.000000000000
         C            2.790189167673    -0.293074749318     0.230533933855    12.000000000000
         C            2.530492167673     0.949164250682    -0.271248066145    12.000000000000
         H           -2.118856832327     2.326227250682    -0.411908066145     1.007825032230
         H           -0.647560832327     2.011978250682     0.518758933855     1.007825032230
         H           -2.247043832327     1.875676250682     1.304308933855     1.007825032230
         H           -3.620070832327    -0.221068749318     0.859504933855     1.007825032230
         H           -3.060436832327    -1.241097749318    -0.489768066145     1.007825032230
         H           -3.734678032327     0.464558850682    -0.869362766145     1.007825032230
         H            3.677440167673    -0.835627749318     0.517518933855     1.007825032230
         H            3.224060167673     1.736467250682    -0.530205066145     1.007825032230

  Basis Set: AUG-CC-PVTZ
    Blend: AUG-CC-PVTZ
  Basis Set: (AUG-CC-PVTZ AUX)
    Blend: AUG-CC-PVTZ-JKFIT
	 Reference Energy          =    -490.6303121648219872 [Eh]
	 Singles Energy            =      -0.0000000000000000 [Eh]
	 Same-Spin Energy          =      -0.5066238922959421 [Eh]
	 Opposite-Spin Energy      =      -1.5508343658303998 [Eh]
	 Correlation Energy        =      -2.0574582581263421 [Eh]
	 Total Energy              =    -492.6877704229483470 [Eh]

	 ================> DF-SCS-MP2 Energies <==================
	-----------------------------------------------------------
	 SCS Same-Spin Scale       =       0.3333333333333333 [-]
	 SCS Opposite-Spin Scale   =       1.2000000000000000 [-]
	 SCS Same-Spin Energy      =      -0.1688746307653140 [Eh]
	 SCS Opposite-Spin Energy  =      -1.8610012389964796 [Eh]
	 SCS Correlation Energy    =      -2.0298758697617938 [Eh]
	 SCS Total Energy          =    -492.6601880345837685 [Eh]
	-----------------------------------------------------------

  Dipole Moment: [D]
     X:     0.4446      Y:     2.7454      Z:     0.9931     Total:     2.9532

*** Psi4 exiting successfully. Buy a developer a beer!
