                               Psi4 1.4a3.dev225

  ==> Input File <==

--------------------------------------------------------------------------
#psi4
#
memory 32 gb

molecule  {
0 1
  O        1.6580350    -0.9827140     0.3821500
  O       -0.8249020    -1.8470020    -0.1920140
  N       -1.7073370     0.2644950     0.0041840
  N        1.2225400     1.0581630    -0.4400630
  C       -0.6757910    -0.6248990    -0.0657590
  C       -1.6242400     1.6701930     0.3734340
  C       -3.0587270    -0.2617480    -0.1203800
  C        0.7172850    -0.0860290    -0.0289380
  C        2.8466160    -0.3331830     0.2236370
  C        2.6249784     0.7270019    -0.2046073
  H       -2.0624300     2.2861190    -0.4188050
  H       -0.5911340     1.9718700     0.5118620
  H       -2.1906170     1.8355680     1.2974120
  H       -3.5636440    -0.2611770     0.8526080
  H       -3.0040100    -1.2812060    -0.4966650
  H       -3.6263720     0.3669880    -0.8129620
  H        3.7338670    -0.8757360     0.5106220
  H        3.2804870     1.6963590    -0.5371020
units angstrom
no_reorient  #important for SAPT in psi4, default
symmetry c1  #important for SAPT in psi4, default
}

set PROPERTIES_ORIGIN ["COM"]
properties('MP2/aug-cc-pvtz', properties = ['dipole'])
--------------------------------------------------------------------------

    Molecular point group: c1
  Charge       = 0
  Multiplicity = 1
  Basis Set: AUG-CC-PVTZ
    Blend: AUG-CC-PVTZ
  Basis Set: (AUG-CC-PVTZ AUX)
    Blend: AUG-CC-PVTZ-JKFIT

    Orbital Energies [Eh]
    ---------------------

    Doubly Occupied:

       1A    -20.637602     2A    -20.530611     3A    -15.604312
       4A    -15.592890     5A    -11.375790     6A    -11.361480
       7A    -11.279223     8A    -11.267949     9A    -11.260908
      10A    -11.259143    11A     -1.499941    12A     -1.384857
      13A     -1.259325    14A     -1.229433    15A     -1.096050
      16A     -0.981071    17A     -0.967885    18A     -0.879814
      19A     -0.823733    20A     -0.766906    21A     -0.730026
      22A     -0.686108    23A     -0.669068    24A     -0.660762
      25A     -0.655054    26A     -0.606254    27A     -0.589515
      28A     -0.567937    29A     -0.563484    30A     -0.548289
      31A     -0.542302    32A     -0.535148    33A     -0.490556
      34A     -0.457861    35A     -0.441687    36A     -0.396282
      37A     -0.381279

  @DF-RHF Final Energy:  -490.57341368296761

   => Energetics <=

    Nuclear Repulsion Energy =            530.8437903987893378
    One-Electron Energy =               -1721.6733371572486249
    Two-Electron Energy =                 700.2561330754917890
    Total Energy =                       -490.5734136829676117
  Basis Set: (AUG-CC-PVTZ AUX)
    Blend: AUG-CC-PVTZ-RI
    Molecular point group: c1

    Geometry (in Angstrom), charge = 0, multiplicity = 1:

       Center              X                  Y                   Z               Mass
    ------------   -----------------  -----------------  -----------------  -----------------
         O            1.597973988564    -0.926594152694     0.382290864906    15.994914619570
         O           -0.884963011436    -1.790882152694    -0.191873135094    15.994914619570
         N           -1.767398011436     0.320614847306     0.004324864906    14.003074004430
         N            1.162478988564     1.114282847306    -0.439922135094    14.003074004430
         C           -0.735852011436    -0.568779152694    -0.065618135094    12.000000000000
         C           -1.684301011436     1.726312847306     0.373574864906    12.000000000000
         C           -3.118788011436    -0.205628152694    -0.120239135094    12.000000000000
         C            0.657223988564    -0.029909152694    -0.028797135094    12.000000000000
         C            2.786554988564    -0.277063152694     0.223777864906    12.000000000000
         C            2.564917388564     0.783121747306    -0.204466435094    12.000000000000
         H           -2.122491011436     2.342238847306    -0.418664135094     1.007825032230
         H           -0.651195011436     2.027989847306     0.512002864906     1.007825032230
         H           -2.250678011436     1.891687847306     1.297552864906     1.007825032230
         H           -3.623705011436    -0.205057152694     0.852748864906     1.007825032230
         H           -3.064071011436    -1.225086152694    -0.496524135094     1.007825032230
         H           -3.686433011436     0.423107847306    -0.812821135094     1.007825032230
         H            3.673805988564    -0.819616152694     0.510762864906     1.007825032230
         H            3.220425988564     1.752478847306    -0.536961135094     1.007825032230

  Basis Set: AUG-CC-PVTZ
    Blend: AUG-CC-PVTZ
  Basis Set: (AUG-CC-PVTZ AUX)
    Blend: AUG-CC-PVTZ-JKFIT
	 Reference Energy          =    -490.5734136829676117 [Eh]
	 Singles Energy            =      -0.0000000000000000 [Eh]
	 Same-Spin Energy          =      -0.5039094621360274 [Eh]
	 Opposite-Spin Energy      =      -1.5471986982401740 [Eh]
	 Correlation Energy        =      -2.0511081603762014 [Eh]
	 Total Energy              =    -492.6245218433438140 [Eh]

	 ================> DF-SCS-MP2 Energies <==================
	-----------------------------------------------------------
	 SCS Same-Spin Scale       =       0.3333333333333333 [-]
	 SCS Opposite-Spin Scale   =       1.2000000000000000 [-]
	 SCS Same-Spin Energy      =      -0.1679698207120091 [Eh]
	 SCS Opposite-Spin Energy  =      -1.8566384378882086 [Eh]
	 SCS Correlation Energy    =      -2.0246082586002179 [Eh]
	 SCS Total Energy          =    -492.5980219415678221 [Eh]
	-----------------------------------------------------------

  Dipole Moment: [D]
     X:     0.1191      Y:     2.6764      Z:     0.9866     Total:     2.8549

*** Psi4 exiting successfully. Buy a developer a beer!
