                               Psi4 1.4a3.dev225

  ==> Input File <==

--------------------------------------------------------------------------
#psi4
#
memory 32 gb

molecule  {
0 1
  O        1.6580350    -0.9827140     0.3821500
  O       -0.8249020    -1.8470020    -0.1920140
  N       -1.7073370     0.2644950     0.0041840
  N        1.2225400     1.0581630    -0.4400630
  C       -0.6757910    -0.6248990    -0.0657590
  C       -1.6270941     1.6219124     0.3607516
  C       -3.0587270    -0.2617480    -0.1203800
  C        0.7172850    -0.0860290    -0.0289380
  C        2.8466160    -0.3331830     0.2236370
  C        2.5869190     0.9090560    -0.2781450
  H       -2.0624300     2.2861190    -0.4188050
  H       -0.5911340     1.9718700     0.5118620
  H       -2.1906170     1.8355680     1.2974120
  H       -3.5636440    -0.2611770     0.8526080
  H       -3.0040100    -1.2812060    -0.4966650
  H       -3.6263720     0.3669880    -0.8129620
  H        3.7338670    -0.8757360     0.5106220
  H        3.2804870     1.6963590    -0.5371020
units angstrom
no_reorient  #important for SAPT in psi4, default
symmetry c1  #important for SAPT in psi4, default
}

set PROPERTIES_ORIGIN ["COM"]
properties('MP2/aug-cc-pvtz', properties = ['dipole'])
--------------------------------------------------------------------------

    Molecular point group: c1
  Charge       = 0
  Multiplicity = 1
  Basis Set: AUG-CC-PVTZ
    Blend: AUG-CC-PVTZ
  Basis Set: (AUG-CC-PVTZ AUX)
    Blend: AUG-CC-PVTZ-JKFIT

    Orbital Energies [Eh]
    ---------------------

    Doubly Occupied:

       1A    -20.654286     2A    -20.530109     3A    -15.603208
       4A    -15.592352     5A    -11.376288     6A    -11.357004
       7A    -11.312992     8A    -11.277531     9A    -11.265940
      10A    -11.260588    11A     -1.499119    12A     -1.385361
      13A     -1.268936    14A     -1.245686    15A     -1.058733
      16A     -0.978602    17A     -0.959835    18A     -0.866601
      19A     -0.844692    20A     -0.782102    21A     -0.732963
      22A     -0.683532    23A     -0.670084    24A     -0.663531
      25A     -0.654058    26A     -0.623421    27A     -0.590073
      28A     -0.586375    29A     -0.563010    30A     -0.555508
      31A     -0.542953    32A     -0.535061    33A     -0.481825
      34A     -0.464914    35A     -0.443155    36A     -0.379957
      37A     -0.351619

  @DF-RHF Final Energy:  -490.63416130158879

   => Energetics <=

    Nuclear Repulsion Energy =            529.2951315598522797
    One-Electron Energy =               -1718.5745703880847941
    Two-Electron Energy =                 698.6452775266436674
    Total Energy =                       -490.6341613015888470
  Basis Set: (AUG-CC-PVTZ AUX)
    Blend: AUG-CC-PVTZ-RI
    Molecular point group: c1

    Geometry (in Angstrom), charge = 0, multiplicity = 1:

       Center              X                  Y                   Z               Mass
    ------------   -----------------  -----------------  -----------------  -----------------
         O            1.601479393294    -0.938055657077     0.389678068307    15.994914619570
         O           -0.881457606706    -1.802343657077    -0.184485931693    15.994914619570
         N           -1.763892606706     0.309153342923     0.011712068307    14.003074004430
         N            1.165984393294     1.102821342923    -0.432534931693    14.003074004430
         C           -0.732346606706    -0.580240657077    -0.058230931693    12.000000000000
         C           -1.683649706706     1.666570742923     0.368279668307    12.000000000000
         C           -3.115282606706    -0.217089657077    -0.112851931693    12.000000000000
         C            0.660729393294    -0.041370657077    -0.021409931693    12.000000000000
         C            2.790060393294    -0.288524657077     0.231165068307    12.000000000000
         C            2.530363393294     0.953714342923    -0.270616931693    12.000000000000
         H           -2.118985606706     2.330777342923    -0.411276931693     1.007825032230
         H           -0.647689606706     2.016528342923     0.519390068307     1.007825032230
         H           -2.247172606706     1.880226342923     1.304940068307     1.007825032230
         H           -3.620199606706    -0.216518657077     0.860136068307     1.007825032230
         H           -3.060565606706    -1.236547657077    -0.489136931693     1.007825032230
         H           -3.682927606706     0.411646342923    -0.805433931693     1.007825032230
         H            3.677311393294    -0.831077657077     0.518150068307     1.007825032230
         H            3.223931393294     1.741017342923    -0.529573931693     1.007825032230

  Basis Set: AUG-CC-PVTZ
    Blend: AUG-CC-PVTZ
  Basis Set: (AUG-CC-PVTZ AUX)
    Blend: AUG-CC-PVTZ-JKFIT
	 Reference Energy          =    -490.6341613015887901 [Eh]
	 Singles Energy            =      -0.0000000000000000 [Eh]
	 Same-Spin Energy          =      -0.5070495504862149 [Eh]
	 Opposite-Spin Energy      =      -1.5503477411828293 [Eh]
	 Correlation Energy        =      -2.0573972916690444 [Eh]
	 Total Energy              =    -492.6915585932578097 [Eh]

	 ================> DF-SCS-MP2 Energies <==================
	-----------------------------------------------------------
	 SCS Same-Spin Scale       =       0.3333333333333333 [-]
	 SCS Opposite-Spin Scale   =       1.2000000000000000 [-]
	 SCS Same-Spin Energy      =      -0.1690165168287383 [Eh]
	 SCS Opposite-Spin Energy  =      -1.8604172894193951 [Eh]
	 SCS Correlation Energy    =      -2.0294338062481332 [Eh]
	 SCS Total Energy          =    -492.6635951078368976 [Eh]
	-----------------------------------------------------------

  Dipole Moment: [D]
     X:     0.4294      Y:     2.6344      Z:     0.9178     Total:     2.8226

*** Psi4 exiting successfully. Buy a developer a beer!
