                               Psi4 1.4a3.dev225

  ==> Input File <==

--------------------------------------------------------------------------
#psi4
#
memory 32 gb

molecule  {
0 1
  O        1.6580350    -0.9827140     0.3821500
  O       -0.8249020    -1.8470020    -0.1920140
  N       -1.7073370     0.2644950     0.0041840
  N        1.2225400     1.0581630    -0.4400630
  C       -0.6757910    -0.6248990    -0.0657590
  C       -1.6242400     1.6701930     0.3734340
  C       -3.0587270    -0.2617480    -0.1203800
  C        0.7172850    -0.0860290    -0.0289380
  C        2.8466160    -0.3331830     0.2236370
  C        2.5831131     0.9272614    -0.2854988
  H       -2.0624300     2.2861190    -0.4188050
  H       -0.5911340     1.9718700     0.5118620
  H       -2.1906170     1.8355680     1.2974120
  H       -3.5636440    -0.2611770     0.8526080
  H       -3.0040100    -1.2812060    -0.4966650
  H       -3.6263720     0.3669880    -0.8129620
  H        3.7338670    -0.8757360     0.5106220
  H        3.2804870     1.6963590    -0.5371020
units angstrom
no_reorient  #important for SAPT in psi4, default
symmetry c1  #important for SAPT in psi4, default
}

set PROPERTIES_ORIGIN ["COM"]
properties('MP2/aug-cc-pvtz', properties = ['dipole'])
--------------------------------------------------------------------------

    Molecular point group: c1
  Charge       = 0
  Multiplicity = 1
  Basis Set: AUG-CC-PVTZ
    Blend: AUG-CC-PVTZ
  Basis Set: (AUG-CC-PVTZ AUX)
    Blend: AUG-CC-PVTZ-JKFIT

    Orbital Energies [Eh]
    ---------------------

    Doubly Occupied:

       1A    -20.655421     2A    -20.527463     3A    -15.601652
       4A    -15.591927     5A    -11.373965     6A    -11.355713
       7A    -11.315427     8A    -11.278863     9A    -11.266288
      10A    -11.259203    11A     -1.498609    12A     -1.382179
      13A     -1.260196    14A     -1.243686    15A     -1.055462
      16A     -0.977011    17A     -0.958201    18A     -0.865125
      19A     -0.845699    20A     -0.781294    21A     -0.727057
      22A     -0.682418    23A     -0.667904    24A     -0.660632
      25A     -0.651784    26A     -0.627217    27A     -0.588180
      28A     -0.584798    29A     -0.566978    30A     -0.561884
      31A     -0.541498    32A     -0.534993    33A     -0.480496
      34A     -0.466212    35A     -0.441726    36A     -0.380311
      37A     -0.347402

  @DF-RHF Final Energy:  -490.63529679460214

   => Energetics <=

    Nuclear Repulsion Energy =            528.1181926000624571
    One-Electron Energy =               -1716.2972320091389520
    Two-Electron Energy =                 697.5437426144743540
    Total Energy =                       -490.6352967946021408
  Basis Set: (AUG-CC-PVTZ AUX)
    Blend: AUG-CC-PVTZ-RI
    Molecular point group: c1

    Geometry (in Angstrom), charge = 0, multiplicity = 1:

       Center              X                  Y                   Z               Mass
    ------------   -----------------  -----------------  -----------------  -----------------
         O            1.601560942030    -0.943752073636     0.389221522188    15.994914619570
         O           -0.881376057970    -1.808040073636    -0.184942477812    15.994914619570
         N           -1.763811057970     0.303456926364     0.011255522188    14.003074004430
         N            1.166065942030     1.097124926364    -0.432991477812    14.003074004430
         C           -0.732265057970    -0.585937073636    -0.058687477812    12.000000000000
         C           -1.680714057970     1.709154926364     0.380505522188    12.000000000000
         C           -3.115201057970    -0.222786073636    -0.113308477812    12.000000000000
         C            0.660810942030    -0.047067073636    -0.021866477812    12.000000000000
         C            2.790141942030    -0.294221073636     0.230708522188    12.000000000000
         C            2.526639042030     0.966223326364    -0.278427277812    12.000000000000
         H           -2.118904057970     2.325080926364    -0.411733477812     1.007825032230
         H           -0.647608057970     2.010831926364     0.518933522188     1.007825032230
         H           -2.247091057970     1.874529926364     1.304483522188     1.007825032230
         H           -3.620118057970    -0.222215073636     0.859679522188     1.007825032230
         H           -3.060484057970    -1.242244073636    -0.489593477812     1.007825032230
         H           -3.682846057970     0.405949926364    -0.805890477812     1.007825032230
         H            3.677392942030    -0.836774073636     0.517693522188     1.007825032230
         H            3.224012942030     1.735320926364    -0.530030477812     1.007825032230

  Basis Set: AUG-CC-PVTZ
    Blend: AUG-CC-PVTZ
  Basis Set: (AUG-CC-PVTZ AUX)
    Blend: AUG-CC-PVTZ-JKFIT
	 Reference Energy          =    -490.6352967946021408 [Eh]
	 Singles Energy            =      -0.0000000000000000 [Eh]
	 Same-Spin Energy          =      -0.5070104693916659 [Eh]
	 Opposite-Spin Energy      =      -1.5507002064045299 [Eh]
	 Correlation Energy        =      -2.0577106757961960 [Eh]
	 Total Energy              =    -492.6930074703983564 [Eh]

	 ================> DF-SCS-MP2 Energies <==================
	-----------------------------------------------------------
	 SCS Same-Spin Scale       =       0.3333333333333333 [-]
	 SCS Opposite-Spin Scale   =       1.2000000000000000 [-]
	 SCS Same-Spin Energy      =      -0.1690034897972220 [Eh]
	 SCS Opposite-Spin Energy  =      -1.8608402476854358 [Eh]
	 SCS Correlation Energy    =      -2.0298437374826577 [Eh]
	 SCS Total Energy          =    -492.6651405320848198 [Eh]
	-----------------------------------------------------------

  Dipole Moment: [D]
     X:     0.3954      Y:     2.7885      Z:     0.9503     Total:     2.9724

*** Psi4 exiting successfully. Buy a developer a beer!
