                               Psi4 1.4a3.dev225

  ==> Input File <==

--------------------------------------------------------------------------
#psi4
#
memory 32 gb

molecule  {
0 1
  O        1.7336558    -1.0934845     0.4310080
  O       -0.8249020    -1.8470020    -0.1920140
  N       -1.7073370     0.2644950     0.0041840
  N        1.2225400     1.0581630    -0.4400630
  C       -0.6757910    -0.6248990    -0.0657590
  C       -1.6242400     1.6701930     0.3734340
  C       -3.0587270    -0.2617480    -0.1203800
  C        0.7172850    -0.0860290    -0.0289380
  C        2.8466160    -0.3331830     0.2236370
  C        2.5869190     0.9090560    -0.2781450
  H       -2.0624300     2.2861190    -0.4188050
  H       -0.5911340     1.9718700     0.5118620
  H       -2.1906170     1.8355680     1.2974120
  H       -3.5636440    -0.2611770     0.8526080
  H       -3.0040100    -1.2812060    -0.4966650
  H       -3.6263720     0.3669880    -0.8129620
  H        3.7338670    -0.8757360     0.5106220
  H        3.2804870     1.6963590    -0.5371020
units angstrom
no_reorient  #important for SAPT in psi4, default
symmetry c1  #important for SAPT in psi4, default
}

set PROPERTIES_ORIGIN ["COM"]
properties('MP2/aug-cc-pvtz', properties = ['dipole'])
--------------------------------------------------------------------------

    Molecular point group: c1
  Charge       = 0
  Multiplicity = 1
  Basis Set: AUG-CC-PVTZ
    Blend: AUG-CC-PVTZ
  Basis Set: (AUG-CC-PVTZ AUX)
    Blend: AUG-CC-PVTZ-JKFIT

    Orbital Energies [Eh]
    ---------------------

    Doubly Occupied:

       1A    -20.650889     2A    -20.527673     3A    -15.610637
       4A    -15.602967     5A    -11.376184     6A    -11.366887
       7A    -11.316661     8A    -11.276812     9A    -11.268340
      10A    -11.260235    11A     -1.456562    12A     -1.382294
      13A     -1.266943    14A     -1.250346    15A     -1.044496
      16A     -0.978086    17A     -0.959592    18A     -0.863954
      19A     -0.837604    20A     -0.772605    21A     -0.724875
      22A     -0.672203    23A     -0.665082    24A     -0.653879
      25A     -0.641333    26A     -0.613965    27A     -0.592878
      28A     -0.579690    29A     -0.566767    30A     -0.563173
      31A     -0.543694    32A     -0.535488    33A     -0.492167
      34A     -0.476586    35A     -0.442500    36A     -0.381299
      37A     -0.346592

  @DF-RHF Final Energy:  -490.61271398091526

   => Energetics <=

    Nuclear Repulsion Energy =            524.1870984286507564
    One-Electron Energy =               -1708.4757548135589786
    Two-Electron Energy =                 693.6759424039930764
    Total Energy =                       -490.6127139809152595
  Basis Set: (AUG-CC-PVTZ AUX)
    Blend: AUG-CC-PVTZ-RI
    Molecular point group: c1

    Geometry (in Angstrom), charge = 0, multiplicity = 1:

       Center              X                  Y                   Z               Mass
    ------------   -----------------  -----------------  -----------------  -----------------
         O            1.668219641587    -1.040312594316     0.431869797985    15.994914619570
         O           -0.890338158413    -1.793830094316    -0.191152202015    15.994914619570
         N           -1.772773158413     0.317666905684     0.005045797985    14.003074004430
         N            1.157103841587     1.111334905684    -0.439201202015    14.003074004430
         C           -0.741227158413    -0.571727094316    -0.064897202015    12.000000000000
         C           -1.689676158413     1.723364905684     0.374295797985    12.000000000000
         C           -3.124163158413    -0.208576094316    -0.119518202015    12.000000000000
         C            0.651848841587    -0.032857094316    -0.028076202015    12.000000000000
         C            2.781179841587    -0.280011094316     0.224498797985    12.000000000000
         C            2.521482841587     0.962227905684    -0.277283202015    12.000000000000
         H           -2.127866158413     2.339290905684    -0.417943202015     1.007825032230
         H           -0.656570158413     2.025041905684     0.512723797985     1.007825032230
         H           -2.256053158413     1.888739905684     1.298273797985     1.007825032230
         H           -3.629080158413    -0.208005094316     0.853469797985     1.007825032230
         H           -3.069446158413    -1.228034094316    -0.495803202015     1.007825032230
         H           -3.691808158413     0.420159905684    -0.812100202015     1.007825032230
         H            3.668430841587    -0.822564094316     0.511483797985     1.007825032230
         H            3.215050841587     1.749530905684    -0.536240202015     1.007825032230

  Basis Set: AUG-CC-PVTZ
    Blend: AUG-CC-PVTZ
  Basis Set: (AUG-CC-PVTZ AUX)
    Blend: AUG-CC-PVTZ-JKFIT
	 Reference Energy          =    -490.6127139809152595 [Eh]
	 Singles Energy            =      -0.0000000000000000 [Eh]
	 Same-Spin Energy          =      -0.5086915128378088 [Eh]
	 Opposite-Spin Energy      =      -1.5570312539614224 [Eh]
	 Correlation Energy        =      -2.0657227667992313 [Eh]
	 Total Energy              =    -492.6784367477144997 [Eh]

	 ================> DF-SCS-MP2 Energies <==================
	-----------------------------------------------------------
	 SCS Same-Spin Scale       =       0.3333333333333333 [-]
	 SCS Opposite-Spin Scale   =       1.2000000000000000 [-]
	 SCS Same-Spin Energy      =      -0.1695638376126029 [Eh]
	 SCS Opposite-Spin Energy  =      -1.8684375047537067 [Eh]
	 SCS Correlation Energy    =      -2.0380013423663095 [Eh]
	 SCS Total Energy          =    -492.6507153232815881 [Eh]
	-----------------------------------------------------------

  Dipole Moment: [D]
     X:     0.1273      Y:     3.0890      Z:     0.8005     Total:     3.1935

*** Psi4 exiting successfully. Buy a developer a beer!
