                               Psi4 1.4a3.dev225

  ==> Input File <==

--------------------------------------------------------------------------
#psi4
#
memory 32 gb

molecule  {
0 1
  O        1.6580350    -0.9827140     0.3821500
  O       -0.8249020    -1.8470020    -0.1920140
  N       -1.7073370     0.2644950     0.0041840
  N        1.2225400     1.0581630    -0.4400630
  C       -0.5245178    -0.7553260    -0.0760159
  C       -1.6242400     1.6701930     0.3734340
  C       -3.0587270    -0.2617480    -0.1203800
  C        0.7172850    -0.0860290    -0.0289380
  C        2.8466160    -0.3331830     0.2236370
  C        2.5869190     0.9090560    -0.2781450
  H       -2.0624300     2.2861190    -0.4188050
  H       -0.5911340     1.9718700     0.5118620
  H       -2.1906170     1.8355680     1.2974120
  H       -3.5636440    -0.2611770     0.8526080
  H       -3.0040100    -1.2812060    -0.4966650
  H       -3.6263720     0.3669880    -0.8129620
  H        3.7338670    -0.8757360     0.5106220
  H        3.2804870     1.6963590    -0.5371020
units angstrom
no_reorient  #important for SAPT in psi4, default
symmetry c1  #important for SAPT in psi4, default
}

set PROPERTIES_ORIGIN ["COM"]
properties('MP2/aug-cc-pvtz', properties = ['dipole'])
--------------------------------------------------------------------------

    Molecular point group: c1
  Charge       = 0
  Multiplicity = 1
  Basis Set: AUG-CC-PVTZ
    Blend: AUG-CC-PVTZ
  Basis Set: (AUG-CC-PVTZ AUX)
    Blend: AUG-CC-PVTZ-JKFIT

    Orbital Energies [Eh]
    ---------------------

    Doubly Occupied:

       1A    -20.663881     2A    -20.563560     3A    -15.608275
       4A    -15.560113     5A    -11.379301     6A    -11.361523
       7A    -11.324675     8A    -11.288447     9A    -11.242602
      10A    -11.239715    11A     -1.514678    12A     -1.459769
      13A     -1.261399    14A     -1.197576    15A     -1.082074
      16A     -0.952806    17A     -0.938932    18A     -0.872830
      19A     -0.839832    20A     -0.791720    21A     -0.719095
      22A     -0.699415    23A     -0.679654    24A     -0.667019
      25A     -0.636279    26A     -0.626195    27A     -0.601313
      28A     -0.590249    29A     -0.575651    30A     -0.553992
      31A     -0.539587    32A     -0.519233    33A     -0.492214
      34A     -0.474375    35A     -0.442622    36A     -0.369091
      37A     -0.343332

  @DF-RHF Final Energy:  -490.59318256030861

   => Energetics <=

    Nuclear Repulsion Energy =            528.6432109016301411
    One-Electron Energy =               -1717.1267408670423720
    Two-Electron Energy =                 697.8903474051037392
    Total Energy =                       -490.5931825603086054
  Basis Set: (AUG-CC-PVTZ AUX)
    Blend: AUG-CC-PVTZ-RI
    Molecular point group: c1

    Geometry (in Angstrom), charge = 0, multiplicity = 1:

       Center              X                  Y                   Z               Mass
    ------------   -----------------  -----------------  -----------------  -----------------
         O            1.588274007141    -0.931017481926     0.389470255258    15.994914619570
         O           -0.894662992859    -1.795305481926    -0.184693744742    15.994914619570
         N           -1.777097992859     0.316191518074     0.011504255258    14.003074004430
         N            1.152779007141     1.109859518074    -0.432742744742    14.003074004430
         C           -0.594278792859    -0.703629481926    -0.068695644742    12.000000000000
         C           -1.694000992859     1.721889518074     0.380754255258    12.000000000000
         C           -3.128487992859    -0.210051481926    -0.113059744742    12.000000000000
         C            0.647524007141    -0.034332481926    -0.021617744742    12.000000000000
         C            2.776855007141    -0.281486481926     0.230957255258    12.000000000000
         C            2.517158007141     0.960752518074    -0.270824744742    12.000000000000
         H           -2.132190992859     2.337815518074    -0.411484744742     1.007825032230
         H           -0.660894992859     2.023566518074     0.519182255258     1.007825032230
         H           -2.260377992859     1.887264518074     1.304732255258     1.007825032230
         H           -3.633404992859    -0.209480481926     0.859928255258     1.007825032230
         H           -3.073770992859    -1.229509481926    -0.489344744742     1.007825032230
         H           -3.696132992859     0.418684518074    -0.805641744742     1.007825032230
         H            3.664106007141    -0.824039481926     0.517942255258     1.007825032230
         H            3.210726007141     1.748055518074    -0.529781744742     1.007825032230

  Basis Set: AUG-CC-PVTZ
    Blend: AUG-CC-PVTZ
  Basis Set: (AUG-CC-PVTZ AUX)
    Blend: AUG-CC-PVTZ-JKFIT
	 Reference Energy          =    -490.5931825603086054 [Eh]
	 Singles Energy            =      -0.0000000000000000 [Eh]
	 Same-Spin Energy          =      -0.5074892900039281 [Eh]
	 Opposite-Spin Energy      =      -1.5512561391540673 [Eh]
	 Correlation Energy        =      -2.0587454291579954 [Eh]
	 Total Energy              =    -492.6519279894666283 [Eh]

	 ================> DF-SCS-MP2 Energies <==================
	-----------------------------------------------------------
	 SCS Same-Spin Scale       =       0.3333333333333333 [-]
	 SCS Opposite-Spin Scale   =       1.2000000000000000 [-]
	 SCS Same-Spin Energy      =      -0.1691630966679760 [Eh]
	 SCS Opposite-Spin Energy  =      -1.8615073669848807 [Eh]
	 SCS Correlation Energy    =      -2.0306704636528567 [Eh]
	 SCS Total Energy          =    -492.6238530239614875 [Eh]
	-----------------------------------------------------------

  Dipole Moment: [D]
     X:     2.0874      Y:     1.5324      Z:     0.7496     Total:     2.6958

*** Psi4 exiting successfully. Buy a developer a beer!
