                               Psi4 1.4a3.dev225

  ==> Input File <==

--------------------------------------------------------------------------
#psi4
#
memory 32 gb

molecule  {
0 1
  O        1.6148104    -0.9048351     0.3485793
  O       -0.8249020    -1.8470020    -0.1920140
  N       -1.7073370     0.2644950     0.0041840
  N        1.2225400     1.0581630    -0.4400630
  C       -0.6757910    -0.6248990    -0.0657590
  C       -1.6242400     1.6701930     0.3734340
  C       -3.0587270    -0.2617480    -0.1203800
  C        0.7172850    -0.0860290    -0.0289380
  C        2.8466160    -0.3331830     0.2236370
  C        2.5869190     0.9090560    -0.2781450
  H       -2.0624300     2.2861190    -0.4188050
  H       -0.5911340     1.9718700     0.5118620
  H       -2.1906170     1.8355680     1.2974120
  H       -3.5636440    -0.2611770     0.8526080
  H       -3.0040100    -1.2812060    -0.4966650
  H       -3.6263720     0.3669880    -0.8129620
  H        3.7338670    -0.8757360     0.5106220
  H        3.2804870     1.6963590    -0.5371020
units angstrom
no_reorient  #important for SAPT in psi4, default
symmetry c1  #important for SAPT in psi4, default
}

set PROPERTIES_ORIGIN ["COM"]
properties('MP2/aug-cc-pvtz', properties = ['dipole'])
--------------------------------------------------------------------------

    Molecular point group: c1
  Charge       = 0
  Multiplicity = 1
  Basis Set: AUG-CC-PVTZ
    Blend: AUG-CC-PVTZ
  Basis Set: (AUG-CC-PVTZ AUX)
    Blend: AUG-CC-PVTZ-JKFIT

    Orbital Energies [Eh]
    ---------------------

    Doubly Occupied:

       1A    -20.654342     2A    -20.528529     3A    -15.601799
       4A    -15.577638     5A    -11.373450     6A    -11.348999
       7A    -11.309533     8A    -11.277290     9A    -11.265380
      10A    -11.259162    11A     -1.534944    12A     -1.383093
      13A     -1.257789    14A     -1.235165    15A     -1.071232
      16A     -0.977312    17A     -0.959702    18A     -0.872306
      19A     -0.844204    20A     -0.788404    21A     -0.729431
      22A     -0.698440    23A     -0.677736    24A     -0.661548
      25A     -0.654705    26A     -0.623976    27A     -0.591873
      28A     -0.579444    29A     -0.564223    30A     -0.561240
      31A     -0.540504    32A     -0.535052    33A     -0.473272
      34A     -0.457127    35A     -0.441813    36A     -0.380418
      37A     -0.354176

  @DF-RHF Final Energy:  -490.63554561951543

   => Energetics <=

    Nuclear Repulsion Energy =            531.3051098573376976
    One-Electron Energy =               -1722.5908092234185460
    Two-Electron Energy =                 700.6501537465652518
    Total Energy =                       -490.6355456195154829
  Basis Set: (AUG-CC-PVTZ AUX)
    Blend: AUG-CC-PVTZ-RI
    Molecular point group: c1

    Geometry (in Angstrom), charge = 0, multiplicity = 1:

       Center              X                  Y                   Z               Mass
    ------------   -----------------  -----------------  -----------------  -----------------
         O            1.562946577247    -0.873207258948     0.358854587985    15.994914619570
         O           -0.876765822753    -1.815374158948    -0.181738712015    15.994914619570
         N           -1.759200822753     0.296122841052     0.014459287985    14.003074004430
         N            1.170676177247     1.089790841052    -0.429787712015    14.003074004430
         C           -0.727654822753    -0.593271158948    -0.055483712015    12.000000000000
         C           -1.676103822753     1.701820841052     0.383709287985    12.000000000000
         C           -3.110590822753    -0.230120158948    -0.110104712015    12.000000000000
         C            0.665421177247    -0.054401158948    -0.018662712015    12.000000000000
         C            2.794752177247    -0.301555158948     0.233912287985    12.000000000000
         C            2.535055177247     0.940683841052    -0.267869712015    12.000000000000
         H           -2.114293822753     2.317746841052    -0.408529712015     1.007825032230
         H           -0.642997822753     2.003497841052     0.522137287985     1.007825032230
         H           -2.242480822753     1.867195841052     1.307687287985     1.007825032230
         H           -3.615507822753    -0.229549158948     0.862883287985     1.007825032230
         H           -3.055873822753    -1.249578158948    -0.486389712015     1.007825032230
         H           -3.678235822753     0.398615841052    -0.802686712015     1.007825032230
         H            3.682003177247    -0.844108158948     0.520897287985     1.007825032230
         H            3.228623177247     1.727986841052    -0.526826712015     1.007825032230

  Basis Set: AUG-CC-PVTZ
    Blend: AUG-CC-PVTZ
  Basis Set: (AUG-CC-PVTZ AUX)
    Blend: AUG-CC-PVTZ-JKFIT
	 Reference Energy          =    -490.6355456195154261 [Eh]
	 Singles Energy            =      -0.0000000000000000 [Eh]
	 Same-Spin Energy          =      -0.5055730711045240 [Eh]
	 Opposite-Spin Energy      =      -1.5462459967141453 [Eh]
	 Correlation Energy        =      -2.0518190678186694 [Eh]
	 Total Energy              =    -492.6873646873340817 [Eh]

	 ================> DF-SCS-MP2 Energies <==================
	-----------------------------------------------------------
	 SCS Same-Spin Scale       =       0.3333333333333333 [-]
	 SCS Opposite-Spin Scale   =       1.2000000000000000 [-]
	 SCS Same-Spin Energy      =      -0.1685243570348413 [Eh]
	 SCS Opposite-Spin Energy  =      -1.8554951960569743 [Eh]
	 SCS Correlation Energy    =      -2.0240195530918155 [Eh]
	 SCS Total Energy          =    -492.6595651726072447 [Eh]
	-----------------------------------------------------------

  Dipole Moment: [D]
     X:     0.4798      Y:     2.5420      Z:     1.0661     Total:     2.7980

*** Psi4 exiting successfully. Buy a developer a beer!
