                               Psi4 1.4a3.dev225

  ==> Input File <==

--------------------------------------------------------------------------
#psi4
#
memory 32 gb

molecule  {
0 1
  O        1.7556136    -0.8836637     0.3501403
  O       -0.8249020    -1.8470020    -0.1920140
  N       -1.7073370     0.2644950     0.0041840
  N        1.2225400     1.0581630    -0.4400630
  C       -0.6757910    -0.6248990    -0.0657590
  C       -1.6242400     1.6701930     0.3734340
  C       -3.0587270    -0.2617480    -0.1203800
  C        0.7172850    -0.0860290    -0.0289380
  C        2.8466160    -0.3331830     0.2236370
  C        2.5869190     0.9090560    -0.2781450
  H       -2.0624300     2.2861190    -0.4188050
  H       -0.5911340     1.9718700     0.5118620
  H       -2.1906170     1.8355680     1.2974120
  H       -3.5636440    -0.2611770     0.8526080
  H       -3.0040100    -1.2812060    -0.4966650
  H       -3.6263720     0.3669880    -0.8129620
  H        3.7338670    -0.8757360     0.5106220
  H        3.2804870     1.6963590    -0.5371020
units angstrom
no_reorient  #important for SAPT in psi4, default
symmetry c1  #important for SAPT in psi4, default
}

set PROPERTIES_ORIGIN ["COM"]
properties('MP2/aug-cc-pvtz', properties = ['dipole'])
--------------------------------------------------------------------------

    Molecular point group: c1
  Charge       = 0
  Multiplicity = 1
  Basis Set: AUG-CC-PVTZ
    Blend: AUG-CC-PVTZ
  Basis Set: (AUG-CC-PVTZ AUX)
    Blend: AUG-CC-PVTZ-JKFIT

    Orbital Energies [Eh]
    ---------------------

    Doubly Occupied:

       1A    -20.655653     2A    -20.527737     3A    -15.602438
       4A    -15.592044     5A    -11.377441     6A    -11.348429
       7A    -11.307566     8A    -11.266258     9A    -11.261928
      10A    -11.259939    11A     -1.552703    12A     -1.384252
      13A     -1.259940    14A     -1.242919    15A     -1.067754
      16A     -0.978101    17A     -0.960360    18A     -0.878926
      19A     -0.846718    20A     -0.791968    21A     -0.734581
      22A     -0.707272    23A     -0.692002    24A     -0.661182
      25A     -0.657249    26A     -0.619660    27A     -0.587353
      28A     -0.568440    29A     -0.564355    30A     -0.562197
      31A     -0.544305    32A     -0.536770    33A     -0.480954
      34A     -0.462672    35A     -0.442929    36A     -0.381232
      37A     -0.342865

  @DF-RHF Final Energy:  -490.62220133446084

   => Energetics <=

    Nuclear Repulsion Energy =            530.6591545925069795
    One-Electron Energy =               -1721.1445281293681546
    Two-Electron Energy =                 699.8631722024001647
    Total Energy =                       -490.6222013344608968
  Basis Set: (AUG-CC-PVTZ AUX)
    Blend: AUG-CC-PVTZ-RI
    Molecular point group: c1

    Geometry (in Angstrom), charge = 0, multiplicity = 1:

       Center              X                  Y                   Z               Mass
    ------------   -----------------  -----------------  -----------------  -----------------
         O            1.687669825542    -0.854453666850     0.360237319276    15.994914619570
         O           -0.892845774458    -1.817791966850    -0.181916980724    15.994914619570
         N           -1.775280774458     0.293705033150     0.014281019276    14.003074004430
         N            1.154596225542     1.087373033150    -0.429965980724    14.003074004430
         C           -0.743734774458    -0.595688966850    -0.055661980724    12.000000000000
         C           -1.692183774458     1.699403033150     0.383531019276    12.000000000000
         C           -3.126670774458    -0.232537966850    -0.110282980724    12.000000000000
         C            0.649341225542    -0.056818966850    -0.018840980724    12.000000000000
         C            2.778672225542    -0.303972966850     0.233734019276    12.000000000000
         C            2.518975225542     0.938266033150    -0.268047980724    12.000000000000
         H           -2.130373774458     2.315329033150    -0.408707980724     1.007825032230
         H           -0.659077774458     2.001080033150     0.521959019276     1.007825032230
         H           -2.258560774458     1.864778033150     1.307509019276     1.007825032230
         H           -3.631587774458    -0.231966966850     0.862705019276     1.007825032230
         H           -3.071953774458    -1.251995966850    -0.486567980724     1.007825032230
         H           -3.694315774458     0.396198033150    -0.802864980724     1.007825032230
         H            3.665923225542    -0.846525966850     0.520719019276     1.007825032230
         H            3.212543225542     1.725569033150    -0.527004980724     1.007825032230

  Basis Set: AUG-CC-PVTZ
    Blend: AUG-CC-PVTZ
  Basis Set: (AUG-CC-PVTZ AUX)
    Blend: AUG-CC-PVTZ-JKFIT
	 Reference Energy          =    -490.6222013344608399 [Eh]
	 Singles Energy            =      -0.0000000000000000 [Eh]
	 Same-Spin Energy          =      -0.5065627055724647 [Eh]
	 Opposite-Spin Energy      =      -1.5458839909681290 [Eh]
	 Correlation Energy        =      -2.0524466965405939 [Eh]
	 Total Energy              =    -492.6746480310014249 [Eh]

	 ================> DF-SCS-MP2 Energies <==================
	-----------------------------------------------------------
	 SCS Same-Spin Scale       =       0.3333333333333333 [-]
	 SCS Opposite-Spin Scale   =       1.2000000000000000 [-]
	 SCS Same-Spin Energy      =      -0.1688542351908216 [Eh]
	 SCS Opposite-Spin Energy  =      -1.8550607891617548 [Eh]
	 SCS Correlation Energy    =      -2.0239150243525765 [Eh]
	 SCS Total Energy          =    -492.6461163588134013 [Eh]
	-----------------------------------------------------------

  Dipole Moment: [D]
     X:     0.2366      Y:     2.4234      Z:     1.0902     Total:     2.6678

*** Psi4 exiting successfully. Buy a developer a beer!
