                               Psi4 1.4a3.dev225

  ==> Input File <==

--------------------------------------------------------------------------
#psi4
#
memory 32 gb

molecule  {
0 1
  O        1.6580350    -0.9827140     0.3821500
  O       -0.8249020    -1.8470020    -0.1920140
  N       -1.7073370     0.2644950     0.0041840
  N        1.2225400     1.0581630    -0.4400630
  C       -0.6757910    -0.6248990    -0.0657590
  C       -1.6242400     1.6701930     0.3734340
  C       -3.0587270    -0.2617480    -0.1203800
  C        0.7172850    -0.0860290    -0.0289380
  C        2.8466160    -0.3331830     0.2236370
  C        2.5869190     0.9090560    -0.2781450
  H       -2.0624300     2.2861190    -0.4188050
  H       -0.5911340     1.9718700     0.5118620
  H       -2.1906170     1.8355680     1.2974120
  H       -3.5406136    -0.2612030     0.8082278
  H       -3.0040100    -1.2812060    -0.4966650
  H       -3.6263720     0.3669880    -0.8129620
  H        3.7338670    -0.8757360     0.5106220
  H        3.2804870     1.6963590    -0.5371020
units angstrom
no_reorient  #important for SAPT in psi4, default
symmetry c1  #important for SAPT in psi4, default
}

set PROPERTIES_ORIGIN ["COM"]
properties('MP2/aug-cc-pvtz', properties = ['dipole'])
--------------------------------------------------------------------------

    Molecular point group: c1
  Charge       = 0
  Multiplicity = 1
  Basis Set: AUG-CC-PVTZ
    Blend: AUG-CC-PVTZ
  Basis Set: (AUG-CC-PVTZ AUX)
    Blend: AUG-CC-PVTZ-JKFIT

    Orbital Energies [Eh]
    ---------------------

    Doubly Occupied:

       1A    -20.653478     2A    -20.527420     3A    -15.601281
       4A    -15.591632     5A    -11.373812     6A    -11.356138
       7A    -11.312265     8A    -11.276997     9A    -11.266393
      10A    -11.253266    11A     -1.498326    12A     -1.382119
      13A     -1.259769    14A     -1.242634    15A     -1.057751
      16A     -0.979733    17A     -0.960091    18A     -0.866576
      19A     -0.844406    20A     -0.781234    21A     -0.727327
      22A     -0.682378    23A     -0.668777    24A     -0.660094
      25A     -0.653988    26A     -0.621892    27A     -0.588364
      28A     -0.585610    29A     -0.569125    30A     -0.564350
      31A     -0.541361    32A     -0.536827    33A     -0.481749
      34A     -0.465016    35A     -0.441583    36A     -0.380734
      37A     -0.351032

  @DF-RHF Final Energy:  -490.63591862894759

   => Energetics <=

    Nuclear Repulsion Energy =            528.5796020191506841
    One-Electron Energy =               -1717.2199837834893970
    Two-Electron Energy =                 698.0044631353910063
    Total Energy =                       -490.6359186289475929
  Basis Set: (AUG-CC-PVTZ AUX)
    Blend: AUG-CC-PVTZ-RI
    Molecular point group: c1

    Geometry (in Angstrom), charge = 0, multiplicity = 1:

       Center              X                  Y                   Z               Mass
    ------------   -----------------  -----------------  -----------------  -----------------
         O            1.601069137709    -0.942192076331     0.388910808454    15.994914619570
         O           -0.881867862291    -1.806480076331    -0.185253191546    15.994914619570
         N           -1.764302862291     0.305016923669     0.010944808454    14.003074004430
         N            1.165574137709     1.098684923669    -0.433302191546    14.003074004430
         C           -0.732756862291    -0.584377076331    -0.058998191546    12.000000000000
         C           -1.681205862291     1.710714923669     0.380194808454    12.000000000000
         C           -3.115692862291    -0.221226076331    -0.113619191546    12.000000000000
         C            0.660319137709    -0.045507076331    -0.022177191546    12.000000000000
         C            2.789650137709    -0.292661076331     0.230397808454    12.000000000000
         C            2.529953137709     0.949577923669    -0.271384191546    12.000000000000
         H           -2.119395862291     2.326640923669    -0.412044191546     1.007825032230
         H           -0.648099862291     2.012391923669     0.518622808454     1.007825032230
         H           -2.247582862291     1.876089923669     1.304172808454     1.007825032230
         H           -3.597579462291    -0.220681076331     0.814988608454     1.007825032230
         H           -3.060975862291    -1.240684076331    -0.489904191546     1.007825032230
         H           -3.683337862291     0.407509923669    -0.806201191546     1.007825032230
         H            3.676901137709    -0.835214076331     0.517382808454     1.007825032230
         H            3.223521137709     1.736880923669    -0.530341191546     1.007825032230

  Basis Set: AUG-CC-PVTZ
    Blend: AUG-CC-PVTZ
  Basis Set: (AUG-CC-PVTZ AUX)
    Blend: AUG-CC-PVTZ-JKFIT
	 Reference Energy          =    -490.6359186289475929 [Eh]
	 Singles Energy            =      -0.0000000000000000 [Eh]
	 Same-Spin Energy          =      -0.5065688136228342 [Eh]
	 Opposite-Spin Energy      =      -1.5498203607613221 [Eh]
	 Correlation Energy        =      -2.0563891743841562 [Eh]
	 Total Energy              =    -492.6923078033317438 [Eh]

	 ================> DF-SCS-MP2 Energies <==================
	-----------------------------------------------------------
	 SCS Same-Spin Scale       =       0.3333333333333333 [-]
	 SCS Opposite-Spin Scale   =       1.2000000000000000 [-]
	 SCS Same-Spin Energy      =      -0.1688562712076114 [Eh]
	 SCS Opposite-Spin Energy  =      -1.8597844329135864 [Eh]
	 SCS Correlation Energy    =      -2.0286407041211980 [Eh]
	 SCS Total Energy          =    -492.6645593330687802 [Eh]
	-----------------------------------------------------------

  Dipole Moment: [D]
     X:     0.3414      Y:     2.7749      Z:     0.9766     Total:     2.9615

*** Psi4 exiting successfully. Buy a developer a beer!
