                               Psi4 1.4a3.dev225

  ==> Input File <==

--------------------------------------------------------------------------
#psi4
#
memory 32 gb

molecule  {
0 1
  O        1.6580350    -0.9827140     0.3821500
  O       -0.8249020    -1.8470020    -0.1920140
  N       -1.7073370     0.2644950     0.0041840
  N        1.2225400     1.0581630    -0.4400630
  C       -0.6878392    -0.7236450    -0.0759604
  C       -1.6242400     1.6701930     0.3734340
  C       -3.0587270    -0.2617480    -0.1203800
  C        0.7172850    -0.0860290    -0.0289380
  C        2.8466160    -0.3331830     0.2236370
  C        2.5869190     0.9090560    -0.2781450
  H       -2.0624300     2.2861190    -0.4188050
  H       -0.5911340     1.9718700     0.5118620
  H       -2.1906170     1.8355680     1.2974120
  H       -3.5636440    -0.2611770     0.8526080
  H       -3.0040100    -1.2812060    -0.4966650
  H       -3.6263720     0.3669880    -0.8129620
  H        3.7338670    -0.8757360     0.5106220
  H        3.2804870     1.6963590    -0.5371020
units angstrom
no_reorient  #important for SAPT in psi4, default
symmetry c1  #important for SAPT in psi4, default
}

set PROPERTIES_ORIGIN ["COM"]
properties('MP2/aug-cc-pvtz', properties = ['dipole'])
--------------------------------------------------------------------------

    Molecular point group: c1
  Charge       = 0
  Multiplicity = 1
  Basis Set: AUG-CC-PVTZ
    Blend: AUG-CC-PVTZ
  Basis Set: (AUG-CC-PVTZ AUX)
    Blend: AUG-CC-PVTZ-JKFIT

    Orbital Energies [Eh]
    ---------------------

    Doubly Occupied:

       1A    -20.650457     2A    -20.550389     3A    -15.587643
       4A    -15.586326     5A    -11.375259     6A    -11.352324
       7A    -11.308601     8A    -11.274907     9A    -11.260394
      10A    -11.252866    11A     -1.497823    12A     -1.455111
      13A     -1.250845    14A     -1.234918    15A     -1.050906
      16A     -0.969978    17A     -0.941108    18A     -0.860335
      19A     -0.834857    20A     -0.776885    21A     -0.725849
      22A     -0.692563    23A     -0.673369    24A     -0.661635
      25A     -0.649208    26A     -0.620221    27A     -0.597599
      28A     -0.586066    29A     -0.575361    30A     -0.561651
      31A     -0.554359    32A     -0.535057    33A     -0.482204
      34A     -0.463185    35A     -0.446264    36A     -0.377651
      37A     -0.348356

  @DF-RHF Final Energy:  -490.62691300952565

   => Energetics <=

    Nuclear Repulsion Energy =            528.3548454282117746
    One-Electron Energy =               -1716.7184566837156581
    Two-Electron Energy =                 697.7366982459782321
    Total Energy =                       -490.6269130095256514
  Basis Set: (AUG-CC-PVTZ AUX)
    Blend: AUG-CC-PVTZ-RI
    Molecular point group: c1

    Geometry (in Angstrom), charge = 0, multiplicity = 1:

       Center              X                  Y                   Z               Mass
    ------------   -----------------  -----------------  -----------------  -----------------
         O            1.602267129411    -0.933731860486     0.389465500105    15.994914619570
         O           -0.880669870589    -1.798019860486    -0.184698499895    15.994914619570
         N           -1.763104870589     0.313477139514     0.011499500105    14.003074004430
         N            1.166772129411     1.107145139514    -0.432747499895    14.003074004430
         C           -0.743607070589    -0.674662860486    -0.068644899895    12.000000000000
         C           -1.680007870589     1.719175139514     0.380749500105    12.000000000000
         C           -3.114494870589    -0.212765860486    -0.113064499895    12.000000000000
         C            0.661517129411    -0.037046860486    -0.021622499895    12.000000000000
         C            2.790848129411    -0.284200860486     0.230952500105    12.000000000000
         C            2.531151129411     0.958038139514    -0.270829499895    12.000000000000
         H           -2.118197870589     2.335101139514    -0.411489499895     1.007825032230
         H           -0.646901870589     2.020852139514     0.519177500105     1.007825032230
         H           -2.246384870589     1.884550139514     1.304727500105     1.007825032230
         H           -3.619411870589    -0.212194860486     0.859923500105     1.007825032230
         H           -3.059777870589    -1.232223860486    -0.489349499895     1.007825032230
         H           -3.682139870589     0.415970139514    -0.805646499895     1.007825032230
         H            3.678099129411    -0.826753860486     0.517937500105     1.007825032230
         H            3.224719129411     1.745341139514    -0.529786499895     1.007825032230

  Basis Set: AUG-CC-PVTZ
    Blend: AUG-CC-PVTZ
  Basis Set: (AUG-CC-PVTZ AUX)
    Blend: AUG-CC-PVTZ-JKFIT
	 Reference Energy          =    -490.6269130095256514 [Eh]
	 Singles Energy            =      -0.0000000000000000 [Eh]
	 Same-Spin Energy          =      -0.5043111009780075 [Eh]
	 Opposite-Spin Energy      =      -1.5457118885130785 [Eh]
	 Correlation Energy        =      -2.0500229894910857 [Eh]
	 Total Energy              =    -492.6769359990167345 [Eh]

	 ================> DF-SCS-MP2 Energies <==================
	-----------------------------------------------------------
	 SCS Same-Spin Scale       =       0.3333333333333333 [-]
	 SCS Opposite-Spin Scale   =       1.2000000000000000 [-]
	 SCS Same-Spin Energy      =      -0.1681037003260025 [Eh]
	 SCS Opposite-Spin Energy  =      -1.8548542662156942 [Eh]
	 SCS Correlation Energy    =      -2.0229579665416968 [Eh]
	 SCS Total Energy          =    -492.6498709760673478 [Eh]
	-----------------------------------------------------------

  Dipole Moment: [D]
     X:     0.5244      Y:     1.9983      Z:     0.8589     Total:     2.2374

*** Psi4 exiting successfully. Buy a developer a beer!
