                               Psi4 1.4a3.dev225

  ==> Input File <==

--------------------------------------------------------------------------
#psi4
#
memory 32 gb

molecule  {
0 1
  O        1.6580350    -0.9827140     0.3821500
  O       -0.8249020    -1.8470020    -0.1920140
  N       -1.7073370     0.2644950     0.0041840
  N        1.2225400     1.0581630    -0.4400630
  C       -0.6757910    -0.6248990    -0.0657590
  C       -1.6242400     1.6701930     0.3734340
  C       -3.0587270    -0.2617480    -0.1203800
  C        0.7096100    -0.1034098    -0.0226928
  C        2.8466160    -0.3331830     0.2236370
  C        2.5869190     0.9090560    -0.2781450
  H       -2.0624300     2.2861190    -0.4188050
  H       -0.5911340     1.9718700     0.5118620
  H       -2.1906170     1.8355680     1.2974120
  H       -3.5636440    -0.2611770     0.8526080
  H       -3.0040100    -1.2812060    -0.4966650
  H       -3.6263720     0.3669880    -0.8129620
  H        3.7338670    -0.8757360     0.5106220
  H        3.2804870     1.6963590    -0.5371020
units angstrom
no_reorient  #important for SAPT in psi4, default
symmetry c1  #important for SAPT in psi4, default
}

set PROPERTIES_ORIGIN ["COM"]
properties('MP2/aug-cc-pvtz', properties = ['dipole'])
--------------------------------------------------------------------------

    Molecular point group: c1
  Charge       = 0
  Multiplicity = 1
  Basis Set: AUG-CC-PVTZ
    Blend: AUG-CC-PVTZ
  Basis Set: (AUG-CC-PVTZ AUX)
    Blend: AUG-CC-PVTZ-JKFIT

    Orbital Energies [Eh]
    ---------------------

    Doubly Occupied:

       1A    -20.655938     2A    -20.527603     3A    -15.602062
       4A    -15.592707     5A    -11.373489     6A    -11.357387
       7A    -11.312524     8A    -11.277573     9A    -11.266158
      10A    -11.259469    11A     -1.501054    12A     -1.383097
      13A     -1.258425    14A     -1.237793    15A     -1.059493
      16A     -0.977222    17A     -0.959716    18A     -0.867740
      19A     -0.843770    20A     -0.781986    21A     -0.727325
      22A     -0.683640    23A     -0.669012    24A     -0.660676
      25A     -0.652161    26A     -0.621142    27A     -0.589900
      28A     -0.585090    29A     -0.566932    30A     -0.561948
      31A     -0.541696    32A     -0.535438    33A     -0.479552
      34A     -0.462259    35A     -0.442860    36A     -0.380525
      37A     -0.349888

  @DF-RHF Final Energy:  -490.63498552654306

   => Energetics <=

    Nuclear Repulsion Energy =            528.3209266509171584
    One-Electron Energy =               -1716.7013264479742247
    Two-Electron Energy =                 697.7454142705141749
    Total Energy =                       -490.6349855265430051
  Basis Set: (AUG-CC-PVTZ AUX)
    Blend: AUG-CC-PVTZ-RI
    Molecular point group: c1

    Geometry (in Angstrom), charge = 0, multiplicity = 1:

       Center              X                  Y                   Z               Mass
    ------------   -----------------  -----------------  -----------------  -----------------
         O            1.601892440470    -0.940703103643     0.388056381124    15.994914619570
         O           -0.881044559530    -1.804991103643    -0.186107618876    15.994914619570
         N           -1.763479559530     0.306505896357     0.010090381124    14.003074004430
         N            1.166397440470     1.100173896357    -0.434156618876    14.003074004430
         C           -0.731933559530    -0.582888103643    -0.059852618876    12.000000000000
         C           -1.680382559530     1.712203896357     0.379340381124    12.000000000000
         C           -3.114869559530    -0.219737103643    -0.114473618876    12.000000000000
         C            0.653467440470    -0.061398903643    -0.016786418876    12.000000000000
         C            2.790473440470    -0.291172103643     0.229543381124    12.000000000000
         C            2.530776440470     0.951066896357    -0.272238618876    12.000000000000
         H           -2.118572559530     2.328129896357    -0.412898618876     1.007825032230
         H           -0.647276559530     2.013880896357     0.517768381124     1.007825032230
         H           -2.246759559530     1.877578896357     1.303318381124     1.007825032230
         H           -3.619786559530    -0.219166103643     0.858514381124     1.007825032230
         H           -3.060152559530    -1.239195103643    -0.490758618876     1.007825032230
         H           -3.682514559530     0.408998896357    -0.807055618876     1.007825032230
         H            3.677724440470    -0.833725103643     0.516528381124     1.007825032230
         H            3.224344440470     1.738369896357    -0.531195618876     1.007825032230

  Basis Set: AUG-CC-PVTZ
    Blend: AUG-CC-PVTZ
  Basis Set: (AUG-CC-PVTZ AUX)
    Blend: AUG-CC-PVTZ-JKFIT
	 Reference Energy          =    -490.6349855265430620 [Eh]
	 Singles Energy            =      -0.0000000000000000 [Eh]
	 Same-Spin Energy          =      -0.5071251287333763 [Eh]
	 Opposite-Spin Energy      =      -1.5508434714516022 [Eh]
	 Correlation Energy        =      -2.0579686001849784 [Eh]
	 Total Energy              =    -492.6929541267280683 [Eh]

	 ================> DF-SCS-MP2 Energies <==================
	-----------------------------------------------------------
	 SCS Same-Spin Scale       =       0.3333333333333333 [-]
	 SCS Opposite-Spin Scale   =       1.2000000000000000 [-]
	 SCS Same-Spin Energy      =      -0.1690417095777921 [Eh]
	 SCS Opposite-Spin Energy  =      -1.8610121657419225 [Eh]
	 SCS Correlation Energy    =      -2.0300538753197146 [Eh]
	 SCS Total Energy          =    -492.6650394018627708 [Eh]
	-----------------------------------------------------------

  Dipole Moment: [D]
     X:     0.4159      Y:     2.7451      Z:     0.9736     Total:     2.9422

*** Psi4 exiting successfully. Buy a developer a beer!
