                               Psi4 1.4a3.dev225

  ==> Input File <==

--------------------------------------------------------------------------
#psi4
#
memory 32 gb

molecule  {
0 1
  O        1.6580350    -0.9827140     0.3821500
  O       -0.8249020    -1.8470020    -0.1920140
  N       -1.7073370     0.2644950     0.0041840
  N        1.2225400     1.0581630    -0.4400630
  C       -0.6757910    -0.6248990    -0.0657590
  C       -1.6242400     1.6701930     0.3734340
  C       -3.0587270    -0.2617480    -0.1203800
  C        0.7172850    -0.0860290    -0.0289380
  C        2.8466160    -0.3331830     0.2236370
  C        2.5907249     0.8908506    -0.2707912
  H       -2.0624300     2.2861190    -0.4188050
  H       -0.5911340     1.9718700     0.5118620
  H       -2.1906170     1.8355680     1.2974120
  H       -3.5636440    -0.2611770     0.8526080
  H       -3.0040100    -1.2812060    -0.4966650
  H       -3.6263720     0.3669880    -0.8129620
  H        3.7338670    -0.8757360     0.5106220
  H        3.2804870     1.6963590    -0.5371020
units angstrom
no_reorient  #important for SAPT in psi4, default
symmetry c1  #important for SAPT in psi4, default
}

set PROPERTIES_ORIGIN ["COM"]
properties('MP2/aug-cc-pvtz', properties = ['dipole'])
--------------------------------------------------------------------------

    Molecular point group: c1
  Charge       = 0
  Multiplicity = 1
  Basis Set: AUG-CC-PVTZ
    Blend: AUG-CC-PVTZ
  Basis Set: (AUG-CC-PVTZ AUX)
    Blend: AUG-CC-PVTZ-JKFIT

    Orbital Energies [Eh]
    ---------------------

    Doubly Occupied:

       1A    -20.651907     2A    -20.528164     3A    -15.602238
       4A    -15.591772     5A    -11.374383     6A    -11.356951
       7A    -11.309367     8A    -11.275418     9A    -11.266632
      10A    -11.259574    11A     -1.498435    12A     -1.382752
      13A     -1.259760    14A     -1.241780    15A     -1.060335
      16A     -0.977657    17A     -0.960087    18A     -0.867083
      19A     -0.841908    20A     -0.780506    21A     -0.727513
      22A     -0.682540    23A     -0.667263    24A     -0.660232
      25A     -0.652148    26A     -0.616985    27A     -0.588421
      28A     -0.585843    29A     -0.567203    30A     -0.562229
      31A     -0.541884    32A     -0.535382    33A     -0.483281
      34A     -0.464157    35A     -0.442106    36A     -0.380737
      37A     -0.355089

  @DF-RHF Final Energy:  -490.63726363428526

   => Energetics <=

    Nuclear Repulsion Energy =            528.5645550006332769
    One-Electron Energy =               -1717.2041968401229042
    Two-Electron Energy =                 698.0023782052044226
    Total Energy =                       -490.6372636342853184
  Basis Set: (AUG-CC-PVTZ AUX)
    Blend: AUG-CC-PVTZ-RI
    Molecular point group: c1

    Geometry (in Angstrom), charge = 0, multiplicity = 1:

       Center              X                  Y                   Z               Mass
    ------------   -----------------  -----------------  -----------------  -----------------
         O            1.600908774904    -0.940632453204     0.387961398008    15.994914619570
         O           -0.882028225096    -1.804920453204    -0.186202601992    15.994914619570
         N           -1.764463225096     0.306576546796     0.009995398008    14.003074004430
         N            1.165413774904     1.100244546796    -0.434251601992    14.003074004430
         C           -0.732917225096    -0.582817453204    -0.059947601992    12.000000000000
         C           -1.681366225096     1.712274546796     0.379245398008    12.000000000000
         C           -3.115853225096    -0.219666453204    -0.114568601992    12.000000000000
         C            0.660158774904    -0.043947453204    -0.023126601992    12.000000000000
         C            2.789489774904    -0.291101453204     0.229448398008    12.000000000000
         C            2.533598674904     0.932932146796    -0.264979801992    12.000000000000
         H           -2.119556225096     2.328200546796    -0.412993601992     1.007825032230
         H           -0.648260225096     2.013951546796     0.517673398008     1.007825032230
         H           -2.247743225096     1.877649546796     1.303223398008     1.007825032230
         H           -3.620770225096    -0.219095453204     0.858419398008     1.007825032230
         H           -3.061136225096    -1.239124453204    -0.490853601992     1.007825032230
         H           -3.683498225096     0.409069546796    -0.807150601992     1.007825032230
         H            3.676740774904    -0.833654453204     0.516433398008     1.007825032230
         H            3.223360774904     1.738440546796    -0.531290601992     1.007825032230

  Basis Set: AUG-CC-PVTZ
    Blend: AUG-CC-PVTZ
  Basis Set: (AUG-CC-PVTZ AUX)
    Blend: AUG-CC-PVTZ-JKFIT
	 Reference Energy          =    -490.6372636342852616 [Eh]
	 Singles Energy            =      -0.0000000000000000 [Eh]
	 Same-Spin Energy          =      -0.5061701247608391 [Eh]
	 Opposite-Spin Energy      =      -1.5495453183604337 [Eh]
	 Correlation Energy        =      -2.0557154431212727 [Eh]
	 Total Energy              =    -492.6929790774065623 [Eh]

	 ================> DF-SCS-MP2 Energies <==================
	-----------------------------------------------------------
	 SCS Same-Spin Scale       =       0.3333333333333333 [-]
	 SCS Opposite-Spin Scale   =       1.2000000000000000 [-]
	 SCS Same-Spin Energy      =      -0.1687233749202797 [Eh]
	 SCS Opposite-Spin Energy  =      -1.8594543820325204 [Eh]
	 SCS Correlation Energy    =      -2.0281777569528003 [Eh]
	 SCS Total Energy          =    -492.6654413912380619 [Eh]
	-----------------------------------------------------------

  Dipole Moment: [D]
     X:     0.3511      Y:     2.7613      Z:     0.9601     Total:     2.9444

*** Psi4 exiting successfully. Buy a developer a beer!
