                               Psi4 1.4a3.dev225

  ==> Input File <==

--------------------------------------------------------------------------
#psi4
#
memory 32 gb

molecule  {
0 1
  O        1.6580350    -0.9827140     0.3821500
  O       -0.8249020    -1.8470020    -0.1920140
  N       -1.7073370     0.2644950     0.0041840
  N        1.2225400     1.0581630    -0.4400630
  C       -0.6757910    -0.6248990    -0.0657590
  C       -1.6242400     1.6701930     0.3734340
  C       -3.0587270    -0.2617480    -0.1203800
  C        0.7172850    -0.0860290    -0.0289380
  C        2.8466160    -0.3331830     0.2236370
  C        2.5869190     0.9090560    -0.2781450
  H       -2.0624300     2.2861190    -0.4188050
  H       -0.5911340     1.9718700     0.5118620
  H       -2.1906170     1.8355680     1.2974120
  H       -3.5728562    -0.2611666     0.8703601
  H       -3.0040100    -1.2812060    -0.4966650
  H       -3.6263720     0.3669880    -0.8129620
  H        3.7338670    -0.8757360     0.5106220
  H        3.2804870     1.6963590    -0.5371020
units angstrom
no_reorient  #important for SAPT in psi4, default
symmetry c1  #important for SAPT in psi4, default
}

set PROPERTIES_ORIGIN ["COM"]
properties('MP2/aug-cc-pvtz', properties = ['dipole'])
--------------------------------------------------------------------------

    Molecular point group: c1
  Charge       = 0
  Multiplicity = 1
  Basis Set: AUG-CC-PVTZ
    Blend: AUG-CC-PVTZ
  Basis Set: (AUG-CC-PVTZ AUX)
    Blend: AUG-CC-PVTZ-JKFIT

    Orbital Energies [Eh]
    ---------------------

    Doubly Occupied:

       1A    -20.653737     2A    -20.528000     3A    -15.602247
       4A    -15.591918     5A    -11.374345     6A    -11.356437
       7A    -11.312510     8A    -11.277213     9A    -11.266497
      10A    -11.261802    11A     -1.498584    12A     -1.382630
      13A     -1.260055    14A     -1.242864    15A     -1.057799
      16A     -0.976596    17A     -0.958742    18A     -0.865734
      19A     -0.843760    20A     -0.780916    21A     -0.727301
      22A     -0.682495    23A     -0.667143    24A     -0.660509
      25A     -0.651119    26A     -0.622157    27A     -0.588380
      28A     -0.585518    29A     -0.566954    30A     -0.560569
      31A     -0.541867    32A     -0.534263    33A     -0.482021
      34A     -0.465250    35A     -0.442092    36A     -0.380437
      37A     -0.351247

  @DF-RHF Final Energy:  -490.63632998700001

   => Energetics <=

    Nuclear Repulsion Energy =            528.2471113203905588
    One-Electron Energy =               -1716.5634618436245091
    Two-Electron Energy =                 697.6800205362339966
    Total Energy =                       -490.6363299869999537
  Basis Set: (AUG-CC-PVTZ AUX)
    Blend: AUG-CC-PVTZ-RI
    Molecular point group: c1

    Geometry (in Angstrom), charge = 0, multiplicity = 1:

       Center              X                  Y                   Z               Mass
    ------------   -----------------  -----------------  -----------------  -----------------
         O            1.601301147058    -0.942192338255     0.388463720612    15.994914619570
         O           -0.881635852942    -1.806480338255    -0.185700279388    15.994914619570
         N           -1.764070852942     0.305016661745     0.010497720612    14.003074004430
         N            1.165806147058     1.098684661745    -0.433749279388    14.003074004430
         C           -0.732524852942    -0.584377338255    -0.059445279388    12.000000000000
         C           -1.680973852942     1.710714661745     0.379747720612    12.000000000000
         C           -3.115460852942    -0.221226338255    -0.114066279388    12.000000000000
         C            0.660551147058    -0.045507338255    -0.022624279388    12.000000000000
         C            2.789882147058    -0.292661338255     0.229950720612    12.000000000000
         C            2.530185147058     0.949577661745    -0.271831279388    12.000000000000
         H           -2.119163852942     2.326640661745    -0.412491279388     1.007825032230
         H           -0.647867852942     2.012391661745     0.518175720612     1.007825032230
         H           -2.247350852942     1.876089661745     1.303725720612     1.007825032230
         H           -3.629590052942    -0.220644938255     0.876673820612     1.007825032230
         H           -3.060743852942    -1.240684338255    -0.490351279388     1.007825032230
         H           -3.683105852942     0.407509661745    -0.806648279388     1.007825032230
         H            3.677133147058    -0.835214338255     0.516935720612     1.007825032230
         H            3.223753147058     1.736880661745    -0.530788279388     1.007825032230

  Basis Set: AUG-CC-PVTZ
    Blend: AUG-CC-PVTZ
  Basis Set: (AUG-CC-PVTZ AUX)
    Blend: AUG-CC-PVTZ-JKFIT
	 Reference Energy          =    -490.6363299870000105 [Eh]
	 Singles Energy            =      -0.0000000000000000 [Eh]
	 Same-Spin Energy          =      -0.5065851169507243 [Eh]
	 Opposite-Spin Energy      =      -1.5502238981593524 [Eh]
	 Correlation Energy        =      -2.0568090151100766 [Eh]
	 Total Energy              =    -492.6931390021101151 [Eh]

	 ================> DF-SCS-MP2 Energies <==================
	-----------------------------------------------------------
	 SCS Same-Spin Scale       =       0.3333333333333333 [-]
	 SCS Opposite-Spin Scale   =       1.2000000000000000 [-]
	 SCS Same-Spin Energy      =      -0.1688617056502414 [Eh]
	 SCS Opposite-Spin Energy  =      -1.8602686777912227 [Eh]
	 SCS Correlation Energy    =      -2.0291303834414642 [Eh]
	 SCS Total Energy          =    -492.6654603704414512 [Eh]
	-----------------------------------------------------------

  Dipole Moment: [D]
     X:     0.3883      Y:     2.7741      Z:     0.9459     Total:     2.9566

*** Psi4 exiting successfully. Buy a developer a beer!
