                               Psi4 1.4a3.dev225

  ==> Input File <==

--------------------------------------------------------------------------
#psi4
#
memory 32 gb

molecule  {
0 1
  O        1.6580350    -0.9827140     0.3821500
  O       -0.8249020    -1.8470020    -0.1920140
  N       -1.7073370     0.2644950     0.0041840
  N        1.2225400     1.0581630    -0.4400630
  C       -0.6637428    -0.5261530    -0.0555576
  C       -1.6242400     1.6701930     0.3734340
  C       -3.0587270    -0.2617480    -0.1203800
  C        0.7172850    -0.0860290    -0.0289380
  C        2.8466160    -0.3331830     0.2236370
  C        2.5869190     0.9090560    -0.2781450
  H       -2.0624300     2.2861190    -0.4188050
  H       -0.5911340     1.9718700     0.5118620
  H       -2.1906170     1.8355680     1.2974120
  H       -3.5636440    -0.2611770     0.8526080
  H       -3.0040100    -1.2812060    -0.4966650
  H       -3.6263720     0.3669880    -0.8129620
  H        3.7338670    -0.8757360     0.5106220
  H        3.2804870     1.6963590    -0.5371020
units angstrom
no_reorient  #important for SAPT in psi4, default
symmetry c1  #important for SAPT in psi4, default
}

set PROPERTIES_ORIGIN ["COM"]
properties('MP2/aug-cc-pvtz', properties = ['dipole'])
--------------------------------------------------------------------------

    Molecular point group: c1
  Charge       = 0
  Multiplicity = 1
  Basis Set: AUG-CC-PVTZ
    Blend: AUG-CC-PVTZ
  Basis Set: (AUG-CC-PVTZ AUX)
    Blend: AUG-CC-PVTZ-JKFIT

    Orbital Energies [Eh]
    ---------------------

    Doubly Occupied:

       1A    -20.656138     2A    -20.506050     3A    -15.617187
       4A    -15.594923     5A    -11.370532     6A    -11.358603
       7A    -11.315687     8A    -11.278725     9A    -11.271997
      10A    -11.266162    11A     -1.499905    12A     -1.345060
      13A     -1.254141    14A     -1.242595    15A     -1.063943
      16A     -0.985453    17A     -0.973905    18A     -0.874467
      19A     -0.851052    20A     -0.784579    21A     -0.733402
      22A     -0.683454    23A     -0.671991    24A     -0.663236
      25A     -0.651203    26A     -0.626826    27A     -0.589034
      28A     -0.577146    29A     -0.568465    30A     -0.562253
      31A     -0.535270    32A     -0.517008    33A     -0.483521
      34A     -0.465880    35A     -0.423688    36A     -0.376996
      37A     -0.351816

  @DF-RHF Final Energy:  -490.61569331776559

   => Energetics <=

    Nuclear Repulsion Energy =            528.5560868783943533
    One-Electron Energy =               -1717.1589702138403482
    Two-Electron Energy =                 697.9871900176804047
    Total Energy =                       -490.6156933177655901
  Basis Set: (AUG-CC-PVTZ AUX)
    Blend: AUG-CC-PVTZ-RI
    Molecular point group: c1

    Geometry (in Angstrom), charge = 0, multiplicity = 1:

       Center              X                  Y                   Z               Mass
    ------------   -----------------  -----------------  -----------------  -----------------
         O            1.600202587523    -0.950652666353     0.387717420091    15.994914619570
         O           -0.882734412477    -1.814940666353    -0.186446579909    15.994914619570
         N           -1.765169412477     0.296556333647     0.009751420091    14.003074004430
         N            1.164707587523     1.090224333647    -0.434495579909    14.003074004430
         C           -0.721575212477    -0.494091666353    -0.049990179909    12.000000000000
         C           -1.682072412477     1.702254333647     0.379001420091    12.000000000000
         C           -3.116559412477    -0.229686666353    -0.114812579909    12.000000000000
         C            0.659452587523    -0.053967666353    -0.023370579909    12.000000000000
         C            2.788783587523    -0.301121666353     0.229204420091    12.000000000000
         C            2.529086587523     0.941117333647    -0.272577579909    12.000000000000
         H           -2.120262412477     2.318180333647    -0.413237579909     1.007825032230
         H           -0.648966412477     2.003931333647     0.517429420091     1.007825032230
         H           -2.248449412477     1.867629333647     1.302979420091     1.007825032230
         H           -3.621476412477    -0.229115666353     0.858175420091     1.007825032230
         H           -3.061842412477    -1.249144666353    -0.491097579909     1.007825032230
         H           -3.684204412477     0.399049333647    -0.807394579909     1.007825032230
         H            3.676034587523    -0.843674666353     0.516189420091     1.007825032230
         H            3.222654587523     1.728420333647    -0.531534579909     1.007825032230

  Basis Set: AUG-CC-PVTZ
    Blend: AUG-CC-PVTZ
  Basis Set: (AUG-CC-PVTZ AUX)
    Blend: AUG-CC-PVTZ-JKFIT
	 Reference Energy          =    -490.6156933177655901 [Eh]
	 Singles Energy            =      -0.0000000000000000 [Eh]
	 Same-Spin Energy          =      -0.5089775183725875 [Eh]
	 Opposite-Spin Energy      =      -1.5547649191936650 [Eh]
	 Correlation Energy        =      -2.0637424375662525 [Eh]
	 Total Energy              =    -492.6794357553318378 [Eh]

	 ================> DF-SCS-MP2 Energies <==================
	-----------------------------------------------------------
	 SCS Same-Spin Scale       =       0.3333333333333333 [-]
	 SCS Opposite-Spin Scale   =       1.2000000000000000 [-]
	 SCS Same-Spin Energy      =      -0.1696591727908625 [Eh]
	 SCS Opposite-Spin Energy  =      -1.8657179030323978 [Eh]
	 SCS Correlation Energy    =      -2.0353770758232601 [Eh]
	 SCS Total Energy          =    -492.6510703935888387 [Eh]
	-----------------------------------------------------------

  Dipole Moment: [D]
     X:     0.2069      Y:     3.4022      Z:     1.0371     Total:     3.5628

*** Psi4 exiting successfully. Buy a developer a beer!
