                               Psi4 1.4a3.dev225

  ==> Input File <==

--------------------------------------------------------------------------
#psi4
#
memory 32 gb

molecule  {
0 1
  O        1.6580350    -0.9827140     0.3821500
  O       -0.8249020    -1.8470020    -0.1920140
  N       -1.7073370     0.2644950     0.0041840
  N        1.2225400     1.0581630    -0.4400630
  C       -0.6757910    -0.6248990    -0.0657590
  C       -1.6242400     1.6701930     0.3734340
  C       -3.0587270    -0.2617480    -0.1203800
  C        0.7172850    -0.0860290    -0.0289380
  C        2.8030375    -0.3569976     0.2294488
  C        2.5869190     0.9090560    -0.2781450
  H       -2.0624300     2.2861190    -0.4188050
  H       -0.5911340     1.9718700     0.5118620
  H       -2.1906170     1.8355680     1.2974120
  H       -3.5636440    -0.2611770     0.8526080
  H       -3.0040100    -1.2812060    -0.4966650
  H       -3.6263720     0.3669880    -0.8129620
  H        3.7338670    -0.8757360     0.5106220
  H        3.2804870     1.6963590    -0.5371020
units angstrom
no_reorient  #important for SAPT in psi4, default
symmetry c1  #important for SAPT in psi4, default
}

set PROPERTIES_ORIGIN ["COM"]
properties('MP2/aug-cc-pvtz', properties = ['dipole'])
--------------------------------------------------------------------------

    Molecular point group: c1
  Charge       = 0
  Multiplicity = 1
  Basis Set: AUG-CC-PVTZ
    Blend: AUG-CC-PVTZ
  Basis Set: (AUG-CC-PVTZ AUX)
    Blend: AUG-CC-PVTZ-JKFIT

    Orbital Energies [Eh]
    ---------------------

    Doubly Occupied:

       1A    -20.661141     2A    -20.526691     3A    -15.601016
       4A    -15.593941     5A    -11.373345     6A    -11.353215
       7A    -11.315689     8A    -11.275214     9A    -11.265994
      10A    -11.258868    11A     -1.519408    12A     -1.382152
      13A     -1.260682    14A     -1.244829    15A     -1.056910
      16A     -0.976634    17A     -0.957168    18A     -0.870568
      19A     -0.842929    20A     -0.786972    21A     -0.727461
      22A     -0.690113    23A     -0.672072    24A     -0.659665
      25A     -0.654041    26A     -0.623693    27A     -0.586230
      28A     -0.584217    29A     -0.566733    30A     -0.561595
      31A     -0.541903    32A     -0.535179    33A     -0.482010
      34A     -0.467285    35A     -0.441313    36A     -0.380029
      37A     -0.345343

  @DF-RHF Final Energy:  -490.63494057019648

   => Energetics <=

    Nuclear Repulsion Energy =            529.2858376055910412
    One-Electron Energy =               -1718.5570631376760957
    Two-Electron Energy =                 698.6362849618885775
    Total Energy =                       -490.6349405701964770
  Basis Set: (AUG-CC-PVTZ AUX)
    Blend: AUG-CC-PVTZ-RI
    Molecular point group: c1

    Geometry (in Angstrom), charge = 0, multiplicity = 1:

       Center              X                  Y                   Z               Mass
    ------------   -----------------  -----------------  -----------------  -----------------
         O            1.604968596231    -0.940151865716     0.388093514158    15.994914619570
         O           -0.877968403769    -1.804439865716    -0.186070485842    15.994914619570
         N           -1.760403403769     0.307057134284     0.010127514158    14.003074004430
         N            1.169473596231     1.100725134284    -0.434119485842    14.003074004430
         C           -0.728857403769    -0.582336865716    -0.059815485842    12.000000000000
         C           -1.677306403769     1.712755134284     0.379377514158    12.000000000000
         C           -3.111793403769    -0.219185865716    -0.114436485842    12.000000000000
         C            0.664218596231    -0.043466865716    -0.022994485842    12.000000000000
         C            2.749971096231    -0.314435465716     0.235392314158    12.000000000000
         C            2.533852596231     0.951618134284    -0.272201485842    12.000000000000
         H           -2.115496403769     2.328681134284    -0.412861485842     1.007825032230
         H           -0.644200403769     2.014432134284     0.517805514158     1.007825032230
         H           -2.243683403769     1.878130134284     1.303355514158     1.007825032230
         H           -3.616710403769    -0.218614865716     0.858551514158     1.007825032230
         H           -3.057076403769    -1.238643865716    -0.490721485842     1.007825032230
         H           -3.679438403769     0.409550134284    -0.807018485842     1.007825032230
         H            3.680800596231    -0.833173865716     0.516565514158     1.007825032230
         H            3.227420596231     1.738921134284    -0.531158485842     1.007825032230

  Basis Set: AUG-CC-PVTZ
    Blend: AUG-CC-PVTZ
  Basis Set: (AUG-CC-PVTZ AUX)
    Blend: AUG-CC-PVTZ-JKFIT
	 Reference Energy          =    -490.6349405701964770 [Eh]
	 Singles Energy            =      -0.0000000000000000 [Eh]
	 Same-Spin Energy          =      -0.5069373416055523 [Eh]
	 Opposite-Spin Energy      =      -1.5495270212771768 [Eh]
	 Correlation Energy        =      -2.0564643628827293 [Eh]
	 Total Energy              =    -492.6914049330791840 [Eh]

	 ================> DF-SCS-MP2 Energies <==================
	-----------------------------------------------------------
	 SCS Same-Spin Scale       =       0.3333333333333333 [-]
	 SCS Opposite-Spin Scale   =       1.2000000000000000 [-]
	 SCS Same-Spin Energy      =      -0.1689791138685174 [Eh]
	 SCS Opposite-Spin Energy  =      -1.8594324255326120 [Eh]
	 SCS Correlation Energy    =      -2.0284115394011293 [Eh]
	 SCS Total Energy          =    -492.6633521095976107 [Eh]
	-----------------------------------------------------------

  Dipole Moment: [D]
     X:     0.3624      Y:     2.7275      Z:     0.9723     Total:     2.9182

*** Psi4 exiting successfully. Buy a developer a beer!
