                               Psi4 1.4a3.dev225

  ==> Input File <==

--------------------------------------------------------------------------
#psi4
#
memory 32 gb

molecule  {
0 1
  O        1.6580350    -0.9827140     0.3821500
  O       -0.8249020    -1.8470020    -0.1920140
  N       -1.7073370     0.2644950     0.0041840
  N        1.2225400     1.0581630    -0.4400630
  C       -0.6757910    -0.6248990    -0.0657590
  C       -1.6242400     1.6701930     0.3734340
  C       -3.0587270    -0.2617480    -0.1203800
  C        0.7172850    -0.0860290    -0.0289380
  C        2.8466160    -0.3331830     0.2236370
  C        2.5869190     0.9090560    -0.2781450
  H       -2.0624300     2.2861190    -0.4188050
  H       -0.5911340     1.9718700     0.5118620
  H       -2.1906170     1.8355680     1.2974120
  H       -3.5636440    -0.2611770     0.8526080
  H       -3.0040100    -1.2812060    -0.4966650
  H       -3.6004324     0.3382567    -0.7813132
  H        3.7338670    -0.8757360     0.5106220
  H        3.2804870     1.6963590    -0.5371020
units angstrom
no_reorient  #important for SAPT in psi4, default
symmetry c1  #important for SAPT in psi4, default
}

set PROPERTIES_ORIGIN ["COM"]
properties('MP2/aug-cc-pvtz', properties = ['dipole'])
--------------------------------------------------------------------------

    Molecular point group: c1
  Charge       = 0
  Multiplicity = 1
  Basis Set: AUG-CC-PVTZ
    Blend: AUG-CC-PVTZ
  Basis Set: (AUG-CC-PVTZ AUX)
    Blend: AUG-CC-PVTZ-JKFIT

    Orbital Energies [Eh]
    ---------------------

    Doubly Occupied:

       1A    -20.653483     2A    -20.527437     3A    -15.601347
       4A    -15.591650     5A    -11.373773     6A    -11.356153
       7A    -11.312276     8A    -11.277006     9A    -11.266446
      10A    -11.253256    11A     -1.498333    12A     -1.382096
      13A     -1.259813    14A     -1.242665    15A     -1.057768
      16A     -0.979725    17A     -0.960311    18A     -0.866668
      19A     -0.844485    20A     -0.781224    21A     -0.727044
      22A     -0.682547    23A     -0.667281    24A     -0.662054
      25A     -0.652146    26A     -0.622354    27A     -0.588502
      28A     -0.585680    29A     -0.570670    30A     -0.564196
      31A     -0.542896    32A     -0.534789    33A     -0.481769
      34A     -0.465048    35A     -0.441593    36A     -0.380552
      37A     -0.351050

  @DF-RHF Final Energy:  -490.63590438526711

   => Energetics <=

    Nuclear Repulsion Energy =            528.5810321997365691
    One-Electron Energy =               -1717.2217102894587697
    Two-Electron Energy =                 698.0047737044551468
    Total Energy =                       -490.6359043852671675
  Basis Set: (AUG-CC-PVTZ AUX)
    Blend: AUG-CC-PVTZ-RI
    Molecular point group: c1

    Geometry (in Angstrom), charge = 0, multiplicity = 1:

       Center              X                  Y                   Z               Mass
    ------------   -----------------  -----------------  -----------------  -----------------
         O            1.601048203864    -0.941985520471     0.388363723579    15.994914619570
         O           -0.881888796136    -1.806273520471    -0.185800276421    15.994914619570
         N           -1.764323796136     0.305223479529     0.010397723579    14.003074004430
         N            1.165553203864     1.098891479529    -0.433849276421    14.003074004430
         C           -0.732777796136    -0.584170520471    -0.059545276421    12.000000000000
         C           -1.681226796136     1.710921479529     0.379647723579    12.000000000000
         C           -3.115713796136    -0.221019520471    -0.114166276421    12.000000000000
         C            0.660298203864    -0.045300520471    -0.022724276421    12.000000000000
         C            2.789629203864    -0.292454520471     0.229850723579    12.000000000000
         C            2.529932203864     0.949784479529    -0.271931276421    12.000000000000
         H           -2.119416796136     2.326847479529    -0.412591276421     1.007825032230
         H           -0.648120796136     2.012598479529     0.518075723579     1.007825032230
         H           -2.247603796136     1.876296479529     1.303625723579     1.007825032230
         H           -3.620630796136    -0.220448520471     0.858821723579     1.007825032230
         H           -3.060996796136    -1.240477520471    -0.490451276421     1.007825032230
         H           -3.657419196136     0.378985179529    -0.775099476421     1.007825032230
         H            3.676880203864    -0.835007520471     0.516835723579     1.007825032230
         H            3.223500203864     1.737087479529    -0.530888276421     1.007825032230

  Basis Set: AUG-CC-PVTZ
    Blend: AUG-CC-PVTZ
  Basis Set: (AUG-CC-PVTZ AUX)
    Blend: AUG-CC-PVTZ-JKFIT
	 Reference Energy          =    -490.6359043852671107 [Eh]
	 Singles Energy            =      -0.0000000000000000 [Eh]
	 Same-Spin Energy          =      -0.5065673699811786 [Eh]
	 Opposite-Spin Energy      =      -1.5498105095700780 [Eh]
	 Correlation Energy        =      -2.0563778795512566 [Eh]
	 Total Energy              =    -492.6922822648183455 [Eh]

	 ================> DF-SCS-MP2 Energies <==================
	-----------------------------------------------------------
	 SCS Same-Spin Scale       =       0.3333333333333333 [-]
	 SCS Opposite-Spin Scale   =       1.2000000000000000 [-]
	 SCS Same-Spin Energy      =      -0.1688557899937262 [Eh]
	 SCS Opposite-Spin Energy  =      -1.8597726114840936 [Eh]
	 SCS Correlation Energy    =      -2.0286284014778198 [Eh]
	 SCS Total Energy          =    -492.6645327867449282 [Eh]
	-----------------------------------------------------------

  Dipole Moment: [D]
     X:     0.3457      Y:     2.7858      Z:     0.9406     Total:     2.9605

*** Psi4 exiting successfully. Buy a developer a beer!
