                               Psi4 1.4a3.dev225

  ==> Input File <==

--------------------------------------------------------------------------
#psi4
#
memory 32 gb

molecule  {
0 1
  O        1.6580350    -0.9827140     0.3821500
  O       -0.8249020    -1.8470020    -0.1920140
  N       -1.7073370     0.2644950     0.0041840
  N        1.2225400     1.0581630    -0.4400630
  C       -0.6757910    -0.6248990    -0.0657590
  C       -1.6242400     1.6701930     0.3734340
  C       -3.0587270    -0.2617480    -0.1203800
  C        0.7364726    -0.0425770    -0.0445509
  C        2.8466160    -0.3331830     0.2236370
  C        2.5869190     0.9090560    -0.2781450
  H       -2.0624300     2.2861190    -0.4188050
  H       -0.5911340     1.9718700     0.5118620
  H       -2.1906170     1.8355680     1.2974120
  H       -3.5636440    -0.2611770     0.8526080
  H       -3.0040100    -1.2812060    -0.4966650
  H       -3.6263720     0.3669880    -0.8129620
  H        3.7338670    -0.8757360     0.5106220
  H        3.2804870     1.6963590    -0.5371020
units angstrom
no_reorient  #important for SAPT in psi4, default
symmetry c1  #important for SAPT in psi4, default
}

set PROPERTIES_ORIGIN ["COM"]
properties('MP2/aug-cc-pvtz', properties = ['dipole'])
--------------------------------------------------------------------------

    Molecular point group: c1
  Charge       = 0
  Multiplicity = 1
  Basis Set: AUG-CC-PVTZ
    Blend: AUG-CC-PVTZ
  Basis Set: (AUG-CC-PVTZ AUX)
    Blend: AUG-CC-PVTZ-JKFIT

    Orbital Energies [Eh]
    ---------------------

    Doubly Occupied:

       1A    -20.647698     2A    -20.528342     3A    -15.601625
       4A    -15.589180     5A    -11.375674     6A    -11.353399
       7A    -11.312309     8A    -11.276235     9A    -11.267224
      10A    -11.259170    11A     -1.492278    12A     -1.381002
      13A     -1.269908    14A     -1.250414    15A     -1.053731
      16A     -0.977615    17A     -0.957798    18A     -0.861848
      19A     -0.843981    20A     -0.778460    21A     -0.727140
      22A     -0.679961    23A     -0.664490    24A     -0.659134
      25A     -0.651441    26A     -0.624137    27A     -0.586299
      28A     -0.583746    29A     -0.567530    30A     -0.562319
      31A     -0.541858    32A     -0.534283    33A     -0.487781
      34A     -0.473460    35A     -0.438950    36A     -0.380493
      37A     -0.353936

  @DF-RHF Final Energy:  -490.63648195047375

   => Energetics <=

    Nuclear Repulsion Energy =            528.4156617454619891
    One-Electron Energy =               -1716.9145890765075819
    Two-Electron Energy =                 697.8624453805718986
    Total Energy =                       -490.6364819504738080
  Basis Set: (AUG-CC-PVTZ AUX)
    Blend: AUG-CC-PVTZ-RI
    Molecular point group: c1

    Geometry (in Angstrom), charge = 0, multiplicity = 1:

       Center              X                  Y                   Z               Mass
    ------------   -----------------  -----------------  -----------------  -----------------
         O            1.599590894890    -0.945915162861     0.389929148966    15.994914619570
         O           -0.883346105110    -1.810203162861    -0.184234851034    15.994914619570
         N           -1.765781105110     0.301293837139     0.011963148966    14.003074004430
         N            1.164095894890     1.094961837139    -0.432283851034    14.003074004430
         C           -0.734235105110    -0.588100162861    -0.057979851034    12.000000000000
         C           -1.682684105110     1.706991837139     0.381213148966    12.000000000000
         C           -3.117171105110    -0.224949162861    -0.112600851034    12.000000000000
         C            0.678028494890    -0.005778162861    -0.036771751034    12.000000000000
         C            2.788171894890    -0.296384162861     0.231416148966    12.000000000000
         C            2.528474894890     0.945854837139    -0.270365851034    12.000000000000
         H           -2.120874105110     2.322917837139    -0.411025851034     1.007825032230
         H           -0.649578105110     2.008668837139     0.519641148966     1.007825032230
         H           -2.249061105110     1.872366837139     1.305191148966     1.007825032230
         H           -3.622088105110    -0.224378162861     0.860387148966     1.007825032230
         H           -3.062454105110    -1.244407162861    -0.488885851034     1.007825032230
         H           -3.684816105110     0.403786837139    -0.805182851034     1.007825032230
         H            3.675422894890    -0.838937162861     0.518401148966     1.007825032230
         H            3.222042894890     1.733157837139    -0.529322851034     1.007825032230

  Basis Set: AUG-CC-PVTZ
    Blend: AUG-CC-PVTZ
  Basis Set: (AUG-CC-PVTZ AUX)
    Blend: AUG-CC-PVTZ-JKFIT
	 Reference Energy          =    -490.6364819504737511 [Eh]
	 Singles Energy            =      -0.0000000000000000 [Eh]
	 Same-Spin Energy          =      -0.5053743281357801 [Eh]
	 Opposite-Spin Energy      =      -1.5485396689938642 [Eh]
	 Correlation Energy        =      -2.0539139971296443 [Eh]
	 Total Energy              =    -492.6903959476034061 [Eh]

	 ================> DF-SCS-MP2 Energies <==================
	-----------------------------------------------------------
	 SCS Same-Spin Scale       =       0.3333333333333333 [-]
	 SCS Opposite-Spin Scale   =       1.2000000000000000 [-]
	 SCS Same-Spin Energy      =      -0.1684581093785933 [Eh]
	 SCS Opposite-Spin Energy  =      -1.8582476027926369 [Eh]
	 SCS Correlation Energy    =      -2.0267057121712302 [Eh]
	 SCS Total Energy          =    -492.6631876626449866 [Eh]
	-----------------------------------------------------------

  Dipole Moment: [D]
     X:     0.2709      Y:     2.8555      Z:     0.9060     Total:     3.0080

*** Psi4 exiting successfully. Buy a developer a beer!
