                               Psi4 1.4a3.dev225

  ==> Input File <==

--------------------------------------------------------------------------
#psi4
#
memory 32 gb

molecule  {
0 1
  O        1.6580350    -0.9827140     0.3821500
  O       -0.8249020    -1.8470020    -0.1920140
  N       -1.7073370     0.2644950     0.0041840
  N        1.2225400     1.0581630    -0.4400630
  C       -0.6757910    -0.6248990    -0.0657590
  C       -1.6299482     1.5736319     0.3480692
  C       -3.0587270    -0.2617480    -0.1203800
  C        0.7172850    -0.0860290    -0.0289380
  C        2.8466160    -0.3331830     0.2236370
  C        2.5869190     0.9090560    -0.2781450
  H       -2.0624300     2.2861190    -0.4188050
  H       -0.5911340     1.9718700     0.5118620
  H       -2.1906170     1.8355680     1.2974120
  H       -3.5636440    -0.2611770     0.8526080
  H       -3.0040100    -1.2812060    -0.4966650
  H       -3.6263720     0.3669880    -0.8129620
  H        3.7338670    -0.8757360     0.5106220
  H        3.2804870     1.6963590    -0.5371020
units angstrom
no_reorient  #important for SAPT in psi4, default
symmetry c1  #important for SAPT in psi4, default
}

set PROPERTIES_ORIGIN ["COM"]
properties('MP2/aug-cc-pvtz', properties = ['dipole'])
--------------------------------------------------------------------------

    Molecular point group: c1
  Charge       = 0
  Multiplicity = 1
  Basis Set: AUG-CC-PVTZ
    Blend: AUG-CC-PVTZ
  Basis Set: (AUG-CC-PVTZ AUX)
    Blend: AUG-CC-PVTZ-JKFIT

    Orbital Energies [Eh]
    ---------------------

    Doubly Occupied:

       1A    -20.654963     2A    -20.532580     3A    -15.604127
       4A    -15.592924     5A    -11.378464     6A    -11.357722
       7A    -11.313595     8A    -11.277951     9A    -11.266225
      10A    -11.261851    11A     -1.499785    12A     -1.388702
      13A     -1.280695    14A     -1.247411    15A     -1.059789
      16A     -0.980915    17A     -0.960876    18A     -0.867269
      19A     -0.845436    20A     -0.783304    21A     -0.738515
      22A     -0.684869    23A     -0.673114    24A     -0.667222
      25A     -0.656537    26A     -0.624953    27A     -0.593176
      28A     -0.587573    29A     -0.562151    30A     -0.551100
      31A     -0.539686    32A     -0.532013    33A     -0.481700
      34A     -0.464553    35A     -0.443870    36A     -0.378296
      37A     -0.352043

  @DF-RHF Final Energy:  -490.62575781277178

   => Energetics <=

    Nuclear Repulsion Energy =            530.2891985171619353
    One-Electron Energy =               -1720.4579995591302577
    Two-Electron Energy =                 699.5430432291966554
    Total Energy =                       -490.6257578127717807
  Basis Set: (AUG-CC-PVTZ AUX)
    Blend: AUG-CC-PVTZ-RI
    Molecular point group: c1

    Geometry (in Angstrom), charge = 0, multiplicity = 1:

       Center              X                  Y                   Z               Mass
    ------------   -----------------  -----------------  -----------------  -----------------
         O            1.601723928120    -0.933919059303     0.390764676515    15.994914619570
         O           -0.881213071880    -1.798207059303    -0.183399323485    15.994914619570
         N           -1.763648071880     0.313289940697     0.012798676515    14.003074004430
         N            1.166228928120     1.106957940697    -0.431448323485    14.003074004430
         C           -0.732102071880    -0.576104059303    -0.057144323485    12.000000000000
         C           -1.686259271880     1.622426840697     0.356683876515    12.000000000000
         C           -3.115038071880    -0.212953059303    -0.111765323485    12.000000000000
         C            0.660973928120    -0.037234059303    -0.020323323485    12.000000000000
         C            2.790304928120    -0.284388059303     0.232251676515    12.000000000000
         C            2.530607928120     0.957850940697    -0.269530323485    12.000000000000
         H           -2.118741071880     2.334913940697    -0.410190323485     1.007825032230
         H           -0.647445071880     2.020664940697     0.520476676515     1.007825032230
         H           -2.246928071880     1.884362940697     1.306026676515     1.007825032230
         H           -3.619955071880    -0.212382059303     0.861222676515     1.007825032230
         H           -3.060321071880    -1.232411059303    -0.488050323485     1.007825032230
         H           -3.682683071880     0.415782940697    -0.804347323485     1.007825032230
         H            3.677555928120    -0.826941059303     0.519236676515     1.007825032230
         H            3.224175928120     1.745153940697    -0.528487323485     1.007825032230

  Basis Set: AUG-CC-PVTZ
    Blend: AUG-CC-PVTZ
  Basis Set: (AUG-CC-PVTZ AUX)
    Blend: AUG-CC-PVTZ-JKFIT
	 Reference Energy          =    -490.6257578127717807 [Eh]
	 Singles Energy            =      -0.0000000000000000 [Eh]
	 Same-Spin Energy          =      -0.5077147693522741 [Eh]
	 Opposite-Spin Energy      =      -1.5509291375893015 [Eh]
	 Correlation Energy        =      -2.0586439069415756 [Eh]
	 Total Energy              =    -492.6844017197133780 [Eh]

	 ================> DF-SCS-MP2 Energies <==================
	-----------------------------------------------------------
	 SCS Same-Spin Scale       =       0.3333333333333333 [-]
	 SCS Opposite-Spin Scale   =       1.2000000000000000 [-]
	 SCS Same-Spin Energy      =      -0.1692382564507580 [Eh]
	 SCS Opposite-Spin Energy  =      -1.8611149651071617 [Eh]
	 SCS Correlation Energy    =      -2.0303532215579199 [Eh]
	 SCS Total Energy          =    -492.6561110343296832 [Eh]
	-----------------------------------------------------------

  Dipole Moment: [D]
     X:     0.4918      Y:     2.4824      Z:     0.8771     Total:     2.6784

*** Psi4 exiting successfully. Buy a developer a beer!
