                               Psi4 1.4a3.dev225

  ==> Input File <==

--------------------------------------------------------------------------
#psi4
#
memory 32 gb

molecule  {
0 1
  O        1.6580350    -0.9827140     0.3821500
  O       -0.8249020    -1.8470020    -0.1920140
  N       -1.7073370     0.2644950     0.0041840
  N        1.2225400     1.0581630    -0.4400630
  C       -0.6757910    -0.6248990    -0.0657590
  C       -1.6242400     1.6701930     0.3734340
  C       -3.0587270    -0.2617480    -0.1203800
  C        0.7172850    -0.0860290    -0.0289380
  C        2.8466160    -0.3331830     0.2236370
  C        2.6806855     0.9257293    -0.2763553
  H       -2.0624300     2.2861190    -0.4188050
  H       -0.5911340     1.9718700     0.5118620
  H       -2.1906170     1.8355680     1.2974120
  H       -3.5636440    -0.2611770     0.8526080
  H       -3.0040100    -1.2812060    -0.4966650
  H       -3.6263720     0.3669880    -0.8129620
  H        3.7338670    -0.8757360     0.5106220
  H        3.2804870     1.6963590    -0.5371020
units angstrom
no_reorient  #important for SAPT in psi4, default
symmetry c1  #important for SAPT in psi4, default
}

set PROPERTIES_ORIGIN ["COM"]
properties('MP2/aug-cc-pvtz', properties = ['dipole'])
--------------------------------------------------------------------------

    Molecular point group: c1
  Charge       = 0
  Multiplicity = 1
  Basis Set: AUG-CC-PVTZ
    Blend: AUG-CC-PVTZ
  Basis Set: (AUG-CC-PVTZ AUX)
    Blend: AUG-CC-PVTZ-JKFIT

    Orbital Energies [Eh]
    ---------------------

    Doubly Occupied:

       1A    -20.652072     2A    -20.528667     3A    -15.602059
       4A    -15.593727     5A    -11.374869     6A    -11.356297
       7A    -11.318636     8A    -11.279037     9A    -11.265703
      10A    -11.259375    11A     -1.494941    12A     -1.383020
      13A     -1.256891    14A     -1.222279    15A     -1.059490
      16A     -0.977138    17A     -0.959800    18A     -0.872909
      19A     -0.839787    20A     -0.778117    21A     -0.726806
      22A     -0.680379    23A     -0.666598    24A     -0.660195
      25A     -0.651170    26A     -0.631743    27A     -0.593069
      28A     -0.581899    29A     -0.566707    30A     -0.561705
      31A     -0.541484    32A     -0.535464    33A     -0.473707
      34A     -0.451955    35A     -0.440377    36A     -0.380505
      37A     -0.359142

  @DF-RHF Final Energy:  -490.62629024725356

   => Energetics <=

    Nuclear Repulsion Energy =            526.3735508382750368
    One-Electron Energy =               -1712.8442452991366736
    Two-Electron Energy =                 695.8444042136079588
    Total Energy =                       -490.6262902472535643
  Basis Set: (AUG-CC-PVTZ AUX)
    Blend: AUG-CC-PVTZ-RI
    Molecular point group: c1

    Geometry (in Angstrom), charge = 0, multiplicity = 1:

       Center              X                  Y                   Z               Mass
    ------------   -----------------  -----------------  -----------------  -----------------
         O            1.593201091310    -0.943620805702     0.388438121399    15.994914619570
         O           -0.889735908690    -1.807908805702    -0.185725878601    15.994914619570
         N           -1.772170908690     0.303588194298     0.010472121399    14.003074004430
         N            1.157706091310     1.097256194298    -0.433774878601    14.003074004430
         C           -0.740624908690    -0.585805805702    -0.059470878601    12.000000000000
         C           -1.689073908690     1.709286194298     0.379722121399    12.000000000000
         C           -3.123560908690    -0.222654805702    -0.114091878601    12.000000000000
         C            0.652451091310    -0.046935805702    -0.022649878601    12.000000000000
         C            2.781782091310    -0.294089805702     0.229925121399    12.000000000000
         C            2.615851591310     0.964822494298    -0.270067178601    12.000000000000
         H           -2.127263908690     2.325212194298    -0.412516878601     1.007825032230
         H           -0.655967908690     2.010963194298     0.518150121399     1.007825032230
         H           -2.255450908690     1.874661194298     1.303700121399     1.007825032230
         H           -3.628477908690    -0.222083805702     0.858896121399     1.007825032230
         H           -3.068843908690    -1.242112805702    -0.490376878601     1.007825032230
         H           -3.691205908690     0.406081194298    -0.806673878601     1.007825032230
         H            3.669033091310    -0.836642805702     0.516910121399     1.007825032230
         H            3.215653091310     1.735452194298    -0.530813878601     1.007825032230

  Basis Set: AUG-CC-PVTZ
    Blend: AUG-CC-PVTZ
  Basis Set: (AUG-CC-PVTZ AUX)
    Blend: AUG-CC-PVTZ-JKFIT
	 Reference Energy          =    -490.6262902472535643 [Eh]
	 Singles Energy            =      -0.0000000000000000 [Eh]
	 Same-Spin Energy          =      -0.5056171515537211 [Eh]
	 Opposite-Spin Energy      =      -1.5510472898862326 [Eh]
	 Correlation Energy        =      -2.0566644414399535 [Eh]
	 Total Energy              =    -492.6829546886935418 [Eh]

	 ================> DF-SCS-MP2 Energies <==================
	-----------------------------------------------------------
	 SCS Same-Spin Scale       =       0.3333333333333333 [-]
	 SCS Opposite-Spin Scale   =       1.2000000000000000 [-]
	 SCS Same-Spin Energy      =      -0.1685390505179070 [Eh]
	 SCS Opposite-Spin Energy  =      -1.8612567478634792 [Eh]
	 SCS Correlation Energy    =      -2.0297957983813864 [Eh]
	 SCS Total Energy          =    -492.6560860456349360 [Eh]
	-----------------------------------------------------------

  Dipole Moment: [D]
     X:     0.3513      Y:     2.7904      Z:     0.9462     Total:     2.9674

*** Psi4 exiting successfully. Buy a developer a beer!
