                               Psi4 1.4a3.dev225

  ==> Input File <==

--------------------------------------------------------------------------
#psi4
#
memory 32 gb

molecule  {
0 1
  O        1.6580350    -0.9827140     0.3821500
  O       -0.8249020    -1.8470020    -0.1920140
  N       -1.7073370     0.2644950     0.0041840
  N        1.2225400     1.0581630    -0.4400630
  C       -0.6757910    -0.6248990    -0.0657590
  C       -1.6242400     1.6701930     0.3734340
  C       -3.0587270    -0.2617480    -0.1203800
  C        0.7249600    -0.0686482    -0.0351832
  C        2.8466160    -0.3331830     0.2236370
  C        2.5869190     0.9090560    -0.2781450
  H       -2.0624300     2.2861190    -0.4188050
  H       -0.5911340     1.9718700     0.5118620
  H       -2.1906170     1.8355680     1.2974120
  H       -3.5636440    -0.2611770     0.8526080
  H       -3.0040100    -1.2812060    -0.4966650
  H       -3.6263720     0.3669880    -0.8129620
  H        3.7338670    -0.8757360     0.5106220
  H        3.2804870     1.6963590    -0.5371020
units angstrom
no_reorient  #important for SAPT in psi4, default
symmetry c1  #important for SAPT in psi4, default
}

set PROPERTIES_ORIGIN ["COM"]
properties('MP2/aug-cc-pvtz', properties = ['dipole'])
--------------------------------------------------------------------------

    Molecular point group: c1
  Charge       = 0
  Multiplicity = 1
  Basis Set: AUG-CC-PVTZ
    Blend: AUG-CC-PVTZ
  Basis Set: (AUG-CC-PVTZ AUX)
    Blend: AUG-CC-PVTZ-JKFIT

    Orbital Energies [Eh]
    ---------------------

    Doubly Occupied:

       1A    -20.651318     2A    -20.528037     3A    -15.601831
       4A    -15.590846     5A    -11.374822     6A    -11.355227
       7A    -11.312366     8A    -11.276752     9A    -11.266768
      10A    -11.259310    11A     -1.495978    12A     -1.381871
      13A     -1.262713    14A     -1.246852    15A     -1.056103
      16A     -0.977442    17A     -0.958582    18A     -0.864211
      19A     -0.844045    20A     -0.779972    21A     -0.727233
      22A     -0.681357    23A     -0.666129    24A     -0.659984
      25A     -0.651738    26A     -0.622957    27A     -0.586859
      28A     -0.585635    29A     -0.567274    30A     -0.562168
      31A     -0.541740    32A     -0.534877    33A     -0.484294
      34A     -0.468329    35A     -0.440859    36A     -0.380519
      37A     -0.352363

  @DF-RHF Final Energy:  -490.63760445906490

   => Energetics <=

    Nuclear Repulsion Energy =            528.3644532831917786
    One-Electron Energy =               -1716.8053892149005151
    Two-Electron Energy =                 697.8033314726437766
    Total Energy =                       -490.6376044590649599
  Basis Set: (AUG-CC-PVTZ AUX)
    Blend: AUG-CC-PVTZ-RI
    Molecular point group: c1

    Geometry (in Angstrom), charge = 0, multiplicity = 1:

       Center              X                  Y                   Z               Mass
    ------------   -----------------  -----------------  -----------------  -----------------
         O            1.600577276463    -0.943681423196     0.389126539072    15.994914619570
         O           -0.882359723537    -1.807969423196    -0.185037460928    15.994914619570
         N           -1.764794723537     0.303527576804     0.011160539072    14.003074004430
         N            1.165082276463     1.097195576804    -0.433086460928    14.003074004430
         C           -0.733248723537    -0.585866423196    -0.058782460928    12.000000000000
         C           -1.681697723537     1.709225576804     0.380410539072    12.000000000000
         C           -3.116184723537    -0.222715423196    -0.113403460928    12.000000000000
         C            0.667502276463    -0.029615623196    -0.028206660928    12.000000000000
         C            2.789158276463    -0.294150423196     0.230613539072    12.000000000000
         C            2.529461276463     0.948088576804    -0.271168460928    12.000000000000
         H           -2.119887723537     2.325151576804    -0.411828460928     1.007825032230
         H           -0.648591723537     2.010902576804     0.518838539072     1.007825032230
         H           -2.248074723537     1.874600576804     1.304388539072     1.007825032230
         H           -3.621101723537    -0.222144423196     0.859584539072     1.007825032230
         H           -3.061467723537    -1.242173423196    -0.489688460928     1.007825032230
         H           -3.683829723537     0.406020576804    -0.805985460928     1.007825032230
         H            3.676409276463    -0.836703423196     0.517598539072     1.007825032230
         H            3.223029276463     1.735391576804    -0.530125460928     1.007825032230

  Basis Set: AUG-CC-PVTZ
    Blend: AUG-CC-PVTZ
  Basis Set: (AUG-CC-PVTZ AUX)
    Blend: AUG-CC-PVTZ-JKFIT
	 Reference Energy          =    -490.6376044590649030 [Eh]
	 Singles Energy            =      -0.0000000000000000 [Eh]
	 Same-Spin Energy          =      -0.5060684169364990 [Eh]
	 Opposite-Spin Energy      =      -1.5494212754167604 [Eh]
	 Correlation Energy        =      -2.0554896923532593 [Eh]
	 Total Energy              =    -492.6930941514181654 [Eh]

	 ================> DF-SCS-MP2 Energies <==================
	-----------------------------------------------------------
	 SCS Same-Spin Scale       =       0.3333333333333333 [-]
	 SCS Opposite-Spin Scale   =       1.2000000000000000 [-]
	 SCS Same-Spin Energy      =      -0.1686894723121663 [Eh]
	 SCS Opposite-Spin Energy  =      -1.8593055305001125 [Eh]
	 SCS Correlation Energy    =      -2.0279950028122786 [Eh]
	 SCS Total Energy          =    -492.6655994618772070 [Eh]
	-----------------------------------------------------------

  Dipole Moment: [D]
     X:     0.3322      Y:     2.8053      Z:     0.9364     Total:     2.9761

*** Psi4 exiting successfully. Buy a developer a beer!
