                               Psi4 1.4a3.dev225

  ==> Input File <==

--------------------------------------------------------------------------
#psi4
#
memory 32 gb

molecule  {
0 1
  O        1.6580350    -0.9827140     0.3821500
  O       -0.8249020    -1.8470020    -0.1920140
  N       -1.7073370     0.2644950     0.0041840
  N        1.2225400     1.0581630    -0.4400630
  C       -0.6757910    -0.6248990    -0.0657590
  C       -1.6242400     1.6701930     0.3734340
  C       -3.0587270    -0.2617480    -0.1203800
  C        0.7172850    -0.0860290    -0.0289380
  C        2.9337730    -0.2855538     0.2120135
  C        2.5869190     0.9090560    -0.2781450
  H       -2.0624300     2.2861190    -0.4188050
  H       -0.5911340     1.9718700     0.5118620
  H       -2.1906170     1.8355680     1.2974120
  H       -3.5636440    -0.2611770     0.8526080
  H       -3.0040100    -1.2812060    -0.4966650
  H       -3.6263720     0.3669880    -0.8129620
  H        3.7338670    -0.8757360     0.5106220
  H        3.2804870     1.6963590    -0.5371020
units angstrom
no_reorient  #important for SAPT in psi4, default
symmetry c1  #important for SAPT in psi4, default
}

set PROPERTIES_ORIGIN ["COM"]
properties('MP2/aug-cc-pvtz', properties = ['dipole'])
--------------------------------------------------------------------------

    Molecular point group: c1
  Charge       = 0
  Multiplicity = 1
  Basis Set: AUG-CC-PVTZ
    Blend: AUG-CC-PVTZ
  Basis Set: (AUG-CC-PVTZ AUX)
    Blend: AUG-CC-PVTZ-JKFIT

    Orbital Energies [Eh]
    ---------------------

    Doubly Occupied:

       1A    -20.638868     2A    -20.529437     3A    -15.603326
       4A    -15.588140     5A    -11.375325     6A    -11.361279
       7A    -11.309272     8A    -11.281682     9A    -11.267149
      10A    -11.260127    11A     -1.465256    12A     -1.382293
      13A     -1.259403    14A     -1.237936    15A     -1.060835
      16A     -0.978628    17A     -0.962805    18A     -0.863187
      19A     -0.843027    20A     -0.771502    21A     -0.727506
      22A     -0.673499    23A     -0.665073    24A     -0.661759
      25A     -0.643123    26A     -0.626482    27A     -0.587815
      28A     -0.578126    29A     -0.564496    30A     -0.562064
      31A     -0.540905    32A     -0.534558    33A     -0.480851
      34A     -0.461652    35A     -0.442563    36A     -0.381239
      37A     -0.361887

  @DF-RHF Final Energy:  -490.62633492016136

   => Energetics <=

    Nuclear Repulsion Energy =            526.5568219225596067
    One-Electron Energy =               -1713.3001660393213115
    Two-Electron Energy =                 696.1170091966005202
    Total Energy =                       -490.6263349201612982
  Basis Set: (AUG-CC-PVTZ AUX)
    Blend: AUG-CC-PVTZ-RI
    Molecular point group: c1

    Geometry (in Angstrom), charge = 0, multiplicity = 1:

       Center              X                  Y                   Z               Mass
    ------------   -----------------  -----------------  -----------------  -----------------
         O            1.593767382939    -0.946273058828     0.389587343410    15.994914619570
         O           -0.889169617061    -1.810561058828    -0.184576656590    15.994914619570
         N           -1.771604617061     0.300935941172     0.011621343410    14.003074004430
         N            1.158272382939     1.094603941172    -0.432625656590    14.003074004430
         C           -0.740058617061    -0.588458058828    -0.058321656590    12.000000000000
         C           -1.688507617061     1.706633941172     0.380871343410    12.000000000000
         C           -3.122994617061    -0.225307058828    -0.112942656590    12.000000000000
         C            0.653017382939    -0.049588058828    -0.021500656590    12.000000000000
         C            2.869505382939    -0.249112858828     0.219450843410    12.000000000000
         C            2.522651382939     0.945496941172    -0.270707656590    12.000000000000
         H           -2.126697617061     2.322559941172    -0.411367656590     1.007825032230
         H           -0.655401617061     2.008310941172     0.519299343410     1.007825032230
         H           -2.254884617061     1.872008941172     1.304849343410     1.007825032230
         H           -3.627911617061    -0.224736058828     0.860045343410     1.007825032230
         H           -3.068277617061    -1.244765058828    -0.489227656590     1.007825032230
         H           -3.690639617061     0.403428941172    -0.805524656590     1.007825032230
         H            3.669599382939    -0.839295058828     0.518059343410     1.007825032230
         H            3.216219382939     1.732799941172    -0.529664656590     1.007825032230

  Basis Set: AUG-CC-PVTZ
    Blend: AUG-CC-PVTZ
  Basis Set: (AUG-CC-PVTZ AUX)
    Blend: AUG-CC-PVTZ-JKFIT
	 Reference Energy          =    -490.6263349201613551 [Eh]
	 Singles Energy            =      -0.0000000000000000 [Eh]
	 Same-Spin Energy          =      -0.5061061955897730 [Eh]
	 Opposite-Spin Energy      =      -1.5515120422782718 [Eh]
	 Correlation Energy        =      -2.0576182378680450 [Eh]
	 Total Energy              =    -492.6839531580293965 [Eh]

	 ================> DF-SCS-MP2 Energies <==================
	-----------------------------------------------------------
	 SCS Same-Spin Scale       =       0.3333333333333333 [-]
	 SCS Opposite-Spin Scale   =       1.2000000000000000 [-]
	 SCS Same-Spin Energy      =      -0.1687020651965910 [Eh]
	 SCS Opposite-Spin Energy  =      -1.8618144507339260 [Eh]
	 SCS Correlation Energy    =      -2.0305165159305170 [Eh]
	 SCS Total Energy          =    -492.6568514360918698 [Eh]
	-----------------------------------------------------------

  Dipole Moment: [D]
     X:     0.4038      Y:     2.8535      Z:     0.9272     Total:     3.0274

*** Psi4 exiting successfully. Buy a developer a beer!
