                               Psi4 1.4a3.dev225

  ==> Input File <==

--------------------------------------------------------------------------
#psi4
#
memory 32 gb

molecule  {
0 1
  O        1.6580350    -0.9827140     0.3821500
  O       -0.8249020    -1.8470020    -0.1920140
  N       -1.7073370     0.2644950     0.0041840
  N        1.2225400     1.0581630    -0.4400630
  C       -0.6757910    -0.6248990    -0.0657590
  C       -1.6242400     1.6701930     0.3734340
  C       -3.0587270    -0.2617480    -0.1203800
  C        0.7172850    -0.0860290    -0.0289380
  C        2.8466160    -0.3331830     0.2236370
  C        2.5774041     0.9545695    -0.2965294
  H       -2.0624300     2.2861190    -0.4188050
  H       -0.5911340     1.9718700     0.5118620
  H       -2.1906170     1.8355680     1.2974120
  H       -3.5636440    -0.2611770     0.8526080
  H       -3.0040100    -1.2812060    -0.4966650
  H       -3.6263720     0.3669880    -0.8129620
  H        3.7338670    -0.8757360     0.5106220
  H        3.2804870     1.6963590    -0.5371020
units angstrom
no_reorient  #important for SAPT in psi4, default
symmetry c1  #important for SAPT in psi4, default
}

set PROPERTIES_ORIGIN ["COM"]
properties('MP2/aug-cc-pvtz', properties = ['dipole'])
--------------------------------------------------------------------------

    Molecular point group: c1
  Charge       = 0
  Multiplicity = 1
  Basis Set: AUG-CC-PVTZ
    Blend: AUG-CC-PVTZ
  Basis Set: (AUG-CC-PVTZ AUX)
    Blend: AUG-CC-PVTZ-JKFIT

    Orbital Energies [Eh]
    ---------------------

    Doubly Occupied:

       1A    -20.658080     2A    -20.526891     3A    -15.601175
       4A    -15.592154     5A    -11.373612     6A    -11.354712
       7A    -11.319769     8A    -11.281421     9A    -11.266013
      10A    -11.258902    11A     -1.498824    12A     -1.381713
      13A     -1.260639    14A     -1.244826    15A     -1.052445
      16A     -0.976546    17A     -0.956854    18A     -0.864831
      19A     -0.847587    20A     -0.781451    21A     -0.726725
      22A     -0.682565    23A     -0.669045    24A     -0.661237
      25A     -0.651621    26A     -0.634321    27A     -0.587830
      28A     -0.583282    29A     -0.566729    30A     -0.561604
      31A     -0.541180    32A     -0.534668    33A     -0.478186
      34A     -0.467735    35A     -0.441342    36A     -0.379982
      37A     -0.341987

  @DF-RHF Final Energy:  -490.63099343633763

   => Energetics <=

    Nuclear Repulsion Energy =            527.7929999055025974
    One-Electron Energy =               -1715.6310197612308457
    Two-Electron Energy =                 697.2070264193907860
    Total Energy =                       -490.6309934363375760
  Basis Set: (AUG-CC-PVTZ AUX)
    Blend: AUG-CC-PVTZ-RI
    Molecular point group: c1

    Geometry (in Angstrom), charge = 0, multiplicity = 1:

       Center              X                  Y                   Z               Mass
    ------------   -----------------  -----------------  -----------------  -----------------
         O            1.602050080226    -0.946091788959     0.390166606754    15.994914619570
         O           -0.880886919774    -1.810379788959    -0.183997393246    15.994914619570
         N           -1.763321919774     0.301117211041     0.012200606754    14.003074004430
         N            1.166555080226     1.094785211041    -0.432046393246    14.003074004430
         C           -0.731775919774    -0.588276788959    -0.057742393246    12.000000000000
         C           -1.680224919774     1.706815211041     0.381450606754    12.000000000000
         C           -3.114711919774    -0.225125788959    -0.112363393246    12.000000000000
         C            0.661300080226    -0.049406788959    -0.020921393246    12.000000000000
         C            2.790631080226    -0.296560788959     0.231653606754    12.000000000000
         C            2.521419180226     0.991191711041    -0.288512793246    12.000000000000
         H           -2.118414919774     2.322741211041    -0.410788393246     1.007825032230
         H           -0.647118919774     2.008492211041     0.519878606754     1.007825032230
         H           -2.246601919774     1.872190211041     1.305428606754     1.007825032230
         H           -3.619628919774    -0.224554788959     0.860624606754     1.007825032230
         H           -3.059994919774    -1.244583788959    -0.488648393246     1.007825032230
         H           -3.682356919774     0.403610211041    -0.804945393246     1.007825032230
         H            3.677882080226    -0.839113788959     0.518638606754     1.007825032230
         H            3.224502080226     1.732981211041    -0.529085393246     1.007825032230

  Basis Set: AUG-CC-PVTZ
    Blend: AUG-CC-PVTZ
  Basis Set: (AUG-CC-PVTZ AUX)
    Blend: AUG-CC-PVTZ-JKFIT
	 Reference Energy          =    -490.6309934363376328 [Eh]
	 Singles Energy            =      -0.0000000000000000 [Eh]
	 Same-Spin Energy          =      -0.5076982130423855 [Eh]
	 Opposite-Spin Energy      =      -1.5516964240330016 [Eh]
	 Correlation Energy        =      -2.0593946370753873 [Eh]
	 Total Energy              =    -492.6903880734130325 [Eh]

	 ================> DF-SCS-MP2 Energies <==================
	-----------------------------------------------------------
	 SCS Same-Spin Scale       =       0.3333333333333333 [-]
	 SCS Opposite-Spin Scale   =       1.2000000000000000 [-]
	 SCS Same-Spin Energy      =      -0.1692327376807952 [Eh]
	 SCS Opposite-Spin Energy  =      -1.8620357088396018 [Eh]
	 SCS Correlation Energy    =      -2.0312684465203970 [Eh]
	 SCS Total Energy          =    -492.6622618828580471 [Eh]
	-----------------------------------------------------------

  Dipole Moment: [D]
     X:     0.4248      Y:     2.8120      Z:     0.9415     Total:     2.9957

*** Psi4 exiting successfully. Buy a developer a beer!
