                               Psi4 1.4a3.dev225

  ==> Input File <==

--------------------------------------------------------------------------
#psi4
#
memory 32 gb

molecule  {
0 1
  O        1.5954366    -0.8648271     0.3315553
  O       -0.8249020    -1.8470020    -0.1920140
  N       -1.7073370     0.2644950     0.0041840
  N        1.2225400     1.0581630    -0.4400630
  C       -0.6757910    -0.6248990    -0.0657590
  C       -1.6242400     1.6701930     0.3734340
  C       -3.0587270    -0.2617480    -0.1203800
  C        0.7172850    -0.0860290    -0.0289380
  C        2.8466160    -0.3331830     0.2236370
  C        2.5869190     0.9090560    -0.2781450
  H       -2.0624300     2.2861190    -0.4188050
  H       -0.5911340     1.9718700     0.5118620
  H       -2.1906170     1.8355680     1.2974120
  H       -3.5636440    -0.2611770     0.8526080
  H       -3.0040100    -1.2812060    -0.4966650
  H       -3.6263720     0.3669880    -0.8129620
  H        3.7338670    -0.8757360     0.5106220
  H        3.2804870     1.6963590    -0.5371020
units angstrom
no_reorient  #important for SAPT in psi4, default
symmetry c1  #important for SAPT in psi4, default
}

set PROPERTIES_ORIGIN ["COM"]
properties('MP2/aug-cc-pvtz', properties = ['dipole'])
--------------------------------------------------------------------------

    Molecular point group: c1
  Charge       = 0
  Multiplicity = 1
  Basis Set: AUG-CC-PVTZ
    Blend: AUG-CC-PVTZ
  Basis Set: (AUG-CC-PVTZ AUX)
    Blend: AUG-CC-PVTZ-JKFIT

    Orbital Energies [Eh]
    ---------------------

    Doubly Occupied:

       1A    -20.654379     2A    -20.529066     3A    -15.601849
       4A    -15.570071     5A    -11.373191     6A    -11.345322
       7A    -11.308132     8A    -11.277318     9A    -11.264877
      10A    -11.259127    11A     -1.555890    12A     -1.383549
      13A     -1.257212    14A     -1.230979    15A     -1.079389
      16A     -0.977469    17A     -0.960262    18A     -0.875880
      19A     -0.844301    20A     -0.792383    21A     -0.730715
      22A     -0.708788    23A     -0.683863    24A     -0.661553
      25A     -0.655410    26A     -0.623967    27A     -0.593379
      28A     -0.576823    29A     -0.562282    30A     -0.560086
      31A     -0.539859    32A     -0.535067    33A     -0.468318
      34A     -0.453198    35A     -0.441692    36A     -0.380477
      37A     -0.355485

  @DF-RHF Final Energy:  -490.62683070861345

   => Energetics <=

    Nuclear Repulsion Energy =            532.8476597311571368
    One-Electron Energy =               -1725.6057684269476340
    Two-Electron Energy =                 702.1312779871770999
    Total Energy =                       -490.6268307086133973
  Basis Set: (AUG-CC-PVTZ AUX)
    Blend: AUG-CC-PVTZ-RI
    Molecular point group: c1

    Geometry (in Angstrom), charge = 0, multiplicity = 1:

       Center              X                  Y                   Z               Mass
    ------------   -----------------  -----------------  -----------------  -----------------
         O            1.545785296340    -0.837768236839     0.343774756142    15.994914619570
         O           -0.874553303660    -1.819943136839    -0.179794543858    15.994914619570
         N           -1.756988303660     0.291553863161     0.016403456142    14.003074004430
         N            1.172888696340     1.085221863161    -0.427843543858    14.003074004430
         C           -0.725442303660    -0.597840136839    -0.053539543858    12.000000000000
         C           -1.673891303660     1.697251863161     0.385653456142    12.000000000000
         C           -3.108378303660    -0.234689136839    -0.108160543858    12.000000000000
         C            0.667633696340    -0.058970136839    -0.016718543858    12.000000000000
         C            2.796964696340    -0.306124136839     0.235856456142    12.000000000000
         C            2.537267696340     0.936114863161    -0.265925543858    12.000000000000
         H           -2.112081303660     2.313177863161    -0.406585543858     1.007825032230
         H           -0.640785303660     1.998928863161     0.524081456142     1.007825032230
         H           -2.240268303660     1.862626863161     1.309631456142     1.007825032230
         H           -3.613295303660    -0.234118136839     0.864827456142     1.007825032230
         H           -3.053661303660    -1.254147136839    -0.484445543858     1.007825032230
         H           -3.676023303660     0.394046863161    -0.800742543858     1.007825032230
         H            3.684215696340    -0.848677136839     0.522841456142     1.007825032230
         H            3.230835696340     1.723417863161    -0.524882543858     1.007825032230

  Basis Set: AUG-CC-PVTZ
    Blend: AUG-CC-PVTZ
  Basis Set: (AUG-CC-PVTZ AUX)
    Blend: AUG-CC-PVTZ-JKFIT
	 Reference Energy          =    -490.6268307086134541 [Eh]
	 Singles Energy            =      -0.0000000000000000 [Eh]
	 Same-Spin Energy          =      -0.5051683292537481 [Eh]
	 Opposite-Spin Energy      =      -1.5445603334555200 [Eh]
	 Correlation Energy        =      -2.0497286627092679 [Eh]
	 Total Energy              =    -492.6765593713226963 [Eh]

	 ================> DF-SCS-MP2 Energies <==================
	-----------------------------------------------------------
	 SCS Same-Spin Scale       =       0.3333333333333333 [-]
	 SCS Opposite-Spin Scale   =       1.2000000000000000 [-]
	 SCS Same-Spin Energy      =      -0.1683894430845827 [Eh]
	 SCS Opposite-Spin Energy  =      -1.8534724001466238 [Eh]
	 SCS Correlation Energy    =      -2.0218618432312065 [Eh]
	 SCS Total Energy          =    -492.6486925518446469 [Eh]
	-----------------------------------------------------------

  Dipole Moment: [D]
     X:     0.5136      Y:     2.4166      Z:     1.1244     Total:     2.7144

*** Psi4 exiting successfully. Buy a developer a beer!
