                               Psi4 1.4a3.dev225

  ==> Input File <==

--------------------------------------------------------------------------
#psi4
#
memory 32 gb

molecule  {
0 1
  O        1.6580350    -0.9827140     0.3821500
  O       -0.8249020    -1.8470020    -0.1920140
  N       -1.7073370     0.2644950     0.0041840
  N        1.2225400     1.0581630    -0.4400630
  C       -0.6757910    -0.6248990    -0.0657590
  C       -1.6242400     1.6701930     0.3734340
  C       -3.0587270    -0.2617480    -0.1203800
  C        0.7172850    -0.0860290    -0.0289380
  C        2.6723019    -0.4284415     0.2468841
  C        2.5869190     0.9090560    -0.2781450
  H       -2.0624300     2.2861190    -0.4188050
  H       -0.5911340     1.9718700     0.5118620
  H       -2.1906170     1.8355680     1.2974120
  H       -3.5636440    -0.2611770     0.8526080
  H       -3.0040100    -1.2812060    -0.4966650
  H       -3.6263720     0.3669880    -0.8129620
  H        3.7338670    -0.8757360     0.5106220
  H        3.2804870     1.6963590    -0.5371020
units angstrom
no_reorient  #important for SAPT in psi4, default
symmetry c1  #important for SAPT in psi4, default
}

set PROPERTIES_ORIGIN ["COM"]
properties('MP2/aug-cc-pvtz', properties = ['dipole'])
--------------------------------------------------------------------------

    Molecular point group: c1
  Charge       = 0
  Multiplicity = 1
  Basis Set: AUG-CC-PVTZ
    Blend: AUG-CC-PVTZ
  Basis Set: (AUG-CC-PVTZ AUX)
    Blend: AUG-CC-PVTZ-JKFIT

    Orbital Energies [Eh]
    ---------------------

    Doubly Occupied:

       1A    -20.685530     2A    -20.522195     3A    -15.601615
       4A    -15.597347     5A    -11.370051     6A    -11.341389
       7A    -11.331480     8A    -11.270045     9A    -11.264176
      10A    -11.256780    11A     -1.604172    12A     -1.379986
      13A     -1.266962    14A     -1.247350    15A     -1.058572
      16A     -0.974562    17A     -0.952283    18A     -0.893105
      19A     -0.835640    20A     -0.811035    21A     -0.733904
      22A     -0.728166    23A     -0.691696    24A     -0.657949
      25A     -0.655019    26A     -0.629929    27A     -0.583300
      28A     -0.569723    29A     -0.559906    30A     -0.552924
      31A     -0.541486    32A     -0.534385    33A     -0.479176
      34A     -0.474058    35A     -0.438487    36A     -0.378090
      37A     -0.326881

  @DF-RHF Final Energy:  -490.58487504284244

   => Energetics <=

    Nuclear Repulsion Energy =            532.4476103064532708
    One-Electron Energy =               -1724.4662647000968718
    Two-Electron Energy =                 701.4337793508011600
    Total Energy =                       -490.5848750428424410
  Basis Set: (AUG-CC-PVTZ AUX)
    Blend: AUG-CC-PVTZ-RI
    Molecular point group: c1

    Geometry (in Angstrom), charge = 0, multiplicity = 1:

       Center              X                  Y                   Z               Mass
    ------------   -----------------  -----------------  -----------------  -----------------
         O            1.616169818090    -0.934030664035     0.386599684907    15.994914619570
         O           -0.866767181910    -1.798318664035    -0.187564315093    15.994914619570
         N           -1.749202181910     0.313178335965     0.008633684907    14.003074004430
         N            1.180674818090     1.106846335965    -0.435613315093    14.003074004430
         C           -0.717656181910    -0.576215664035    -0.061309315093    12.000000000000
         C           -1.666105181910     1.718876335965     0.377883684907    12.000000000000
         C           -3.100592181910    -0.213064664035    -0.115930315093    12.000000000000
         C            0.675419818090    -0.037345664035    -0.024488315093    12.000000000000
         C            2.630436718090    -0.379758164035     0.251333784907    12.000000000000
         C            2.545053818090     0.957739335965    -0.273695315093    12.000000000000
         H           -2.104295181910     2.334802335965    -0.414355315093     1.007825032230
         H           -0.632999181910     2.020553335965     0.516311684907     1.007825032230
         H           -2.232482181910     1.884251335965     1.301861684907     1.007825032230
         H           -3.605509181910    -0.212493664035     0.857057684907     1.007825032230
         H           -3.045875181910    -1.232522664035    -0.492215315093     1.007825032230
         H           -3.668237181910     0.415671335965    -0.808512315093     1.007825032230
         H            3.692001818090    -0.827052664035     0.515071684907     1.007825032230
         H            3.238621818090     1.745042335965    -0.532652315093     1.007825032230

  Basis Set: AUG-CC-PVTZ
    Blend: AUG-CC-PVTZ
  Basis Set: (AUG-CC-PVTZ AUX)
    Blend: AUG-CC-PVTZ-JKFIT
	 Reference Energy          =    -490.5848750428424410 [Eh]
	 Singles Energy            =      -0.0000000000000000 [Eh]
	 Same-Spin Energy          =      -0.5079635900656423 [Eh]
	 Opposite-Spin Energy      =      -1.5479297452996181 [Eh]
	 Correlation Energy        =      -2.0558933353652602 [Eh]
	 Total Energy              =    -492.6407683782077243 [Eh]

	 ================> DF-SCS-MP2 Energies <==================
	-----------------------------------------------------------
	 SCS Same-Spin Scale       =       0.3333333333333333 [-]
	 SCS Opposite-Spin Scale   =       1.2000000000000000 [-]
	 SCS Same-Spin Energy      =      -0.1693211966885474 [Eh]
	 SCS Opposite-Spin Energy  =      -1.8575156943595417 [Eh]
	 SCS Correlation Energy    =      -2.0268368910480890 [Eh]
	 SCS Total Energy          =    -492.6117119338905468 [Eh]
	-----------------------------------------------------------

  Dipole Moment: [D]
     X:     0.3347      Y:     2.5401      Z:     1.0402     Total:     2.7652

*** Psi4 exiting successfully. Buy a developer a beer!
