                               Psi4 1.3.2 release

  ==> Input File <==

--------------------------------------------------------------------------
#psi4
#
memory 32 gb

molecule  {
0 1
 Br        0.0000490     1.5373210     0.0922820
 Br       -2.9405518    -0.5510203    -0.1375229
 Br        2.8699250    -0.4854600    -0.2337790
  C       -0.0000100    -0.4202620     0.0447250
  C       -1.2431490    -0.9529940     0.7369810
  C        1.2431140    -0.9530360     0.7369740
  H       -0.0000150    -0.6893630    -1.0135150
  H       -1.3458500    -0.5442600     1.7429190
  H       -1.2174500    -2.0447140     0.7751110
  H        1.3458210    -0.5443190     1.7429160
  H        1.2173960    -2.0447570     0.7750850
units angstrom
no_reorient  #important for SAPT in psi4, default
symmetry c1  #important for SAPT in psi4, default
}

set PROPERTIES_ORIGIN ["COM"]
properties('MP2/aug-cc-pvtz', properties = ['dipole'])
--------------------------------------------------------------------------

    Molecular point group: c1
  Charge       = 0
  Multiplicity = 1
  Basis Set: AUG-CC-PVTZ
    Blend: AUG-CC-PVTZ
  Basis Set: (AUG-CC-PVTZ AUX)
    Blend: AUG-CC-PVTZ-JKFIT

    Orbital Energies [Eh]
    ---------------------

    Doubly Occupied:

       1A   -490.027246     2A   -490.026847     3A   -490.023420
       4A    -65.167075     5A    -65.166653     6A    -65.163358
       7A    -58.522405     8A    -58.521983     9A    -58.520959
      10A    -58.520932    11A    -58.520543    12A    -58.520512
      13A    -58.518660    14A    -58.517242    15A    -58.517208
      16A    -11.333314    17A    -11.322416    18A    -11.321011
      19A     -9.839763    20A     -9.839319    21A     -9.836081
      22A     -7.451404    23A     -7.450948    24A     -7.447651
      25A     -7.444546    26A     -7.444388    27A     -7.444113
      28A     -7.443944    29A     -7.440906    30A     -7.440750
      31A     -3.195084    32A     -3.194618    33A     -3.191586
      34A     -3.191402    35A     -3.191288    36A     -3.191139
      37A     -3.190950    38A     -3.187874    39A     -3.187633
      40A     -3.182561    41A     -3.182560    42A     -3.182138
      43A     -3.182138    44A     -3.178965    45A     -3.178962
      46A     -1.163459    47A     -1.075276    48A     -1.028408
      49A     -0.970823    50A     -0.897792    51A     -0.824322
      52A     -0.687654    53A     -0.639045    54A     -0.625079
      55A     -0.606622    56A     -0.527114    57A     -0.497679
      58A     -0.493866    59A     -0.429866    60A     -0.426668
      61A     -0.418183    62A     -0.411769    63A     -0.408752
      64A     -0.399220

  @DF-RHF Final Energy: -7833.94178996401934

   => Energetics <=

    Nuclear Repulsion Energy =           1002.0868771772289847
    One-Electron Energy =              -12905.8651487894021557
    Two-Electron Energy =                4069.8364816481534945
    Total Energy =                      -7833.9417899640193355
  Basis Set: (AUG-CC-PVTZ AUX)
    Blend: AUG-CC-PVTZ-RI
    Molecular point group: c1

    Geometry (in Angstrom), charge = 0, multiplicity = 1:

       Center              X                  Y                   Z               Mass
    ------------   -----------------  -----------------  -----------------  -----------------
         BR           0.020101696055     1.516814139083     0.091351938430    78.918337600000
         BR          -2.920499103945    -0.571527160917    -0.138452961570    78.918337600000
         BR           2.889977696055    -0.505966860917    -0.234709061570    78.918337600000
         C            0.020042696055    -0.440768860917     0.043794938430    12.000000000000
         C           -1.223096303945    -0.973500860917     0.736050938430    12.000000000000
         C            1.263166696055    -0.973542860917     0.736043938430    12.000000000000
         H            0.020037696055    -0.709869860917    -1.014445061570     1.007825032230
         H           -1.325797303945    -0.564766860917     1.741988938430     1.007825032230
         H           -1.197397303945    -2.065220860917     0.774180938430     1.007825032230
         H            1.365873696055    -0.564825860917     1.741985938430     1.007825032230
         H            1.237448696055    -2.065263860917     0.774154938430     1.007825032230

  Basis Set: AUG-CC-PVTZ
    Blend: AUG-CC-PVTZ
  Basis Set: (AUG-CC-PVTZ AUX)
    Blend: AUG-CC-PVTZ-JKFIT
	 Reference Energy          =   -7833.9417899640193355 [Eh]
	 Singles Energy            =      -0.0000000000000000 [Eh]
	 Same-Spin Energy          =      -0.3994145437203020 [Eh]
	 Opposite-Spin Energy      =      -1.0589516383106856 [Eh]
	 Correlation Energy        =      -1.4583661820309877 [Eh]
	 Total Energy              =   -7835.4001561460499943 [Eh]

	 ================> DF-SCS-MP2 Energies <==================
	-----------------------------------------------------------
	 SCS Same-Spin Scale       =       0.3333333333333333 [-]
	 SCS Opposite-Spin Scale   =       1.2000000000000000 [-]
	 SCS Same-Spin Energy      =      -0.1331381812401007 [Eh]
	 SCS Opposite-Spin Energy  =      -1.2707419659728227 [Eh]
	 SCS Correlation Energy    =      -1.4038801472129234 [Eh]
	 SCS Total Energy          =   -7835.3456701112318115 [Eh]
	-----------------------------------------------------------

  Dipole Moment: [D]
     X:     0.0811      Y:    -2.0987      Z:     1.4050     Total:     2.5269

*** Psi4 exiting successfully. Buy a developer a beer!
