                               Psi4 1.3.2 release

  ==> Input File <==

--------------------------------------------------------------------------
#psi4
#
memory 32 gb

molecule  {
0 1
 Br        0.0000490     1.5373210     0.0922820
 Br       -2.9138544    -0.4233530    -0.1207719
 Br        2.8699250    -0.4854600    -0.2337790
  C       -0.0000100    -0.4202620     0.0447250
  C       -1.2431490    -0.9529940     0.7369810
  C        1.2431140    -0.9530360     0.7369740
  H       -0.0000150    -0.6893630    -1.0135150
  H       -1.3458500    -0.5442600     1.7429190
  H       -1.2174500    -2.0447140     0.7751110
  H        1.3458210    -0.5443190     1.7429160
  H        1.2173960    -2.0447570     0.7750850
units angstrom
no_reorient  #important for SAPT in psi4, default
symmetry c1  #important for SAPT in psi4, default
}

set PROPERTIES_ORIGIN ["COM"]
properties('MP2/aug-cc-pvtz', properties = ['dipole'])
--------------------------------------------------------------------------

    Molecular point group: c1
  Charge       = 0
  Multiplicity = 1
  Basis Set: AUG-CC-PVTZ
    Blend: AUG-CC-PVTZ
  Basis Set: (AUG-CC-PVTZ AUX)
    Blend: AUG-CC-PVTZ-JKFIT

    Orbital Energies [Eh]
    ---------------------

    Doubly Occupied:

       1A   -490.026816     2A   -490.026173     3A   -490.022706
       4A    -65.166648     5A    -65.165999     6A    -65.162657
       7A    -58.521977     8A    -58.521328     9A    -58.520533
      10A    -58.520506    11A    -58.519883    12A    -58.519858
      13A    -58.517959    14A    -58.516539    15A    -58.516501
      16A    -11.332629    17A    -11.321961    18A    -11.321043
      19A     -9.839339    20A     -9.838686    21A     -9.835394
      22A     -7.450977    23A     -7.450325    24A     -7.446973
      25A     -7.444125    26A     -7.443967    27A     -7.443464
      28A     -7.443318    29A     -7.440222    30A     -7.440048
      31A     -3.194653    32A     -3.194001    33A     -3.191160
      34A     -3.190974    35A     -3.190617    36A     -3.190503
      37A     -3.190329    38A     -3.187207    39A     -3.186937
      40A     -3.182144    41A     -3.182143    42A     -3.181489
      43A     -3.181488    44A     -3.178261    45A     -3.178258
      46A     -1.163586    47A     -1.075061    48A     -1.026950
      49A     -0.970922    50A     -0.897545    51A     -0.824184
      52A     -0.687320    53A     -0.639157    54A     -0.624964
      55A     -0.606364    56A     -0.526998    57A     -0.497077
      58A     -0.493554    59A     -0.429624    60A     -0.428652
      61A     -0.417639    62A     -0.411145    63A     -0.408412
      64A     -0.396337

  @DF-RHF Final Energy: -7833.94117144393840

   => Energetics <=

    Nuclear Repulsion Energy =           1007.9002213283579295
    One-Electron Energy =              -12917.5543647279646393
    Two-Electron Energy =                4075.7129719556673990
    Total Energy =                      -7833.9411714439393108
  Basis Set: (AUG-CC-PVTZ AUX)
    Blend: AUG-CC-PVTZ-RI
    Molecular point group: c1

    Geometry (in Angstrom), charge = 0, multiplicity = 1:

       Center              X                  Y                   Z               Mass
    ------------   -----------------  -----------------  -----------------  -----------------
         BR           0.012517250819     1.480545227306     0.086593158843    78.918337600000
         BR          -2.901386149181    -0.480128772694    -0.126460741157    78.918337600000
         BR           2.882393250819    -0.542235772694    -0.239467841157    78.918337600000
         C            0.012458250819    -0.477037772694     0.039036158843    12.000000000000
         C           -1.230680749181    -1.009769772694     0.731292158843    12.000000000000
         C            1.255582250819    -1.009811772694     0.731285158843    12.000000000000
         H            0.012453250819    -0.746138772694    -1.019203841157     1.007825032230
         H           -1.333381749181    -0.601035772694     1.737230158843     1.007825032230
         H           -1.204981749181    -2.101489772694     0.769422158843     1.007825032230
         H            1.358289250819    -0.601094772694     1.737227158843     1.007825032230
         H            1.229864250819    -2.101532772694     0.769396158843     1.007825032230

  Basis Set: AUG-CC-PVTZ
    Blend: AUG-CC-PVTZ
  Basis Set: (AUG-CC-PVTZ AUX)
    Blend: AUG-CC-PVTZ-JKFIT
	 Reference Energy          =   -7833.9411714439384014 [Eh]
	 Singles Energy            =      -0.0000000000000000 [Eh]
	 Same-Spin Energy          =      -0.3997232910432970 [Eh]
	 Opposite-Spin Energy      =      -1.0593190712700462 [Eh]
	 Correlation Energy        =      -1.4590423623133431 [Eh]
	 Total Energy              =   -7835.4002138062514859 [Eh]

	 ================> DF-SCS-MP2 Energies <==================
	-----------------------------------------------------------
	 SCS Same-Spin Scale       =       0.3333333333333333 [-]
	 SCS Opposite-Spin Scale   =       1.2000000000000000 [-]
	 SCS Same-Spin Energy      =      -0.1332410970144323 [Eh]
	 SCS Opposite-Spin Energy  =      -1.2711828855240555 [Eh]
	 SCS Correlation Energy    =      -1.4044239825384879 [Eh]
	 SCS Total Energy          =   -7835.3455954264773027 [Eh]
	-----------------------------------------------------------

  Dipole Moment: [D]
     X:     0.0421      Y:    -2.1448      Z:     1.3951     Total:     2.5590

*** Psi4 exiting successfully. Buy a developer a beer!
