                               Psi4 1.4a3.dev225

  ==> Input File <==

--------------------------------------------------------------------------
#psi4
#
memory 32 gb

molecule  {
0 1
 Br       -0.0000060     1.5375450     0.0922240
 Br       -2.8696800    -0.4856180    -0.2338770
 Br        2.8696840    -0.4856140    -0.2338770
  C        0.0000010    -0.4201970     0.0451550
  C       -1.2598252    -0.9480143     0.7273809
  C        1.2431580    -0.9527970     0.7373390
  H        0.0000030    -0.6895990    -1.0129690
  H       -1.3460520    -0.5437630     1.7430850
  H       -1.2175640    -2.0445360     0.7756790
  H        1.3460560    -0.5437510     1.7430860
  H        1.2175710    -2.0445290     0.7756870
units angstrom
no_reorient  #important for SAPT in psi4, default
symmetry c1  #important for SAPT in psi4, default
}

set PROPERTIES_ORIGIN ["COM"]
properties('MP2/aug-cc-pvtz', properties = ['dipole'])
--------------------------------------------------------------------------

    Molecular point group: c1
  Charge       = 0
  Multiplicity = 1
  Basis Set: AUG-CC-PVTZ
    Blend: AUG-CC-PVTZ
  Basis Set: (AUG-CC-PVTZ AUX)
    Blend: AUG-CC-PVTZ-JKFIT

    Orbital Energies [Eh]
    ---------------------

    Doubly Occupied:

       1A   -490.027873     2A   -490.026347     3A   -490.022155
       4A    -65.167775     5A    -65.166180     6A    -65.162111
       7A    -58.523097     8A    -58.521659     9A    -58.521631
      10A    -58.521508    11A    -58.520066    12A    -58.520039
      13A    -58.517409    14A    -58.515996    15A    -58.515960
      16A    -11.331794    17A    -11.321177    18A    -11.320969
      19A     -9.840584    20A     -9.838871    21A     -9.834849
      22A     -7.452273    23A     -7.450507    24A     -7.446411
      25A     -7.445372    26A     -7.445212    27A     -7.443660
      28A     -7.443503    29A     -7.439686    30A     -7.439526
      31A     -3.195976    32A     -3.194183    33A     -3.192422
      34A     -3.192236    35A     -3.190691    36A     -3.190506
      37A     -3.190044    38A     -3.186643    39A     -3.186391
      40A     -3.183373    41A     -3.183372    42A     -3.181681
      43A     -3.181680    44A     -3.177749    45A     -3.177746
      46A     -1.162714    47A     -1.076941    48A     -1.027403
      49A     -0.969579    50A     -0.896793    51A     -0.823207
      52A     -0.685157    53A     -0.638243    54A     -0.623281
      55A     -0.603681    56A     -0.529507    57A     -0.496887
      58A     -0.495665    59A     -0.429916    60A     -0.427838
      61A     -0.418637    62A     -0.411119    63A     -0.407556
      64A     -0.396986

  @DF-RHF Final Energy: -7833.94151995614993

   => Energetics <=

    Nuclear Repulsion Energy =           1009.4355281247575249
    One-Electron Energy =              -12920.6140842566146603
    Two-Electron Energy =                4077.2370361757075443
    Total Energy =                      -7833.9415199561499321
  Basis Set: (AUG-CC-PVTZ AUX)
    Blend: AUG-CC-PVTZ-RI
    Molecular point group: c1

    Geometry (in Angstrom), charge = 0, multiplicity = 1:

       Center              X                  Y                   Z               Mass
    ------------   -----------------  -----------------  -----------------  -----------------
         BR           0.000714454825     1.498205437367     0.119084336936    78.918337600000
         BR          -2.868959545175    -0.524957562633    -0.207016663064    78.918337600000
         BR           2.870404454825    -0.524953562633    -0.207016663064    78.918337600000
         C            0.000721454825    -0.459536562633     0.072015336936    12.000000000000
         C           -1.259104745175    -0.987353862633     0.754241236936    12.000000000000
         C            1.243878454825    -0.992136562633     0.764199336936    12.000000000000
         H            0.000723454825    -0.728938562633    -0.986108663064     1.007825032230
         H           -1.345331545175    -0.583102562633     1.769945336936     1.007825032230
         H           -1.216843545175    -2.083875562633     0.802539336936     1.007825032230
         H            1.346776454825    -0.583090562633     1.769946336936     1.007825032230
         H            1.218291454825    -2.083868562633     0.802547336936     1.007825032230

  Basis Set: AUG-CC-PVTZ
    Blend: AUG-CC-PVTZ
  Basis Set: (AUG-CC-PVTZ AUX)
    Blend: AUG-CC-PVTZ-JKFIT
	 Reference Energy          =   -7833.9415199561499321 [Eh]
	 Singles Energy            =      -0.0000000000000000 [Eh]
	 Same-Spin Energy          =      -0.3998786843591311 [Eh]
	 Opposite-Spin Energy      =      -1.0595135492707146 [Eh]
	 Correlation Energy        =      -1.4593922336298457 [Eh]
	 Total Energy              =   -7835.4009121897797741 [Eh]

	 ================> DF-SCS-MP2 Energies <==================
	-----------------------------------------------------------
	 SCS Same-Spin Scale       =       0.3333333333333333 [-]
	 SCS Opposite-Spin Scale   =       1.2000000000000000 [-]
	 SCS Same-Spin Energy      =      -0.1332928947863770 [Eh]
	 SCS Opposite-Spin Energy  =      -1.2714162591248575 [Eh]
	 SCS Correlation Energy    =      -1.4047091539112344 [Eh]
	 SCS Total Energy          =   -7835.3462291100613584 [Eh]
	-----------------------------------------------------------

  Dipole Moment: [D]
     X:    -0.0504      Y:    -2.1233      Z:     1.4363     Total:     2.5640

*** Psi4 exiting successfully. Buy a developer a beer!
