                               Psi4 1.4a3.dev225

  ==> Input File <==

--------------------------------------------------------------------------
#psi4
#
memory 32 gb

molecule  {
0 1
 Br       -0.0000060     1.5375450     0.0922240
 Br       -2.8696800    -0.4856180    -0.2338770
 Br        2.8696840    -0.4856140    -0.2338770
  C        0.0000011    -0.4401912     0.0446743
  C       -1.2431530    -0.9528030     0.7373360
  C        1.2431580    -0.9527970     0.7373390
  H        0.0000030    -0.6895990    -1.0129690
  H       -1.3460520    -0.5437630     1.7430850
  H       -1.2175640    -2.0445360     0.7756790
  H        1.3460560    -0.5437510     1.7430860
  H        1.2175710    -2.0445290     0.7756870
units angstrom
no_reorient  #important for SAPT in psi4, default
symmetry c1  #important for SAPT in psi4, default
}

set PROPERTIES_ORIGIN ["COM"]
properties('MP2/aug-cc-pvtz', properties = ['dipole'])
--------------------------------------------------------------------------

    Molecular point group: c1
  Charge       = 0
  Multiplicity = 1
  Basis Set: AUG-CC-PVTZ
    Blend: AUG-CC-PVTZ
  Basis Set: (AUG-CC-PVTZ AUX)
    Blend: AUG-CC-PVTZ-JKFIT

    Orbital Energies [Eh]
    ---------------------

    Doubly Occupied:

       1A   -490.027001     2A   -490.027001     3A   -490.020752
       4A    -65.166828     5A    -65.166828     6A    -65.160657
       7A    -58.522160     8A    -58.522159     9A    -58.520712
      10A    -58.520712    11A    -58.520684    12A    -58.520684
      13A    -58.515959    14A    -58.514545    15A    -58.514506
      16A    -11.332731    17A    -11.321695    18A    -11.321668
      19A     -9.839514    20A     -9.839513    21A     -9.833302
      22A     -7.451161    23A     -7.451160    24A     -7.444815
      25A     -7.444295    26A     -7.444294    27A     -7.444132
      28A     -7.444132    29A     -7.438148    30A     -7.437974
      31A     -3.194844    32A     -3.194842    33A     -3.191344
      34A     -3.191343    35A     -3.191153    36A     -3.191152
      37A     -3.188419    38A     -3.185084    39A     -3.184816
      40A     -3.182303    41A     -3.182303    42A     -3.182302
      43A     -3.182302    44A     -3.176223    45A     -3.176220
      46A     -1.164781    47A     -1.075953    48A     -1.024342
      49A     -0.970954    50A     -0.899077    51A     -0.825956
      52A     -0.687555    53A     -0.640206    54A     -0.626571
      55A     -0.608674    56A     -0.528614    57A     -0.494542
      58A     -0.490917    59A     -0.429449    60A     -0.428197
      61A     -0.418835    62A     -0.412022    63A     -0.407458
      64A     -0.396029

  @DF-RHF Final Energy: -7833.94158001715186

   => Energetics <=

    Nuclear Repulsion Energy =           1008.6830879729089929
    One-Electron Energy =              -12919.1403254249053134
    Two-Electron Energy =                4076.5156574348443428
    Total Energy =                      -7833.9415800171518640
  Basis Set: (AUG-CC-PVTZ AUX)
    Blend: AUG-CC-PVTZ-RI
    Molecular point group: c1

    Geometry (in Angstrom), charge = 0, multiplicity = 1:

       Center              X                  Y                   Z               Mass
    ------------   -----------------  -----------------  -----------------  -----------------
         BR          -0.000005746117     1.499275995595     0.118675066961    78.918337600000
         BR          -2.869679746117    -0.523887004405    -0.207425933039    78.918337600000
         BR           2.869684253883    -0.523883004405    -0.207425933039    78.918337600000
         C            0.000001353883    -0.478460204405     0.071125366961    12.000000000000
         C           -1.243152746117    -0.991072004405     0.763787066961    12.000000000000
         C            1.243158253883    -0.991066004405     0.763790066961    12.000000000000
         H            0.000003253883    -0.727868004405    -0.986517933039     1.007825032230
         H           -1.346051746117    -0.582032004405     1.769536066961     1.007825032230
         H           -1.217563746117    -2.082805004405     0.802130066961     1.007825032230
         H            1.346056253883    -0.582020004405     1.769537066961     1.007825032230
         H            1.217571253883    -2.082798004405     0.802138066961     1.007825032230

  Basis Set: AUG-CC-PVTZ
    Blend: AUG-CC-PVTZ
  Basis Set: (AUG-CC-PVTZ AUX)
    Blend: AUG-CC-PVTZ-JKFIT
	 Reference Energy          =   -7833.9415800171518640 [Eh]
	 Singles Energy            =      -0.0000000000000000 [Eh]
	 Same-Spin Energy          =      -0.3996662127186720 [Eh]
	 Opposite-Spin Energy      =      -1.0592542045661162 [Eh]
	 Correlation Energy        =      -1.4589204172847883 [Eh]
	 Total Energy              =   -7835.4005004344362533 [Eh]

	 ================> DF-SCS-MP2 Energies <==================
	-----------------------------------------------------------
	 SCS Same-Spin Scale       =       0.3333333333333333 [-]
	 SCS Opposite-Spin Scale   =       1.2000000000000000 [-]
	 SCS Same-Spin Energy      =      -0.1332220709062240 [Eh]
	 SCS Opposite-Spin Energy  =      -1.2711050454793393 [Eh]
	 SCS Correlation Energy    =      -1.4043271163855633 [Eh]
	 SCS Total Energy          =   -7835.3459071335373665 [Eh]
	-----------------------------------------------------------

  Dipole Moment: [D]
     X:     0.0000      Y:    -2.1823      Z:     1.4574     Total:     2.6242

*** Psi4 exiting successfully. Buy a developer a beer!
