                               Psi4 1.3.2 release

  ==> Input File <==

--------------------------------------------------------------------------
#psi4
#
memory 32 gb

molecule  {
0 1
 Br        0.0000490     1.5373210     0.0922820
 Br       -2.8699640    -0.4854280    -0.2337770
 Br        2.8699250    -0.4854600    -0.2337790
  C       -0.0000100    -0.4202620     0.0447250
  C       -1.4098919    -0.9050701     0.6374817
  C        1.2431140    -0.9530360     0.7369740
  H       -0.0000150    -0.6893630    -1.0135150
  H       -1.3458500    -0.5442600     1.7429190
  H       -1.2174500    -2.0447140     0.7751110
  H        1.3458210    -0.5443190     1.7429160
  H        1.2173960    -2.0447570     0.7750850
units angstrom
no_reorient  #important for SAPT in psi4, default
symmetry c1  #important for SAPT in psi4, default
}

set PROPERTIES_ORIGIN ["COM"]
properties('MP2/aug-cc-pvtz', properties = ['dipole'])
--------------------------------------------------------------------------

    Molecular point group: c1
  Charge       = 0
  Multiplicity = 1
  Basis Set: AUG-CC-PVTZ
    Blend: AUG-CC-PVTZ
  Basis Set: (AUG-CC-PVTZ AUX)
    Blend: AUG-CC-PVTZ-JKFIT

    Orbital Energies [Eh]
    ---------------------

    Doubly Occupied:

       1A   -490.037724     2A   -490.026113     3A   -490.017587
       4A    -65.178707     5A    -65.165917     6A    -65.157600
       7A    -58.533871     8A    -58.532567     9A    -58.532530
      10A    -58.521255    11A    -58.519797    12A    -58.519768
      13A    -58.512869    14A    -58.511501    15A    -58.511469
      16A    -11.331333    17A    -11.322956    18A    -11.320091
      19A     -9.853254    20A     -9.838586    21A     -9.830392
      22A     -7.465532    23A     -7.458099    24A     -7.457895
      25A     -7.450256    26A     -7.443343    27A     -7.443180
      28A     -7.441854    29A     -7.435300    30A     -7.435173
      31A     -3.209449    32A     -3.205203    33A     -3.204984
      34A     -3.196013    35A     -3.196010    36A     -3.193955
      37A     -3.190431    38A     -3.190244    39A     -3.185428
      40A     -3.182099    41A     -3.181893    42A     -3.181328
      43A     -3.181327    44A     -3.173471    45A     -3.173468
      46A     -1.160351    47A     -1.102066    48A     -1.031684
      49A     -0.960534    50A     -0.886510    51A     -0.811116
      52A     -0.671661    53A     -0.630066    54A     -0.612431
      55A     -0.595625    56A     -0.551686    57A     -0.507934
      58A     -0.491600    59A     -0.432372    60A     -0.421174
      61A     -0.417320    62A     -0.408522    63A     -0.400849
      64A     -0.396839

  @DF-RHF Final Energy: -7833.90926496771954

   => Energetics <=

    Nuclear Repulsion Energy =           1012.8989919521682168
    One-Electron Energy =              -12927.3321850358424854
    Two-Electron Energy =                4080.5239281159547318
    Total Energy =                      -7833.9092649677195368
  Basis Set: (AUG-CC-PVTZ AUX)
    Blend: AUG-CC-PVTZ-RI
    Molecular point group: c1

    Geometry (in Angstrom), charge = 0, multiplicity = 1:

       Center              X                  Y                   Z               Mass
    ------------   -----------------  -----------------  -----------------  -----------------
         BR           0.007251327587     1.496109879024     0.122994813344    78.918337600000
         BR          -2.862761672413    -0.526639120976    -0.203064186656    78.918337600000
         BR           2.877127327587    -0.526671120976    -0.203066186656    78.918337600000
         C            0.007192327587    -0.461473120976     0.075437813344    12.000000000000
         C           -1.402689572413    -0.946281220976     0.668194513344    12.000000000000
         C            1.250316327587    -0.994247120976     0.767686813344    12.000000000000
         H            0.007187327587    -0.730574120976    -0.982802186656     1.007825032230
         H           -1.338647672413    -0.585471120976     1.773631813344     1.007825032230
         H           -1.210247672413    -2.085925120976     0.805823813344     1.007825032230
         H            1.353023327587    -0.585530120976     1.773628813344     1.007825032230
         H            1.224598327587    -2.085968120976     0.805797813344     1.007825032230

  Basis Set: AUG-CC-PVTZ
    Blend: AUG-CC-PVTZ
  Basis Set: (AUG-CC-PVTZ AUX)
    Blend: AUG-CC-PVTZ-JKFIT
	 Reference Energy          =   -7833.9092649677195368 [Eh]
	 Singles Energy            =      -0.0000000000000000 [Eh]
	 Same-Spin Energy          =      -0.4024032808117676 [Eh]
	 Opposite-Spin Energy      =      -1.0628284061045790 [Eh]
	 Correlation Energy        =      -1.4652316869163466 [Eh]
	 Total Energy              =   -7835.3744966546355499 [Eh]

	 ================> DF-SCS-MP2 Energies <==================
	-----------------------------------------------------------
	 SCS Same-Spin Scale       =       0.3333333333333333 [-]
	 SCS Opposite-Spin Scale   =       1.2000000000000000 [-]
	 SCS Same-Spin Energy      =      -0.1341344269372559 [Eh]
	 SCS Opposite-Spin Energy  =      -1.2753940873254948 [Eh]
	 SCS Correlation Energy    =      -1.4095285142627505 [Eh]
	 SCS Total Energy          =   -7835.3187934819825387 [Eh]
	-----------------------------------------------------------

  Dipole Moment: [D]
     X:    -0.4682      Y:    -2.1376      Z:     1.2350     Total:     2.5127

*** Psi4 exiting successfully. Buy a developer a beer!
