                               Psi4 1.4a3.dev225

  ==> Input File <==

--------------------------------------------------------------------------
#psi4
#
memory 32 gb

molecule  {
0 1
 Br       -0.0000060     1.5375450     0.0922240
 Br       -2.8696800    -0.4856180    -0.2338770
 Br        2.8696840    -0.4856140    -0.2338770
  C        0.0000008    -0.3702114     0.0463568
  C       -1.2431530    -0.9528030     0.7373360
  C        1.2431580    -0.9527970     0.7373390
  H        0.0000030    -0.6895990    -1.0129690
  H       -1.3460520    -0.5437630     1.7430850
  H       -1.2175640    -2.0445360     0.7756790
  H        1.3460560    -0.5437510     1.7430860
  H        1.2175710    -2.0445290     0.7756870
units angstrom
no_reorient  #important for SAPT in psi4, default
symmetry c1  #important for SAPT in psi4, default
}

set PROPERTIES_ORIGIN ["COM"]
properties('MP2/aug-cc-pvtz', properties = ['dipole'])
--------------------------------------------------------------------------

    Molecular point group: c1
  Charge       = 0
  Multiplicity = 1
  Basis Set: AUG-CC-PVTZ
    Blend: AUG-CC-PVTZ
  Basis Set: (AUG-CC-PVTZ AUX)
    Blend: AUG-CC-PVTZ-JKFIT

    Orbital Energies [Eh]
    ---------------------

    Doubly Occupied:

       1A   -490.027276     2A   -490.025161     3A   -490.025161
       4A    -65.167371     5A    -65.165019     6A    -65.165019
       7A    -58.522662     8A    -58.521243     9A    -58.521212
      10A    -58.520337    11A    -58.520337    12A    -58.518910
      13A    -58.518910    14A    -58.518886    15A    -58.518886
      16A    -11.330863    17A    -11.321037    18A    -11.321013
      19A     -9.840374    20A     -9.837731    21A     -9.837730
      22A     -7.452099    23A     -7.449330    24A     -7.449330
      25A     -7.445169    26A     -7.445025    27A     -7.442545
      28A     -7.442544    29A     -7.442403    30A     -7.442403
      31A     -3.195824    32A     -3.192983    33A     -3.192981
      34A     -3.192224    35A     -3.191988    36A     -3.189518
      37A     -3.189516    38A     -3.189350    39A     -3.189349
      40A     -3.183167    41A     -3.183164    42A     -3.180608
      43A     -3.180607    44A     -3.180606    45A     -3.180606
      46A     -1.162256    47A     -1.073031    48A     -1.033025
      49A     -0.968490    50A     -0.894304    51A     -0.821141
      52A     -0.686572    53A     -0.638565    54A     -0.619882
      55A     -0.597772    56A     -0.526088    57A     -0.511776
      58A     -0.490518    59A     -0.430003    60A     -0.428767
      61A     -0.417409    62A     -0.408948    63A     -0.408510
      64A     -0.398501

  @DF-RHF Final Energy: -7833.94005295262286

   => Energetics <=

    Nuclear Repulsion Energy =           1010.1606589930402151
    One-Electron Energy =              -12922.0333527822112956
    Two-Electron Energy =                4077.9326408365482166
    Total Energy =                      -7833.9400529526228638
  Basis Set: (AUG-CC-PVTZ AUX)
    Blend: AUG-CC-PVTZ-RI
    Molecular point group: c1

    Geometry (in Angstrom), charge = 0, multiplicity = 1:

       Center              X                  Y                   Z               Mass
    ------------   -----------------  -----------------  -----------------  -----------------
         BR          -0.000005733158     1.496253046276     0.118602387242    78.918337600000
         BR          -2.869679733158    -0.526909953724    -0.207498612758    78.918337600000
         BR           2.869684266842    -0.526905953724    -0.207498612758    78.918337600000
         C            0.000001066842    -0.411503353724     0.072735187242    12.000000000000
         C           -1.243152733158    -0.994094953724     0.763714387242    12.000000000000
         C            1.243158266842    -0.994088953724     0.763717387242    12.000000000000
         H            0.000003266842    -0.730890953724    -0.986590612758     1.007825032230
         H           -1.346051733158    -0.585054953724     1.769463387242     1.007825032230
         H           -1.217563733158    -2.085827953724     0.802057387242     1.007825032230
         H            1.346056266842    -0.585042953724     1.769464387242     1.007825032230
         H            1.217571266842    -2.085820953724     0.802065387242     1.007825032230

  Basis Set: AUG-CC-PVTZ
    Blend: AUG-CC-PVTZ
  Basis Set: (AUG-CC-PVTZ AUX)
    Blend: AUG-CC-PVTZ-JKFIT
	 Reference Energy          =   -7833.9400529526228638 [Eh]
	 Singles Energy            =      -0.0000000000000000 [Eh]
	 Same-Spin Energy          =      -0.4001087817981474 [Eh]
	 Opposite-Spin Energy      =      -1.0598216788770323 [Eh]
	 Correlation Energy        =      -1.4599304606751797 [Eh]
	 Total Energy              =   -7835.3999834132982869 [Eh]

	 ================> DF-SCS-MP2 Energies <==================
	-----------------------------------------------------------
	 SCS Same-Spin Scale       =       0.3333333333333333 [-]
	 SCS Opposite-Spin Scale   =       1.2000000000000000 [-]
	 SCS Same-Spin Energy      =      -0.1333695939327158 [Eh]
	 SCS Opposite-Spin Energy  =      -1.2717860146524387 [Eh]
	 SCS Correlation Energy    =      -1.4051556085851544 [Eh]
	 SCS Total Energy          =   -7835.3452085612079827 [Eh]
	-----------------------------------------------------------

  Dipole Moment: [D]
     X:     0.0000      Y:    -1.9720      Z:     1.4598     Total:     2.4535

*** Psi4 exiting successfully. Buy a developer a beer!
