                               Psi4 1.3.2 release

  ==> Input File <==

--------------------------------------------------------------------------
#psi4
#
memory 32 gb

molecule  {
0 1
 Br        0.1188663     1.5341853     0.0248032
 Br       -2.8699640    -0.4854280    -0.2337770
 Br        2.8699250    -0.4854600    -0.2337790
  C       -0.0000100    -0.4202620     0.0447250
  C       -1.2431490    -0.9529940     0.7369810
  C        1.2431140    -0.9530360     0.7369740
  H       -0.0000150    -0.6893630    -1.0135150
  H       -1.3458500    -0.5442600     1.7429190
  H       -1.2174500    -2.0447140     0.7751110
  H        1.3458210    -0.5443190     1.7429160
  H        1.2173960    -2.0447570     0.7750850
units angstrom
no_reorient  #important for SAPT in psi4, default
symmetry c1  #important for SAPT in psi4, default
}

set PROPERTIES_ORIGIN ["COM"]
properties('MP2/aug-cc-pvtz', properties = ['dipole'])
--------------------------------------------------------------------------

    Molecular point group: c1
  Charge       = 0
  Multiplicity = 1
  Basis Set: AUG-CC-PVTZ
    Blend: AUG-CC-PVTZ
  Basis Set: (AUG-CC-PVTZ AUX)
    Blend: AUG-CC-PVTZ-JKFIT

    Orbital Energies [Eh]
    ---------------------

    Doubly Occupied:

       1A   -490.027313     2A   -490.025422     3A   -490.022352
       4A    -65.167138     5A    -65.165277     6A    -65.162302
       7A    -58.522468     8A    -58.521023     9A    -58.521000
      10A    -58.520602    11A    -58.519161    12A    -58.519130
      13A    -58.517604    14A    -58.516182    15A    -58.516146
      16A    -11.331707    17A    -11.323043    18A    -11.320453
      19A     -9.839820    20A     -9.837993    21A     -9.835042
      22A     -7.451455    23A     -7.449631    24A     -7.446622
      25A     -7.444601    26A     -7.444461    27A     -7.442787
      28A     -7.442615    29A     -7.439859    30A     -7.439701
      31A     -3.195126    32A     -3.193310    33A     -3.191626
      34A     -3.191466    35A     -3.190267    36A     -3.189828
      37A     -3.189614    38A     -3.186850    39A     -3.186592
      40A     -3.182635    41A     -3.182634    42A     -3.180795
      43A     -3.180792    44A     -3.177904    45A     -3.177902
      46A     -1.163526    47A     -1.075222    48A     -1.026458
      49A     -0.970893    50A     -0.897646    51A     -0.824003
      52A     -0.687208    53A     -0.639391    54A     -0.624979
      55A     -0.605820    56A     -0.528139    57A     -0.496472
      58A     -0.493280    59A     -0.431638    60A     -0.426924
      61A     -0.418094    62A     -0.411189    63A     -0.407957
      64A     -0.394951

  @DF-RHF Final Energy: -7833.94063382902368

   => Energetics <=

    Nuclear Repulsion Energy =           1009.5842645233040002
    One-Electron Energy =              -12920.9417080593630089
    Two-Electron Energy =                4077.4168097070350996
    Total Energy =                      -7833.9406338290236818
  Basis Set: (AUG-CC-PVTZ AUX)
    Blend: AUG-CC-PVTZ-RI
    Molecular point group: c1

    Geometry (in Angstrom), charge = 0, multiplicity = 1:

       Center              X                  Y                   Z               Mass
    ------------   -----------------  -----------------  -----------------  -----------------
         BR           0.085111036914     1.495935188343     0.070387900668    78.918337600000
         BR          -2.903719263086    -0.523678111657    -0.188192299332    78.918337600000
         BR           2.836169736914    -0.523710111657    -0.188194299332    78.918337600000
         C           -0.033765263086    -0.458512111657     0.090309700668    12.000000000000
         C           -1.276904263086    -0.991244111657     0.782565700668    12.000000000000
         C            1.209358736914    -0.991286111657     0.782558700668    12.000000000000
         H           -0.033770263086    -0.727613111657    -0.967930299332     1.007825032230
         H           -1.379605263086    -0.582510111657     1.788503700668     1.007825032230
         H           -1.251205263086    -2.082964111657     0.820695700668     1.007825032230
         H            1.312065736914    -0.582569111657     1.788500700668     1.007825032230
         H            1.183640736914    -2.083007111657     0.820669700668     1.007825032230

  Basis Set: AUG-CC-PVTZ
    Blend: AUG-CC-PVTZ
  Basis Set: (AUG-CC-PVTZ AUX)
    Blend: AUG-CC-PVTZ-JKFIT
	 Reference Energy          =   -7833.9406338290236818 [Eh]
	 Singles Energy            =      -0.0000000000000000 [Eh]
	 Same-Spin Energy          =      -0.3998175681491278 [Eh]
	 Opposite-Spin Energy      =      -1.0594418845151456 [Eh]
	 Correlation Energy        =      -1.4592594526642735 [Eh]
	 Total Energy              =   -7835.3998932816875822 [Eh]

	 ================> DF-SCS-MP2 Energies <==================
	-----------------------------------------------------------
	 SCS Same-Spin Scale       =       0.3333333333333333 [-]
	 SCS Opposite-Spin Scale   =       1.2000000000000000 [-]
	 SCS Same-Spin Energy      =      -0.1332725227163759 [Eh]
	 SCS Opposite-Spin Energy  =      -1.2713302614181747 [Eh]
	 SCS Correlation Energy    =      -1.4046027841345508 [Eh]
	 SCS Total Energy          =   -7835.3452366131577946 [Eh]
	-----------------------------------------------------------

  Dipole Moment: [D]
     X:    -0.0624      Y:    -2.1206      Z:     1.4861     Total:     2.5903

*** Psi4 exiting successfully. Buy a developer a beer!
