                               Psi4 1.3.2 release

  ==> Input File <==

--------------------------------------------------------------------------
#psi4
#
memory 32 gb

molecule  {
0 1
 Br        0.0000490     1.5373210     0.0922820
 Br       -2.8577438    -0.5013148    -0.2613103
 Br        2.8699250    -0.4854600    -0.2337790
  C       -0.0000100    -0.4202620     0.0447250
  C       -1.2431490    -0.9529940     0.7369810
  C        1.2431140    -0.9530360     0.7369740
  H       -0.0000150    -0.6893630    -1.0135150
  H       -1.3458500    -0.5442600     1.7429190
  H       -1.2174500    -2.0447140     0.7751110
  H        1.3458210    -0.5443190     1.7429160
  H        1.2173960    -2.0447570     0.7750850
units angstrom
no_reorient  #important for SAPT in psi4, default
symmetry c1  #important for SAPT in psi4, default
}

set PROPERTIES_ORIGIN ["COM"]
properties('MP2/aug-cc-pvtz', properties = ['dipole'])
--------------------------------------------------------------------------

    Molecular point group: c1
  Charge       = 0
  Multiplicity = 1
  Basis Set: AUG-CC-PVTZ
    Blend: AUG-CC-PVTZ
  Basis Set: (AUG-CC-PVTZ AUX)
    Blend: AUG-CC-PVTZ-JKFIT

    Orbital Energies [Eh]
    ---------------------

    Doubly Occupied:

       1A   -490.026547     2A   -490.026363     3A   -490.022739
       4A    -65.166385     5A    -65.166199     6A    -65.162687
       7A    -58.521712     8A    -58.521526     9A    -58.520271
      10A    -58.520244    11A    -58.520085    12A    -58.520059
      13A    -58.517988    14A    -58.516570    15A    -58.516534
      16A    -11.331869    17A    -11.321540    18A    -11.321308
      19A     -9.839080    20A     -9.838892    21A     -9.835418
      22A     -7.450713    23A     -7.450523    24A     -7.446991
      25A     -7.443873    26A     -7.443714    27A     -7.443684
      28A     -7.443527    29A     -7.440247    30A     -7.440082
      31A     -3.194386    32A     -3.194196    33A     -3.190899
      34A     -3.190712    35A     -3.190708    36A     -3.190631
      37A     -3.190524    38A     -3.187221    39A     -3.186965
      40A     -3.181895    41A     -3.181894    42A     -3.181709
      43A     -3.181708    44A     -3.178297    45A     -3.178294
      46A     -1.163916    47A     -1.075076    48A     -1.026606
      49A     -0.970291    50A     -0.897684    51A     -0.824663
      52A     -0.687265    53A     -0.639479    54A     -0.624873
      55A     -0.605217    56A     -0.528082    57A     -0.496883
      58A     -0.493201    59A     -0.429600    60A     -0.428295
      61A     -0.418657    62A     -0.411007    63A     -0.407920
      64A     -0.396943

  @DF-RHF Final Energy: -7833.94177090476114

   => Energetics <=

    Nuclear Repulsion Energy =           1009.4152424914665289
    One-Electron Energy =              -12920.5878855688079057
    Two-Electron Energy =                4077.2308721725798932
    Total Energy =                      -7833.9417709047611424
  Basis Set: (AUG-CC-PVTZ AUX)
    Blend: AUG-CC-PVTZ-RI
    Molecular point group: c1

    Geometry (in Angstrom), charge = 0, multiplicity = 1:

       Center              X                  Y                   Z               Mass
    ------------   -----------------  -----------------  -----------------  -----------------
         BR          -0.003423169329     1.502693339205     0.126518612196    78.918337600000
         BR          -2.861215969329    -0.535942460795    -0.227073687804    78.918337600000
         BR           2.866452830671    -0.520087660795    -0.199542387804    78.918337600000
         C           -0.003482169329    -0.454889660795     0.078961612196    12.000000000000
         C           -1.246621169329    -0.987621660795     0.771217612196    12.000000000000
         C            1.239641830671    -0.987663660795     0.771210612196    12.000000000000
         H           -0.003487169329    -0.723990660795    -0.979278387804     1.007825032230
         H           -1.349322169329    -0.578887660795     1.777155612196     1.007825032230
         H           -1.220922169329    -2.079341660795     0.809347612196     1.007825032230
         H            1.342348830671    -0.578946660795     1.777152612196     1.007825032230
         H            1.213923830671    -2.079384660795     0.809321612196     1.007825032230

  Basis Set: AUG-CC-PVTZ
    Blend: AUG-CC-PVTZ
  Basis Set: (AUG-CC-PVTZ AUX)
    Blend: AUG-CC-PVTZ-JKFIT
	 Reference Energy          =   -7833.9417709047611424 [Eh]
	 Singles Energy            =      -0.0000000000000000 [Eh]
	 Same-Spin Energy          =      -0.3997781886056173 [Eh]
	 Opposite-Spin Energy      =      -1.0594065942502420 [Eh]
	 Correlation Energy        =      -1.4591847828558593 [Eh]
	 Total Energy              =   -7835.4009556876171700 [Eh]

	 ================> DF-SCS-MP2 Energies <==================
	-----------------------------------------------------------
	 SCS Same-Spin Scale       =       0.3333333333333333 [-]
	 SCS Opposite-Spin Scale   =       1.2000000000000000 [-]
	 SCS Same-Spin Energy      =      -0.1332593962018724 [Eh]
	 SCS Opposite-Spin Energy  =      -1.2712879131002903 [Eh]
	 SCS Correlation Energy    =      -1.4045473093021628 [Eh]
	 SCS Total Energy          =   -7835.3463182140631034 [Eh]
	-----------------------------------------------------------

  Dipole Moment: [D]
     X:    -0.0114      Y:    -2.1147      Z:     1.4719     Total:     2.5765

*** Psi4 exiting successfully. Buy a developer a beer!
