                               Psi4 1.3.2 release

  ==> Input File <==

--------------------------------------------------------------------------
#psi4
#
memory 32 gb

molecule  {
0 1
 Br        0.0000490     1.5373210     0.0922820
 Br       -2.8699640    -0.4854280    -0.2337770
 Br        2.8699250    -0.4854600    -0.2337790
  C       -0.0000040    -0.2203210     0.0495823
  C       -1.2431490    -0.9529940     0.7369810
  C        1.2431140    -0.9530360     0.7369740
  H       -0.0000150    -0.6893630    -1.0135150
  H       -1.3458500    -0.5442600     1.7429190
  H       -1.2174500    -2.0447140     0.7751110
  H        1.3458210    -0.5443190     1.7429160
  H        1.2173960    -2.0447570     0.7750850
units angstrom
no_reorient  #important for SAPT in psi4, default
symmetry c1  #important for SAPT in psi4, default
}

set PROPERTIES_ORIGIN ["COM"]
properties('MP2/aug-cc-pvtz', properties = ['dipole'])
--------------------------------------------------------------------------

    Molecular point group: c1
  Charge       = 0
  Multiplicity = 1
  Basis Set: AUG-CC-PVTZ
    Blend: AUG-CC-PVTZ
  Basis Set: (AUG-CC-PVTZ AUX)
    Blend: AUG-CC-PVTZ-JKFIT

    Orbital Energies [Eh]
    ---------------------

    Doubly Occupied:

       1A   -490.037872     2A   -490.021794     3A   -490.021793
       4A    -65.178833     5A    -65.161703     6A    -65.161702
       7A    -58.533993     8A    -58.532675     9A    -58.532662
      10A    -58.516994    11A    -58.516993    12A    -58.515606
      13A    -58.515605    14A    -58.515588    15A    -58.515588
      16A    -11.332160    17A    -11.321245    18A    -11.321230
      19A     -9.853253    20A     -9.834458    21A     -9.834457
      22A     -7.465472    23A     -7.458027    24A     -7.457960
      25A     -7.445966    26A     -7.445966    27A     -7.439331
      28A     -7.439330    29A     -7.439226    30A     -7.439226
      31A     -3.209388    32A     -3.205138    33A     -3.204982
      34A     -3.196014    35A     -3.196011    36A     -3.189566
      37A     -3.189564    38A     -3.186164    39A     -3.186163
      40A     -3.186041    41A     -3.186040    42A     -3.177495
      43A     -3.177494    44A     -3.177493    45A     -3.177493
      46A     -1.166792    47A     -1.067610    48A     -1.053440
      49A     -0.959325    50A     -0.885705    51A     -0.810925
      52A     -0.683920    53A     -0.639285    54A     -0.604596
      55A     -0.581309    56A     -0.552265    57A     -0.522099
      58A     -0.484920    59A     -0.429344    60A     -0.428762
      61A     -0.414059    62A     -0.407510    63A     -0.402730
      64A     -0.397450

  @DF-RHF Final Energy: -7833.90968816669647

   => Energetics <=

    Nuclear Repulsion Energy =           1013.5878454550273773
    One-Electron Energy =              -12928.7074711292061693
    Two-Electron Energy =                4081.2099375074822092
    Total Energy =                      -7833.9096881666964691
  Basis Set: (AUG-CC-PVTZ AUX)
    Blend: AUG-CC-PVTZ-RI
    Molecular point group: c1

    Geometry (in Angstrom), charge = 0, multiplicity = 1:

       Center              X                  Y                   Z               Mass
    ------------   -----------------  -----------------  -----------------  -----------------
         BR           0.000048199348     1.489543127064     0.118486873726    78.918337600000
         BR          -2.869964800652    -0.533205872936    -0.207572126274    78.918337600000
         BR           2.869924199348    -0.533237872936    -0.207574126274    78.918337600000
         C           -0.000004800652    -0.268098872936     0.075787173726    12.000000000000
         C           -1.243149800652    -1.000771872936     0.763185873726    12.000000000000
         C            1.243113199348    -1.000813872936     0.763178873726    12.000000000000
         H           -0.000015800652    -0.737140872936    -0.987310126274     1.007825032230
         H           -1.345850800652    -0.592037872936     1.769123873726     1.007825032230
         H           -1.217450800652    -2.092491872936     0.801315873726     1.007825032230
         H            1.345820199348    -0.592096872936     1.769120873726     1.007825032230
         H            1.217395199348    -2.092534872936     0.801289873726     1.007825032230

  Basis Set: AUG-CC-PVTZ
    Blend: AUG-CC-PVTZ
  Basis Set: (AUG-CC-PVTZ AUX)
    Blend: AUG-CC-PVTZ-JKFIT
	 Reference Energy          =   -7833.9096881666964691 [Eh]
	 Singles Energy            =      -0.0000000000000000 [Eh]
	 Same-Spin Energy          =      -0.4024090868914973 [Eh]
	 Opposite-Spin Energy      =      -1.0629592293902252 [Eh]
	 Correlation Energy        =      -1.4653683162817226 [Eh]
	 Total Energy              =   -7835.3750564829779250 [Eh]

	 ================> DF-SCS-MP2 Energies <==================
	-----------------------------------------------------------
	 SCS Same-Spin Scale       =       0.3333333333333333 [-]
	 SCS Opposite-Spin Scale   =       1.2000000000000000 [-]
	 SCS Same-Spin Energy      =      -0.1341363622971658 [Eh]
	 SCS Opposite-Spin Energy  =      -1.2755510752682702 [Eh]
	 SCS Correlation Energy    =      -1.4096874375654360 [Eh]
	 SCS Total Energy          =   -7835.3193756042619498 [Eh]
	-----------------------------------------------------------

  Dipole Moment: [D]
     X:    -0.0000      Y:    -1.5627      Z:     1.4717     Total:     2.1466

*** Psi4 exiting successfully. Buy a developer a beer!
