                               Psi4 1.3.2 release

  ==> Input File <==

--------------------------------------------------------------------------
#psi4
#
memory 32 gb

molecule  {
0 1
 Br        0.0000490     1.5373210     0.0922820
 Br       -2.8929142    -0.4540866    -0.1778317
 Br        2.8699250    -0.4854600    -0.2337790
  C       -0.0000100    -0.4202620     0.0447250
  C       -1.2431490    -0.9529940     0.7369810
  C        1.2431140    -0.9530360     0.7369740
  H       -0.0000150    -0.6893630    -1.0135150
  H       -1.3458500    -0.5442600     1.7429190
  H       -1.2174500    -2.0447140     0.7751110
  H        1.3458210    -0.5443190     1.7429160
  H        1.2173960    -2.0447570     0.7750850
units angstrom
no_reorient  #important for SAPT in psi4, default
symmetry c1  #important for SAPT in psi4, default
}

set PROPERTIES_ORIGIN ["COM"]
properties('MP2/aug-cc-pvtz', properties = ['dipole'])
--------------------------------------------------------------------------

    Molecular point group: c1
  Charge       = 0
  Multiplicity = 1
  Basis Set: AUG-CC-PVTZ
    Blend: AUG-CC-PVTZ
  Basis Set: (AUG-CC-PVTZ AUX)
    Blend: AUG-CC-PVTZ-JKFIT

    Orbital Energies [Eh]
    ---------------------

    Doubly Occupied:

       1A   -490.026644     2A   -490.026305     3A   -490.022718
       4A    -65.166478     5A    -65.166134     6A    -65.162668
       7A    -58.521806     8A    -58.521462     9A    -58.520363
      10A    -58.520336    11A    -58.520020    12A    -58.519994
      13A    -58.517970    14A    -58.516551    15A    -58.516513
      16A    -11.332333    17A    -11.321714    18A    -11.321255
      19A     -9.839169    20A     -9.838823    21A     -9.835403
      22A     -7.450805    23A     -7.450457    24A     -7.446980
      25A     -7.443958    26A     -7.443800    27A     -7.443608
      28A     -7.443457    29A     -7.440231    30A     -7.440061
      31A     -3.194480    32A     -3.194131    33A     -3.190989
      34A     -3.190803    35A     -3.190639    36A     -3.190622
      37A     -3.190459    38A     -3.187212    39A     -3.186948
      40A     -3.181979    41A     -3.181978    42A     -3.181634
      43A     -3.181633    44A     -3.178274    45A     -3.178272
      46A     -1.163702    47A     -1.075040    48A     -1.026803
      49A     -0.970681    50A     -0.897608    51A     -0.824376
      52A     -0.687295    53A     -0.639281    54A     -0.624884
      55A     -0.605923    56A     -0.527441    57A     -0.496992
      58A     -0.493483    59A     -0.429606    60A     -0.428530
      61A     -0.418032    62A     -0.411129    63A     -0.408248
      64A     -0.396578

  @DF-RHF Final Energy: -7833.94167467317311

   => Energetics <=

    Nuclear Repulsion Energy =           1008.4590512042548198
    One-Electron Energy =              -12918.6740550831418659
    Two-Electron Energy =                4076.2733292057146173
    Total Energy =                      -7833.9416746731731109
  Basis Set: (AUG-CC-PVTZ AUX)
    Blend: AUG-CC-PVTZ-RI
    Molecular point group: c1

    Geometry (in Angstrom), charge = 0, multiplicity = 1:

       Center              X                  Y                   Z               Mass
    ------------   -----------------  -----------------  -----------------  -----------------
         BR           0.006568364405     1.489276313708     0.102803236539    78.918337600000
         BR          -2.886394835595    -0.502131286292    -0.167310463461    78.918337600000
         BR           2.876444364405    -0.533504686292    -0.223257763461    78.918337600000
         C            0.006509364405    -0.468306686292     0.055246236539    12.000000000000
         C           -1.236629635595    -1.001038686292     0.747502236539    12.000000000000
         C            1.249633364405    -1.001080686292     0.747495236539    12.000000000000
         H            0.006504364405    -0.737407686292    -1.002993763461     1.007825032230
         H           -1.339330635595    -0.592304686292     1.753440236539     1.007825032230
         H           -1.210930635595    -2.092758686292     0.785632236539     1.007825032230
         H            1.352340364405    -0.592363686292     1.753437236539     1.007825032230
         H            1.223915364405    -2.092801686292     0.785606236539     1.007825032230

  Basis Set: AUG-CC-PVTZ
    Blend: AUG-CC-PVTZ
  Basis Set: (AUG-CC-PVTZ AUX)
    Blend: AUG-CC-PVTZ-JKFIT
	 Reference Energy          =   -7833.9416746731731109 [Eh]
	 Singles Energy            =      -0.0000000000000000 [Eh]
	 Same-Spin Energy          =      -0.3997287574200201 [Eh]
	 Opposite-Spin Energy      =      -1.0593252970801703 [Eh]
	 Correlation Energy        =      -1.4590540545001904 [Eh]
	 Total Energy              =   -7835.4007287276735951 [Eh]

	 ================> DF-SCS-MP2 Energies <==================
	-----------------------------------------------------------
	 SCS Same-Spin Scale       =       0.3333333333333333 [-]
	 SCS Opposite-Spin Scale   =       1.2000000000000000 [-]
	 SCS Same-Spin Energy      =      -0.1332429191400067 [Eh]
	 SCS Opposite-Spin Energy  =      -1.2711903564962044 [Eh]
	 SCS Correlation Energy    =      -1.4044332756362110 [Eh]
	 SCS Total Energy          =   -7835.3461079488097312 [Eh]
	-----------------------------------------------------------

  Dipole Moment: [D]
     X:     0.0217      Y:    -2.1329      Z:     1.4263     Total:     2.5660

*** Psi4 exiting successfully. Buy a developer a beer!
