                               Psi4 1.3.2 release

  ==> Input File <==

--------------------------------------------------------------------------
#psi4
#
memory 32 gb

molecule  {
0 1
 Br        0.0000490     1.5373210     0.0922820
 Br       -2.7914505    -0.4221137    -0.3253017
 Br        2.8699250    -0.4854600    -0.2337790
  C       -0.0000100    -0.4202620     0.0447250
  C       -1.2431490    -0.9529940     0.7369810
  C        1.2431140    -0.9530360     0.7369740
  H       -0.0000150    -0.6893630    -1.0135150
  H       -1.3458500    -0.5442600     1.7429190
  H       -1.2174500    -2.0447140     0.7751110
  H        1.3458210    -0.5443190     1.7429160
  H        1.2173960    -2.0447570     0.7750850
units angstrom
no_reorient  #important for SAPT in psi4, default
symmetry c1  #important for SAPT in psi4, default
}

set PROPERTIES_ORIGIN ["COM"]
properties('MP2/aug-cc-pvtz', properties = ['dipole'])
--------------------------------------------------------------------------

    Molecular point group: c1
  Charge       = 0
  Multiplicity = 1
  Basis Set: AUG-CC-PVTZ
    Blend: AUG-CC-PVTZ
  Basis Set: (AUG-CC-PVTZ AUX)
    Blend: AUG-CC-PVTZ-JKFIT

    Orbital Energies [Eh]
    ---------------------

    Doubly Occupied:

       1A   -490.026031     2A   -490.025612     3A   -490.021993
       4A    -65.165912     5A    -65.165454     6A    -65.161956
       7A    -58.521237     8A    -58.520778     9A    -58.519789
      10A    -58.519764    11A    -58.519342    12A    -58.519315
      13A    -58.517257    14A    -58.515839    15A    -58.515799
      16A    -11.330763    17A    -11.321846    18A    -11.320365
      19A     -9.838650    20A     -9.838151    21A     -9.834705
      22A     -7.450298    23A     -7.449774    24A     -7.446285
      25A     -7.443429    26A     -7.443279    27A     -7.442950
      28A     -7.442794    29A     -7.439538    30A     -7.439359
      31A     -3.193978    32A     -3.193441    33A     -3.190477
      34A     -3.190287    35A     -3.189962    36A     -3.189931
      37A     -3.189777    38A     -3.186525    39A     -3.186243
      40A     -3.181436    41A     -3.181434    42A     -3.180984
      43A     -3.180983    44A     -3.177571    45A     -3.177568
      46A     -1.164464    47A     -1.074969    48A     -1.024794
      49A     -0.970059    50A     -0.897472    51A     -0.824863
      52A     -0.686918    53A     -0.639983    54A     -0.624682
      55A     -0.604200    56A     -0.528590    57A     -0.496239
      58A     -0.492426    59A     -0.431364    60A     -0.428645
      61A     -0.418450    62A     -0.410104    63A     -0.407222
      64A     -0.393820

  @DF-RHF Final Energy: -7833.93999142160465

   => Energetics <=

    Nuclear Repulsion Energy =           1016.7576343566230435
    One-Electron Energy =              -12935.3390091344535904
    Two-Electron Energy =                4084.6413833562260152
    Total Energy =                      -7833.9399914216046454
  Basis Set: (AUG-CC-PVTZ AUX)
    Blend: AUG-CC-PVTZ-RI
    Molecular point group: c1

    Geometry (in Angstrom), charge = 0, multiplicity = 1:

       Center              X                  Y                   Z               Mass
    ------------   -----------------  -----------------  -----------------  -----------------
         BR          -0.022256385424     1.480193155458     0.144697883169    78.918337600000
         BR          -2.813755885424    -0.479241544542    -0.272885816831    78.918337600000
         BR           2.847619614576    -0.542587844542    -0.181363116831    78.918337600000
         C           -0.022315385424    -0.477389844542     0.097140883169    12.000000000000
         C           -1.265454385424    -1.010121844542     0.789396883169    12.000000000000
         C            1.220808614576    -1.010163844542     0.789389883169    12.000000000000
         H           -0.022320385424    -0.746490844542    -0.961099116831     1.007825032230
         H           -1.368155385424    -0.601387844542     1.795334883169     1.007825032230
         H           -1.239755385424    -2.101841844542     0.827526883169     1.007825032230
         H            1.323515614576    -0.601446844542     1.795331883169     1.007825032230
         H            1.195090614576    -2.101884844542     0.827500883169     1.007825032230

  Basis Set: AUG-CC-PVTZ
    Blend: AUG-CC-PVTZ
  Basis Set: (AUG-CC-PVTZ AUX)
    Blend: AUG-CC-PVTZ-JKFIT
	 Reference Energy          =   -7833.9399914216046454 [Eh]
	 Singles Energy            =      -0.0000000000000000 [Eh]
	 Same-Spin Energy          =      -0.4002515224313276 [Eh]
	 Opposite-Spin Energy      =      -1.0600342920391892 [Eh]
	 Correlation Energy        =      -1.4602858144705169 [Eh]
	 Total Energy              =   -7835.4002772360754534 [Eh]

	 ================> DF-SCS-MP2 Energies <==================
	-----------------------------------------------------------
	 SCS Same-Spin Scale       =       0.3333333333333333 [-]
	 SCS Opposite-Spin Scale   =       1.2000000000000000 [-]
	 SCS Same-Spin Energy      =      -0.1334171741437759 [Eh]
	 SCS Opposite-Spin Energy  =      -1.2720411504470270 [Eh]
	 SCS Correlation Energy    =      -1.4054583245908030 [Eh]
	 SCS Total Energy          =   -7835.3454497461952997 [Eh]
	-----------------------------------------------------------

  Dipole Moment: [D]
     X:    -0.0856      Y:    -2.1393      Z:     1.5043     Total:     2.6167

*** Psi4 exiting successfully. Buy a developer a beer!
