                               Psi4 1.3.2 release

  ==> Input File <==

--------------------------------------------------------------------------
#psi4
#
memory 32 gb

molecule  {
0 1
 Br       -0.1779965     1.5241503     0.1929634
 Br       -2.8699640    -0.4854280    -0.2337770
 Br        2.8699250    -0.4854600    -0.2337790
  C       -0.0000100    -0.4202620     0.0447250
  C       -1.2431490    -0.9529940     0.7369810
  C        1.2431140    -0.9530360     0.7369740
  H       -0.0000150    -0.6893630    -1.0135150
  H       -1.3458500    -0.5442600     1.7429190
  H       -1.2174500    -2.0447140     0.7751110
  H        1.3458210    -0.5443190     1.7429160
  H        1.2173960    -2.0447570     0.7750850
units angstrom
no_reorient  #important for SAPT in psi4, default
symmetry c1  #important for SAPT in psi4, default
}

set PROPERTIES_ORIGIN ["COM"]
properties('MP2/aug-cc-pvtz', properties = ['dipole'])
--------------------------------------------------------------------------

    Molecular point group: c1
  Charge       = 0
  Multiplicity = 1
  Basis Set: AUG-CC-PVTZ
    Blend: AUG-CC-PVTZ
  Basis Set: (AUG-CC-PVTZ AUX)
    Blend: AUG-CC-PVTZ-JKFIT

    Orbital Energies [Eh]
    ---------------------

    Doubly Occupied:

       1A   -490.027816     2A   -490.025092     3A   -490.022912
       4A    -65.167636     5A    -65.164953     6A    -65.162910
       7A    -58.522964     8A    -58.521523     9A    -58.521501
      10A    -58.520276    11A    -58.518839    12A    -58.518806
      13A    -58.518209    14A    -58.516787    15A    -58.516745
      16A    -11.332421    17A    -11.322944    18A    -11.319114
      19A     -9.840311    20A     -9.837673    21A     -9.835699
      22A     -7.451936    23A     -7.449305    24A     -7.447286
      25A     -7.445096    26A     -7.444959    27A     -7.442480
      28A     -7.442294    29A     -7.440526    30A     -7.440345
      31A     -3.195603    32A     -3.192984    33A     -3.192107
      34A     -3.191955    35A     -3.190932    36A     -3.189514
      37A     -3.189283    38A     -3.187521    39A     -3.187243
      40A     -3.183142    41A     -3.183140    42A     -3.180484
      43A     -3.180481    44A     -3.178546    45A     -3.178542
      46A     -1.165034    47A     -1.075506    48A     -1.026018
      49A     -0.970031    50A     -0.897618    51A     -0.825501
      52A     -0.687378    53A     -0.639912    54A     -0.624980
      55A     -0.604819    56A     -0.527767    57A     -0.497418
      58A     -0.493148    59A     -0.433225    60A     -0.425518
      61A     -0.419221    62A     -0.411168    63A     -0.408334
      64A     -0.395205

  @DF-RHF Final Energy: -7833.93889817430863

   => Energetics <=

    Nuclear Repulsion Energy =           1010.2454726201502808
    One-Electron Energy =              -12922.2314781802233483
    Two-Electron Energy =                4078.0471073857647752
    Total Energy =                      -7833.9388981743086333
  Basis Set: (AUG-CC-PVTZ AUX)
    Blend: AUG-CC-PVTZ-RI
    Molecular point group: c1

    Geometry (in Angstrom), charge = 0, multiplicity = 1:

       Center              X                  Y                   Z               Mass
    ------------   -----------------  -----------------  -----------------  -----------------
         BR          -0.127416222951     1.488751024302     0.190775589946    78.918337600000
         BR          -2.819383722951    -0.520827275698    -0.235964810054    78.918337600000
         BR           2.920505277049    -0.520859275698    -0.235966810054    78.918337600000
         C            0.050570277049    -0.455661275698     0.042537189946    12.000000000000
         C           -1.192568722951    -0.988393275698     0.734793189946    12.000000000000
         C            1.293694277049    -0.988435275698     0.734786189946    12.000000000000
         H            0.050565277049    -0.724762275698    -1.015702810054     1.007825032230
         H           -1.295269722951    -0.579659275698     1.740731189946     1.007825032230
         H           -1.166869722951    -2.080113275698     0.772923189946     1.007825032230
         H            1.396401277049    -0.579718275698     1.740728189946     1.007825032230
         H            1.267976277049    -2.080156275698     0.772897189946     1.007825032230

  Basis Set: AUG-CC-PVTZ
    Blend: AUG-CC-PVTZ
  Basis Set: (AUG-CC-PVTZ AUX)
    Blend: AUG-CC-PVTZ-JKFIT
	 Reference Energy          =   -7833.9388981743086333 [Eh]
	 Singles Energy            =      -0.0000000000000000 [Eh]
	 Same-Spin Energy          =      -0.4000868929507062 [Eh]
	 Opposite-Spin Energy      =      -1.0598857656605500 [Eh]
	 Correlation Energy        =      -1.4599726586112562 [Eh]
	 Total Energy              =   -7835.3988708329197834 [Eh]

	 ================> DF-SCS-MP2 Energies <==================
	-----------------------------------------------------------
	 SCS Same-Spin Scale       =       0.3333333333333333 [-]
	 SCS Opposite-Spin Scale   =       1.2000000000000000 [-]
	 SCS Same-Spin Energy      =      -0.1333622976502354 [Eh]
	 SCS Opposite-Spin Energy  =      -1.2718629187926600 [Eh]
	 SCS Correlation Energy    =      -1.4052252164428953 [Eh]
	 SCS Total Energy          =   -7835.3441233907515198 [Eh]
	-----------------------------------------------------------

  Dipole Moment: [D]
     X:     0.0919      Y:    -2.1067      Z:     1.4119     Total:     2.5378

*** Psi4 exiting successfully. Buy a developer a beer!
