                               Psi4 1.3.2 release

  ==> Input File <==

--------------------------------------------------------------------------
#psi4
#
memory 32 gb

molecule  {
0 1
 Br        0.0000490     1.5373210     0.0922820
 Br       -2.8450318    -0.5173391    -0.2885396
 Br        2.8699250    -0.4854600    -0.2337790
  C       -0.0000100    -0.4202620     0.0447250
  C       -1.2431490    -0.9529940     0.7369810
  C        1.2431140    -0.9530360     0.7369740
  H       -0.0000150    -0.6893630    -1.0135150
  H       -1.3458500    -0.5442600     1.7429190
  H       -1.2174500    -2.0447140     0.7751110
  H        1.3458210    -0.5443190     1.7429160
  H        1.2173960    -2.0447570     0.7750850
units angstrom
no_reorient  #important for SAPT in psi4, default
symmetry c1  #important for SAPT in psi4, default
}

set PROPERTIES_ORIGIN ["COM"]
properties('MP2/aug-cc-pvtz', properties = ['dipole'])
--------------------------------------------------------------------------

    Molecular point group: c1
  Charge       = 0
  Multiplicity = 1
  Basis Set: AUG-CC-PVTZ
    Blend: AUG-CC-PVTZ
  Basis Set: (AUG-CC-PVTZ AUX)
    Blend: AUG-CC-PVTZ-JKFIT

    Orbital Energies [Eh]
    ---------------------

    Doubly Occupied:

       1A   -490.026638     2A   -490.026264     3A   -490.022746
       4A    -65.166480     5A    -65.166100     6A    -65.162694
       7A    -58.521807     8A    -58.521427     9A    -58.520366
      10A    -58.520338    11A    -58.519987    12A    -58.519960
      13A    -58.517995    14A    -58.516577    15A    -58.516541
      16A    -11.331709    17A    -11.321626    18A    -11.321164
      19A     -9.839179    20A     -9.838794    21A     -9.835424
      22A     -7.450813    23A     -7.450424    24A     -7.446996
      25A     -7.443972    26A     -7.443811    27A     -7.443587
      28A     -7.443431    29A     -7.440252    30A     -7.440090
      31A     -3.194486    32A     -3.194095    33A     -3.190999
      34A     -3.190810    35A     -3.190635    36A     -3.190609
      37A     -3.190425    38A     -3.187224    39A     -3.186971
      40A     -3.181992    41A     -3.181991    42A     -3.181614
      43A     -3.181613    44A     -3.178305    45A     -3.178302
      46A     -1.163999    47A     -1.075105    48A     -1.026546
      49A     -0.970153    50A     -0.897705    51A     -0.824761
      52A     -0.687258    53A     -0.639548    54A     -0.624897
      55A     -0.604974    56A     -0.528286    57A     -0.496854
      58A     -0.493059    59A     -0.429595    60A     -0.428213
      61A     -0.418866    62A     -0.410940    63A     -0.407796
      64A     -0.397065

  @DF-RHF Final Energy: -7833.94162612419404

   => Energetics <=

    Nuclear Repulsion Energy =           1009.7658841531630287
    One-Electron Energy =              -12921.2892492218525149
    Two-Electron Energy =                4077.5817389444955552
    Total Energy =                      -7833.9416261241940447
  Basis Set: (AUG-CC-PVTZ AUX)
    Blend: AUG-CC-PVTZ-RI
    Molecular point group: c1

    Geometry (in Angstrom), charge = 0, multiplicity = 1:

       Center              X                  Y                   Z               Mass
    ------------   -----------------  -----------------  -----------------  -----------------
         BR          -0.007034512300     1.507245671110     0.134254164522    78.918337600000
         BR          -2.852115312300    -0.547414428890    -0.246567435478    78.918337600000
         BR           2.862841487700    -0.515535328890    -0.191806835478    78.918337600000
         C           -0.007093512300    -0.450337328890     0.086697164522    12.000000000000
         C           -1.250232512300    -0.983069328890     0.778953164522    12.000000000000
         C            1.236030487700    -0.983111328890     0.778946164522    12.000000000000
         H           -0.007098512300    -0.719438328890    -0.971542835478     1.007825032230
         H           -1.352933512300    -0.574335328890     1.784891164522     1.007825032230
         H           -1.224533512300    -2.074789328890     0.817083164522     1.007825032230
         H            1.338737487700    -0.574394328890     1.784888164522     1.007825032230
         H            1.210312487700    -2.074832328890     0.817057164522     1.007825032230

  Basis Set: AUG-CC-PVTZ
    Blend: AUG-CC-PVTZ
  Basis Set: (AUG-CC-PVTZ AUX)
    Blend: AUG-CC-PVTZ-JKFIT
	 Reference Energy          =   -7833.9416261241940447 [Eh]
	 Singles Energy            =      -0.0000000000000000 [Eh]
	 Same-Spin Energy          =      -0.3998056886096077 [Eh]
	 Opposite-Spin Energy      =      -1.0594529101053110 [Eh]
	 Correlation Energy        =      -1.4592585987149187 [Eh]
	 Total Energy              =   -7835.4008847229088133 [Eh]

	 ================> DF-SCS-MP2 Energies <==================
	-----------------------------------------------------------
	 SCS Same-Spin Scale       =       0.3333333333333333 [-]
	 SCS Opposite-Spin Scale   =       1.2000000000000000 [-]
	 SCS Same-Spin Energy      =      -0.1332685628698692 [Eh]
	 SCS Opposite-Spin Energy  =      -1.2713434921263731 [Eh]
	 SCS Correlation Energy    =      -1.4046120549962424 [Eh]
	 SCS Total Energy          =   -7835.3462381791905500 [Eh]
	-----------------------------------------------------------

  Dipole Moment: [D]
     X:    -0.0230      Y:    -2.1085      Z:     1.4867     Total:     2.5800

*** Psi4 exiting successfully. Buy a developer a beer!
