                               Psi4 1.3.2 release

  ==> Input File <==

--------------------------------------------------------------------------
#psi4
#
memory 32 gb

molecule  {
0 1
 Br        0.0000490     1.5373210     0.0922820
 Br       -2.8816887    -0.4696837    -0.2059480
 Br        2.8699250    -0.4854600    -0.2337790
  C       -0.0000100    -0.4202620     0.0447250
  C       -1.2431490    -0.9529940     0.7369810
  C        1.2431140    -0.9530360     0.7369740
  H       -0.0000150    -0.6893630    -1.0135150
  H       -1.3458500    -0.5442600     1.7429190
  H       -1.2174500    -2.0447140     0.7751110
  H        1.3458210    -0.5443190     1.7429160
  H        1.2173960    -2.0447570     0.7750850
units angstrom
no_reorient  #important for SAPT in psi4, default
symmetry c1  #important for SAPT in psi4, default
}

set PROPERTIES_ORIGIN ["COM"]
properties('MP2/aug-cc-pvtz', properties = ['dipole'])
--------------------------------------------------------------------------

    Molecular point group: c1
  Charge       = 0
  Multiplicity = 1
  Basis Set: AUG-CC-PVTZ
    Blend: AUG-CC-PVTZ
  Basis Set: (AUG-CC-PVTZ AUX)
    Blend: AUG-CC-PVTZ-JKFIT

    Orbital Energies [Eh]
    ---------------------

    Doubly Occupied:

       1A   -490.026553     2A   -490.026380     3A   -490.022725
       4A    -65.166388     5A    -65.166212     6A    -65.162674
       7A    -58.521716     8A    -58.521540     9A    -58.520274
      10A    -58.520247    11A    -58.520098    12A    -58.520071
      13A    -58.517975    14A    -58.516557    15A    -58.516520
      16A    -11.332181    17A    -11.321584    18A    -11.321354
      19A     -9.839080    20A     -9.838902    21A     -9.835407
      22A     -7.450714    23A     -7.450535    24A     -7.446983
      25A     -7.443869    26A     -7.443712    27A     -7.443690
      28A     -7.443536    29A     -7.440236    30A     -7.440068
      31A     -3.194388    32A     -3.194209    33A     -3.190898
      34A     -3.190718    35A     -3.190713    36A     -3.190625
      37A     -3.190536    38A     -3.187215    39A     -3.186953
      40A     -3.181892    41A     -3.181891    42A     -3.181716
      43A     -3.181714    44A     -3.178282    45A     -3.178279
      46A     -1.163768    47A     -1.075043    48A     -1.026734
      49A     -0.970555    50A     -0.897636    51A     -0.824471
      52A     -0.687284    53A     -0.639346    54A     -0.624866
      55A     -0.605693    56A     -0.527658    57A     -0.496952
      58A     -0.493413    59A     -0.429604    60A     -0.428456
      61A     -0.418238    62A     -0.411102    63A     -0.408148
      64A     -0.396699

  @DF-RHF Final Energy: -7833.94179481542324

   => Energetics <=

    Nuclear Repulsion Energy =           1008.7619369058874099
    One-Electron Energy =              -12919.2805155818477942
    Two-Electron Energy =                4076.5767838605379438
    Total Energy =                      -7833.9417948154232363
  Basis Set: (AUG-CC-PVTZ AUX)
    Blend: AUG-CC-PVTZ-RI
    Molecular point group: c1

    Geometry (in Angstrom), charge = 0, multiplicity = 1:

       Center              X                  Y                   Z               Mass
    ------------   -----------------  -----------------  -----------------  -----------------
         BR           0.003379320154     1.493707282671     0.110790776059    78.918337600000
         BR          -2.878358379846    -0.513297417329    -0.187439223941    78.918337600000
         BR           2.873255320154    -0.529073717329    -0.215270223941    78.918337600000
         C            0.003320320154    -0.463875717329     0.063233776059    12.000000000000
         C           -1.239818679846    -0.996607717329     0.755489776059    12.000000000000
         C            1.246444320154    -0.996649717329     0.755482776059    12.000000000000
         H            0.003315320154    -0.732976717329    -0.995006223941     1.007825032230
         H           -1.342519679846    -0.587873717329     1.761427776059     1.007825032230
         H           -1.214119679846    -2.088327717329     0.793619776059     1.007825032230
         H            1.349151320154    -0.587932717329     1.761424776059     1.007825032230
         H            1.220726320154    -2.088370717329     0.793593776059     1.007825032230

  Basis Set: AUG-CC-PVTZ
    Blend: AUG-CC-PVTZ
  Basis Set: (AUG-CC-PVTZ AUX)
    Blend: AUG-CC-PVTZ-JKFIT
	 Reference Energy          =   -7833.9417948154232363 [Eh]
	 Singles Energy            =      -0.0000000000000000 [Eh]
	 Same-Spin Energy          =      -0.3997397331982536 [Eh]
	 Opposite-Spin Energy      =      -1.0593428013304260 [Eh]
	 Correlation Energy        =      -1.4590825345286795 [Eh]
	 Total Energy              =   -7835.4008773499517702 [Eh]

	 ================> DF-SCS-MP2 Energies <==================
	-----------------------------------------------------------
	 SCS Same-Spin Scale       =       0.3333333333333333 [-]
	 SCS Opposite-Spin Scale   =       1.2000000000000000 [-]
	 SCS Same-Spin Energy      =      -0.1332465777327512 [Eh]
	 SCS Opposite-Spin Energy  =      -1.2712113615965113 [Eh]
	 SCS Correlation Energy    =      -1.4044579393292624 [Eh]
	 SCS Total Energy          =   -7835.3462527547526406 [Eh]
	-----------------------------------------------------------

  Dipole Moment: [D]
     X:     0.0110      Y:    -2.1269      Z:     1.4417     Total:     2.5695

*** Psi4 exiting successfully. Buy a developer a beer!
