                               Psi4 1.3.2 release

  ==> Input File <==

--------------------------------------------------------------------------
#psi4
#
memory 32 gb

molecule  {
0 1
 Br        0.0594939     1.5369454     0.0585510
 Br       -2.8699640    -0.4854280    -0.2337770
 Br        2.8699250    -0.4854600    -0.2337790
  C       -0.0000100    -0.4202620     0.0447250
  C       -1.2431490    -0.9529940     0.7369810
  C        1.2431140    -0.9530360     0.7369740
  H       -0.0000150    -0.6893630    -1.0135150
  H       -1.3458500    -0.5442600     1.7429190
  H       -1.2174500    -2.0447140     0.7751110
  H        1.3458210    -0.5443190     1.7429160
  H        1.2173960    -2.0447570     0.7750850
units angstrom
no_reorient  #important for SAPT in psi4, default
symmetry c1  #important for SAPT in psi4, default
}

set PROPERTIES_ORIGIN ["COM"]
properties('MP2/aug-cc-pvtz', properties = ['dipole'])
--------------------------------------------------------------------------

    Molecular point group: c1
  Charge       = 0
  Multiplicity = 1
  Basis Set: AUG-CC-PVTZ
    Blend: AUG-CC-PVTZ
  Basis Set: (AUG-CC-PVTZ AUX)
    Blend: AUG-CC-PVTZ-JKFIT

    Orbital Energies [Eh]
    ---------------------

    Doubly Occupied:

       1A   -490.026893     2A   -490.025955     3A   -490.022568
       4A    -65.166723     5A    -65.165799     6A    -65.162514
       7A    -58.522051     8A    -58.521125     9A    -58.520608
      10A    -58.520583    11A    -58.519684    12A    -58.519655
      13A    -58.517816    14A    -58.516396    15A    -58.516360
      16A    -11.331871    17A    -11.322244    18A    -11.320950
      19A     -9.839409    20A     -9.838501    21A     -9.835246
      22A     -7.451043    23A     -7.450137    24A     -7.446822
      25A     -7.444195    26A     -7.444047    27A     -7.443294
      28A     -7.443130    29A     -7.440070    30A     -7.439908
      31A     -3.194715    32A     -3.193813    33A     -3.191220
      34A     -3.191049    35A     -3.190464    36A     -3.190327
      37A     -3.190129    38A     -3.187051    39A     -3.186794
      40A     -3.182224    41A     -3.182223    42A     -3.181310
      43A     -3.181308    44A     -3.178118    45A     -3.178116
      46A     -1.163637    47A     -1.075093    48A     -1.026628
      49A     -0.970638    50A     -0.897657    51A     -0.824282
      52A     -0.687240    53A     -0.639370    54A     -0.624904
      55A     -0.605646    56A     -0.527985    57A     -0.496706
      58A     -0.493315    59A     -0.430338    60A     -0.427812
      61A     -0.418245    62A     -0.411098    63A     -0.408014
      64A     -0.396177

  @DF-RHF Final Energy: -7833.94153806522172

   => Energetics <=

    Nuclear Repulsion Energy =           1009.2038612481171640
    One-Electron Energy =              -12920.1723101712068456
    Two-Electron Energy =                4077.0269108578677333
    Total Energy =                      -7833.9415380652217209
  Basis Set: (AUG-CC-PVTZ AUX)
    Blend: AUG-CC-PVTZ-RI
    Molecular point group: c1

    Geometry (in Angstrom), charge = 0, multiplicity = 1:

       Center              X                  Y                   Z               Mass
    ------------   -----------------  -----------------  -----------------  -----------------
         BR           0.042605699487     1.497911173512     0.094548312348    78.918337600000
         BR          -2.886852200513    -0.524462226488    -0.197779687652    78.918337600000
         BR           2.853036799487    -0.524494226488    -0.197781687652    78.918337600000
         C           -0.016898200513    -0.459296226488     0.080722312348    12.000000000000
         C           -1.260037200513    -0.992028226488     0.772978312348    12.000000000000
         C            1.226225799487    -0.992070226488     0.772971312348    12.000000000000
         H           -0.016903200513    -0.728397226488    -0.977517687652     1.007825032230
         H           -1.362738200513    -0.583294226488     1.778916312348     1.007825032230
         H           -1.234338200513    -2.083748226488     0.811108312348     1.007825032230
         H            1.328932799487    -0.583353226488     1.778913312348     1.007825032230
         H            1.200507799487    -2.083791226488     0.811082312348     1.007825032230

  Basis Set: AUG-CC-PVTZ
    Blend: AUG-CC-PVTZ
  Basis Set: (AUG-CC-PVTZ AUX)
    Blend: AUG-CC-PVTZ-JKFIT
	 Reference Energy          =   -7833.9415380652217209 [Eh]
	 Singles Energy            =      -0.0000000000000000 [Eh]
	 Same-Spin Energy          =      -0.3997591385293695 [Eh]
	 Opposite-Spin Energy      =      -1.0593649679471591 [Eh]
	 Correlation Energy        =      -1.4591241064765286 [Eh]
	 Total Energy              =   -7835.4006621716980590 [Eh]

	 ================> DF-SCS-MP2 Energies <==================
	-----------------------------------------------------------
	 SCS Same-Spin Scale       =       0.3333333333333333 [-]
	 SCS Opposite-Spin Scale   =       1.2000000000000000 [-]
	 SCS Same-Spin Energy      =      -0.1332530461764565 [Eh]
	 SCS Opposite-Spin Energy  =      -1.2712379615365907 [Eh]
	 SCS Correlation Energy    =      -1.4044910077130472 [Eh]
	 SCS Total Energy          =   -7835.3460290729344706 [Eh]
	-----------------------------------------------------------

  Dipole Moment: [D]
     X:    -0.0312      Y:    -2.1217      Z:     1.4716     Total:     2.5823

*** Psi4 exiting successfully. Buy a developer a beer!
