                               Psi4 1.3.2 release

  ==> Input File <==

--------------------------------------------------------------------------
#psi4
#
memory 32 gb

molecule  {
0 1
 Br        0.0000487     1.5344688     0.1605717
 Br       -2.8699640    -0.4854280    -0.2337770
 Br        2.8699250    -0.4854600    -0.2337790
  C       -0.0000100    -0.4202620     0.0447250
  C       -1.2431490    -0.9529940     0.7369810
  C        1.2431140    -0.9530360     0.7369740
  H       -0.0000150    -0.6893630    -1.0135150
  H       -1.3458500    -0.5442600     1.7429190
  H       -1.2174500    -2.0447140     0.7751110
  H        1.3458210    -0.5443190     1.7429160
  H        1.2173960    -2.0447570     0.7750850
units angstrom
no_reorient  #important for SAPT in psi4, default
symmetry c1  #important for SAPT in psi4, default
}

set PROPERTIES_ORIGIN ["COM"]
properties('MP2/aug-cc-pvtz', properties = ['dipole'])
--------------------------------------------------------------------------

    Molecular point group: c1
  Charge       = 0
  Multiplicity = 1
  Basis Set: AUG-CC-PVTZ
    Blend: AUG-CC-PVTZ
  Basis Set: (AUG-CC-PVTZ AUX)
    Blend: AUG-CC-PVTZ-JKFIT

    Orbital Energies [Eh]
    ---------------------

    Doubly Occupied:

       1A   -490.026514     2A   -490.026513     3A   -490.023014
       4A    -65.166348     5A    -65.166347     6A    -65.162976
       7A    -58.521675     8A    -58.521674     9A    -58.520235
      10A    -58.520234    11A    -58.520208    12A    -58.520207
      13A    -58.518277    14A    -58.516859    15A    -58.516821
      16A    -11.332321    17A    -11.321159    18A    -11.321134
      19A     -9.839037    20A     -9.839037    21A     -9.835721
      22A     -7.450667    23A     -7.450666    24A     -7.447297
      25A     -7.443831    26A     -7.443831    27A     -7.443673
      28A     -7.443673    29A     -7.440555    30A     -7.440380
      31A     -3.194339    32A     -3.194338    33A     -3.190937
      34A     -3.190853    35A     -3.190852    36A     -3.190669
      37A     -3.190667    38A     -3.187530    39A     -3.187265
      40A     -3.181858    41A     -3.181857    42A     -3.181857
      43A     -3.181856    44A     -3.178596    45A     -3.178592
      46A     -1.164369    47A     -1.075070    48A     -1.026638
      49A     -0.970027    50A     -0.897664    51A     -0.825157
      52A     -0.687346    53A     -0.639564    54A     -0.624820
      55A     -0.605080    56A     -0.527708    57A     -0.497246
      58A     -0.493296    59A     -0.429923    60A     -0.427937
      61A     -0.418928    62A     -0.411022    63A     -0.408041
      64A     -0.397517

  @DF-RHF Final Energy: -7833.94158001432788

   => Energetics <=

    Nuclear Repulsion Energy =           1009.1116905731039424
    One-Electron Energy =              -12919.9659257535895449
    Two-Electron Energy =                4076.9126551661584017
    Total Energy =                      -7833.9415800143278830
  Basis Set: (AUG-CC-PVTZ AUX)
    Blend: AUG-CC-PVTZ-RI
    Molecular point group: c1

    Geometry (in Angstrom), charge = 0, multiplicity = 1:

       Center              X                  Y                   Z               Mass
    ------------   -----------------  -----------------  -----------------  -----------------
         BR           0.000048243759     1.496138149031     0.167586024788    78.918337600000
         BR          -2.869964456241    -0.523758650969    -0.226762675212    78.918337600000
         BR           2.869924543759    -0.523790650969    -0.226764675212    78.918337600000
         C           -0.000010456241    -0.458592650969     0.051739324788    12.000000000000
         C           -1.243149456241    -0.991324650969     0.743995324788    12.000000000000
         C            1.243113543759    -0.991366650969     0.743988324788    12.000000000000
         H           -0.000015456241    -0.727693650969    -1.006500675212     1.007825032230
         H           -1.345850456241    -0.582590650969     1.749933324788     1.007825032230
         H           -1.217450456241    -2.083044650969     0.782125324788     1.007825032230
         H            1.345820543759    -0.582649650969     1.749930324788     1.007825032230
         H            1.217395543759    -2.083087650969     0.782099324788     1.007825032230

  Basis Set: AUG-CC-PVTZ
    Blend: AUG-CC-PVTZ
  Basis Set: (AUG-CC-PVTZ AUX)
    Blend: AUG-CC-PVTZ-JKFIT
	 Reference Energy          =   -7833.9415800143278830 [Eh]
	 Singles Energy            =      -0.0000000000000000 [Eh]
	 Same-Spin Energy          =      -0.3998198132902086 [Eh]
	 Opposite-Spin Energy      =      -1.0594862957823434 [Eh]
	 Correlation Energy        =      -1.4593061090725521 [Eh]
	 Total Energy              =   -7835.4008861234005963 [Eh]

	 ================> DF-SCS-MP2 Energies <==================
	-----------------------------------------------------------
	 SCS Same-Spin Scale       =       0.3333333333333333 [-]
	 SCS Opposite-Spin Scale   =       1.2000000000000000 [-]
	 SCS Same-Spin Energy      =      -0.1332732710967362 [Eh]
	 SCS Opposite-Spin Energy  =      -1.2713835549388122 [Eh]
	 SCS Correlation Energy    =      -1.4046568260355483 [Eh]
	 SCS Total Energy          =   -7835.3462368403634173 [Eh]
	-----------------------------------------------------------

  Dipole Moment: [D]
     X:    -0.0000      Y:    -2.1168      Z:     1.4268     Total:     2.5527

*** Psi4 exiting successfully. Buy a developer a beer!
