                               Psi4 1.3.2 release

  ==> Input File <==

--------------------------------------------------------------------------
#psi4
#
memory 32 gb

molecule  {
0 1
 Br        0.0000490     1.5373210     0.0922820
 Br       -2.9062710    -0.5179591    -0.1862123
 Br        2.8699250    -0.4854600    -0.2337790
  C       -0.0000100    -0.4202620     0.0447250
  C       -1.2431490    -0.9529940     0.7369810
  C        1.2431140    -0.9530360     0.7369740
  H       -0.0000150    -0.6893630    -1.0135150
  H       -1.3458500    -0.5442600     1.7429190
  H       -1.2174500    -2.0447140     0.7751110
  H        1.3458210    -0.5443190     1.7429160
  H        1.2173960    -2.0447570     0.7750850
units angstrom
no_reorient  #important for SAPT in psi4, default
symmetry c1  #important for SAPT in psi4, default
}

set PROPERTIES_ORIGIN ["COM"]
properties('MP2/aug-cc-pvtz', properties = ['dipole'])
--------------------------------------------------------------------------

    Molecular point group: c1
  Charge       = 0
  Multiplicity = 1
  Basis Set: AUG-CC-PVTZ
    Blend: AUG-CC-PVTZ
  Basis Set: (AUG-CC-PVTZ AUX)
    Blend: AUG-CC-PVTZ-JKFIT

    Orbital Energies [Eh]
    ---------------------

    Doubly Occupied:

       1A   -490.026860     2A   -490.026658     3A   -490.023082
       4A    -65.166693     5A    -65.166477     6A    -65.163025
       7A    -58.522021     8A    -58.521805     9A    -58.520578
      10A    -58.520551    11A    -58.520365    12A    -58.520337
      13A    -58.518327    14A    -58.516909    15A    -58.516874
      16A    -11.332668    17A    -11.321946    18A    -11.321235
      19A     -9.839383    20A     -9.839154    21A     -9.835752
      22A     -7.451020    23A     -7.450783    24A     -7.447325
      25A     -7.444169    26A     -7.444012    27A     -7.443947
      28A     -7.443785    29A     -7.440579    30A     -7.440418
      31A     -3.194696    32A     -3.194454    33A     -3.191203
      34A     -3.191019    35A     -3.190971    36A     -3.190963
      37A     -3.190785    38A     -3.187551    39A     -3.187302
      40A     -3.182189    41A     -3.182188    42A     -3.181974
      43A     -3.181973    44A     -3.178633    45A     -3.178630
      46A     -1.163623    47A     -1.075148    48A     -1.027554
      49A     -0.970622    50A     -0.897734    51A     -0.824440
      52A     -0.687462    53A     -0.639203    54A     -0.624965
      55A     -0.606053    56A     -0.527498    57A     -0.497287
      58A     -0.493642    59A     -0.429659    60A     -0.427523
      61A     -0.418346    62A     -0.411445    63A     -0.408412
      64A     -0.398090

  @DF-RHF Final Energy: -7833.94202790940744

   => Energetics <=

    Nuclear Repulsion Energy =           1005.5011101523068646
    One-Electron Energy =              -12912.7263264407029055
    Two-Electron Energy =                4073.2831883789885978
    Total Energy =                      -7833.9420279094074431
  Basis Set: (AUG-CC-PVTZ AUX)
    Blend: AUG-CC-PVTZ-RI
    Molecular point group: c1

    Geometry (in Angstrom), charge = 0, multiplicity = 1:

       Center              X                  Y                   Z               Mass
    ------------   -----------------  -----------------  -----------------  -----------------
         BR           0.010362888147     1.507421806466     0.105184075188    78.918337600000
         BR          -2.895957111853    -0.547858293534    -0.173310224812    78.918337600000
         BR           2.880238888147    -0.515359193534    -0.220876924812    78.918337600000
         C            0.010303888147    -0.450161193534     0.057627075188    12.000000000000
         C           -1.232835111853    -0.982893193534     0.749883075188    12.000000000000
         C            1.253427888147    -0.982935193534     0.749876075188    12.000000000000
         H            0.010298888147    -0.719262193534    -1.000612924812     1.007825032230
         H           -1.335536111853    -0.574159193534     1.755821075188     1.007825032230
         H           -1.207136111853    -2.074613193534     0.788013075188     1.007825032230
         H            1.356134888147    -0.574218193534     1.755818075188     1.007825032230
         H            1.227709888147    -2.074656193534     0.787987075188     1.007825032230

  Basis Set: AUG-CC-PVTZ
    Blend: AUG-CC-PVTZ
  Basis Set: (AUG-CC-PVTZ AUX)
    Blend: AUG-CC-PVTZ-JKFIT
	 Reference Energy          =   -7833.9420279094074431 [Eh]
	 Singles Energy            =      -0.0000000000000000 [Eh]
	 Same-Spin Energy          =      -0.3995673826940733 [Eh]
	 Opposite-Spin Energy      =      -1.0591316470472669 [Eh]
	 Correlation Energy        =      -1.4586990297413402 [Eh]
	 Total Energy              =   -7835.4007269391486261 [Eh]

	 ================> DF-SCS-MP2 Energies <==================
	-----------------------------------------------------------
	 SCS Same-Spin Scale       =       0.3333333333333333 [-]
	 SCS Opposite-Spin Scale   =       1.2000000000000000 [-]
	 SCS Same-Spin Energy      =      -0.1331891275646911 [Eh]
	 SCS Opposite-Spin Energy  =      -1.2709579764567203 [Eh]
	 SCS Correlation Energy    =      -1.4041471040214113 [Eh]
	 SCS Total Energy          =   -7835.3461750134292743 [Eh]
	-----------------------------------------------------------

  Dipole Moment: [D]
     X:     0.0412      Y:    -2.1102      Z:     1.4314     Total:     2.5502

*** Psi4 exiting successfully. Buy a developer a beer!
