                               Psi4 1.3.2 release

  ==> Input File <==

--------------------------------------------------------------------------
#psi4
#
memory 32 gb

molecule  {
0 1
 Br        0.0000489     1.5361929     0.1264393
 Br       -2.8699640    -0.4854280    -0.2337770
 Br        2.8699250    -0.4854600    -0.2337790
  C       -0.0000100    -0.4202620     0.0447250
  C       -1.2431490    -0.9529940     0.7369810
  C        1.2431140    -0.9530360     0.7369740
  H       -0.0000150    -0.6893630    -1.0135150
  H       -1.3458500    -0.5442600     1.7429190
  H       -1.2174500    -2.0447140     0.7751110
  H        1.3458210    -0.5443190     1.7429160
  H        1.2173960    -2.0447570     0.7750850
units angstrom
no_reorient  #important for SAPT in psi4, default
symmetry c1  #important for SAPT in psi4, default
}

set PROPERTIES_ORIGIN ["COM"]
properties('MP2/aug-cc-pvtz', properties = ['dipole'])
--------------------------------------------------------------------------

    Molecular point group: c1
  Charge       = 0
  Multiplicity = 1
  Basis Set: AUG-CC-PVTZ
    Blend: AUG-CC-PVTZ
  Basis Set: (AUG-CC-PVTZ AUX)
    Blend: AUG-CC-PVTZ-JKFIT

    Orbital Energies [Eh]
    ---------------------

    Doubly Occupied:

       1A   -490.026487     2A   -490.026486     3A   -490.022872
       4A    -65.166322     5A    -65.166321     6A    -65.162827
       7A    -58.521649     8A    -58.521648     9A    -58.520208
      10A    -58.520207    11A    -58.520181    12A    -58.520180
      13A    -58.518128    14A    -58.516710    15A    -58.516672
      16A    -11.332176    17A    -11.321312    18A    -11.321286
      19A     -9.839012    20A     -9.839012    21A     -9.835565
      22A     -7.450644    23A     -7.450643    24A     -7.447140
      25A     -7.443805    26A     -7.443804    27A     -7.443647
      28A     -7.443647    29A     -7.440397    30A     -7.440226
      31A     -3.194317    32A     -3.194315    33A     -3.190829
      34A     -3.190828    35A     -3.190780    36A     -3.190645
      37A     -3.190643    38A     -3.187372    39A     -3.187110
      40A     -3.181830    41A     -3.181830    42A     -3.181829
      43A     -3.181829    44A     -3.178442    45A     -3.178438
      46A     -1.164097    47A     -1.075062    48A     -1.026649
      49A     -0.970229    50A     -0.897662    51A     -0.824862
      52A     -0.687310    53A     -0.639487    54A     -0.624841
      55A     -0.605264    56A     -0.527784    57A     -0.497098
      58A     -0.493307    59A     -0.429762    60A     -0.428161
      61A     -0.418681    62A     -0.411041    63A     -0.408060
      64A     -0.397166

  @DF-RHF Final Energy: -7833.94175533459565

   => Energetics <=

    Nuclear Repulsion Energy =           1009.0909809132990631
    One-Electron Energy =              -12919.9319340909933089
    Two-Electron Energy =                4076.8991978430981362
    Total Energy =                      -7833.9417553345956549
  Basis Set: (AUG-CC-PVTZ AUX)
    Blend: AUG-CC-PVTZ-RI
    Molecular point group: c1

    Geometry (in Angstrom), charge = 0, multiplicity = 1:

       Center              X                  Y                   Z               Mass
    ------------   -----------------  -----------------  -----------------  -----------------
         BR           0.000048386941     1.497372450697     0.143150273847    78.918337600000
         BR          -2.869964513059    -0.524248449303    -0.217066026153    78.918337600000
         BR           2.869924486941    -0.524280449303    -0.217068026153    78.918337600000
         C           -0.000010513059    -0.459082449303     0.061435973847    12.000000000000
         C           -1.243149513059    -0.991814449303     0.753691973847    12.000000000000
         C            1.243113486941    -0.991856449303     0.753684973847    12.000000000000
         H           -0.000015513059    -0.728183449303    -0.996804026153     1.007825032230
         H           -1.345850513059    -0.583080449303     1.759629973847     1.007825032230
         H           -1.217450513059    -2.083534449303     0.791821973847     1.007825032230
         H            1.345820486941    -0.583139449303     1.759626973847     1.007825032230
         H            1.217395486941    -2.083577449303     0.791795973847     1.007825032230

  Basis Set: AUG-CC-PVTZ
    Blend: AUG-CC-PVTZ
  Basis Set: (AUG-CC-PVTZ AUX)
    Blend: AUG-CC-PVTZ-JKFIT
	 Reference Energy          =   -7833.9417553345956549 [Eh]
	 Singles Energy            =      -0.0000000000000000 [Eh]
	 Same-Spin Energy          =      -0.3997847288652225 [Eh]
	 Opposite-Spin Energy      =      -1.0594223132267415 [Eh]
	 Correlation Energy        =      -1.4592070420919641 [Eh]
	 Total Energy              =   -7835.4009623766878576 [Eh]

	 ================> DF-SCS-MP2 Energies <==================
	-----------------------------------------------------------
	 SCS Same-Spin Scale       =       0.3333333333333333 [-]
	 SCS Opposite-Spin Scale   =       1.2000000000000000 [-]
	 SCS Same-Spin Energy      =      -0.1332615762884075 [Eh]
	 SCS Opposite-Spin Energy  =      -1.2713067758720897 [Eh]
	 SCS Correlation Energy    =      -1.4045683521604972 [Eh]
	 SCS Total Energy          =   -7835.3463236867564774 [Eh]
	-----------------------------------------------------------

  Dipole Moment: [D]
     X:    -0.0000      Y:    -2.1189      Z:     1.4418     Total:     2.5629

*** Psi4 exiting successfully. Buy a developer a beer!
