                               Psi4 1.3.2 release

  ==> Input File <==

--------------------------------------------------------------------------
#psi4
#
memory 32 gb

molecule  {
0 1
 Br        0.0000490     1.5373210     0.0922820
 Br       -2.7493398    -0.3914076    -0.3691502
 Br        2.8699250    -0.4854600    -0.2337790
  C       -0.0000100    -0.4202620     0.0447250
  C       -1.2431490    -0.9529940     0.7369810
  C        1.2431140    -0.9530360     0.7369740
  H       -0.0000150    -0.6893630    -1.0135150
  H       -1.3458500    -0.5442600     1.7429190
  H       -1.2174500    -2.0447140     0.7751110
  H        1.3458210    -0.5443190     1.7429160
  H        1.2173960    -2.0447570     0.7750850
units angstrom
no_reorient  #important for SAPT in psi4, default
symmetry c1  #important for SAPT in psi4, default
}

set PROPERTIES_ORIGIN ["COM"]
properties('MP2/aug-cc-pvtz', properties = ['dipole'])
--------------------------------------------------------------------------

    Molecular point group: c1
  Charge       = 0
  Multiplicity = 1
  Basis Set: AUG-CC-PVTZ
    Blend: AUG-CC-PVTZ
  Basis Set: (AUG-CC-PVTZ AUX)
    Blend: AUG-CC-PVTZ-JKFIT

    Orbital Energies [Eh]
    ---------------------

    Doubly Occupied:

       1A   -490.025796     2A   -490.025166     3A   -490.021607
       4A    -65.165706     5A    -65.165010     6A    -65.161581
       7A    -58.521030     8A    -58.520333     9A    -58.519577
      10A    -58.519551    11A    -58.518899    12A    -58.518872
      13A    -58.516881    14A    -58.515463    15A    -58.515420
      16A    -11.330145    17A    -11.322027    18A    -11.319777
      19A     -9.838475    20A     -9.837709    21A     -9.834341
      22A     -7.450135    23A     -7.449328    24A     -7.445924
      25A     -7.443246    26A     -7.443097    27A     -7.442513
      28A     -7.442358    29A     -7.439176    30A     -7.438989
      31A     -3.193821    32A     -3.192992    33A     -3.190313
      34A     -3.190115    35A     -3.189573    36A     -3.189517
      37A     -3.189332    38A     -3.186169    39A     -3.185874
      40A     -3.181237    41A     -3.181235    42A     -3.180552
      43A     -3.180551    44A     -3.177199    45A     -3.177197
      46A     -1.164895    47A     -1.074976    48A     -1.023803
      49A     -0.969897    50A     -0.897356    51A     -0.825040
      52A     -0.686753    53A     -0.640345    54A     -0.624599
      55A     -0.603549    56A     -0.528941    57A     -0.495936
      58A     -0.491884    59A     -0.432770    60A     -0.428458
      61A     -0.418350    62A     -0.409524    63A     -0.406793
      64A     -0.392065

  @DF-RHF Final Energy: -7833.93828379204024

   => Energetics <=

    Nuclear Repulsion Energy =           1020.8668302523279863
    One-Electron Energy =              -12943.5907431165014714
    Two-Electron Energy =                4088.7856290721338155
    Total Energy =                      -7833.9382837920402380
  Basis Set: (AUG-CC-PVTZ AUX)
    Blend: AUG-CC-PVTZ-RI
    Molecular point group: c1

    Geometry (in Angstrom), charge = 0, multiplicity = 1:

       Center              X                  Y                   Z               Mass
    ------------   -----------------  -----------------  -----------------  -----------------
         BR          -0.034219584012     1.471469881511     0.157154772115    78.918337600000
         BR          -2.783608384012    -0.457258718489    -0.304277427885    78.918337600000
         BR           2.835656415988    -0.551311118489    -0.168906227885    78.918337600000
         C           -0.034278584012    -0.486113118489     0.109597772115    12.000000000000
         C           -1.277417584012    -1.018845118489     0.801853772115    12.000000000000
         C            1.208845415988    -1.018887118489     0.801846772115    12.000000000000
         H           -0.034283584012    -0.755214118489    -0.948642227885     1.007825032230
         H           -1.380118584012    -0.610111118489     1.807791772115     1.007825032230
         H           -1.251718584012    -2.110565118489     0.839983772115     1.007825032230
         H            1.311552415988    -0.610170118489     1.807788772115     1.007825032230
         H            1.183127415988    -2.110608118489     0.839957772115     1.007825032230

  Basis Set: AUG-CC-PVTZ
    Blend: AUG-CC-PVTZ
  Basis Set: (AUG-CC-PVTZ AUX)
    Blend: AUG-CC-PVTZ-JKFIT
	 Reference Energy          =   -7833.9382837920402380 [Eh]
	 Singles Energy            =      -0.0000000000000000 [Eh]
	 Same-Spin Energy          =      -0.4005632872306352 [Eh]
	 Opposite-Spin Energy      =      -1.0604676311462753 [Eh]
	 Correlation Energy        =      -1.4610309183769106 [Eh]
	 Total Energy              =   -7835.3993147104174568 [Eh]

	 ================> DF-SCS-MP2 Energies <==================
	-----------------------------------------------------------
	 SCS Same-Spin Scale       =       0.3333333333333333 [-]
	 SCS Opposite-Spin Scale   =       1.2000000000000000 [-]
	 SCS Same-Spin Energy      =      -0.1335210957435451 [Eh]
	 SCS Opposite-Spin Energy  =      -1.2725611573755302 [Eh]
	 SCS Correlation Energy    =      -1.4060822531190753 [Eh]
	 SCS Total Energy          =   -7835.3443660451594042 [Eh]
	-----------------------------------------------------------

  Dipole Moment: [D]
     X:    -0.1298      Y:    -2.1471      Z:     1.5263     Total:     2.6375

*** Psi4 exiting successfully. Buy a developer a beer!
