                               Psi4 1.3.2 release

  ==> Input File <==

--------------------------------------------------------------------------
#psi4
#
memory 32 gb

molecule  {
0 1
 Br        0.0000492     1.5377882     0.0239344
 Br       -2.8699640    -0.4854280    -0.2337770
 Br        2.8699250    -0.4854600    -0.2337790
  C       -0.0000100    -0.4202620     0.0447250
  C       -1.2431490    -0.9529940     0.7369810
  C        1.2431140    -0.9530360     0.7369740
  H       -0.0000150    -0.6893630    -1.0135150
  H       -1.3458500    -0.5442600     1.7429190
  H       -1.2174500    -2.0447140     0.7751110
  H        1.3458210    -0.5443190     1.7429160
  H        1.2173960    -2.0447570     0.7750850
units angstrom
no_reorient  #important for SAPT in psi4, default
symmetry c1  #important for SAPT in psi4, default
}

set PROPERTIES_ORIGIN ["COM"]
properties('MP2/aug-cc-pvtz', properties = ['dipole'])
--------------------------------------------------------------------------

    Molecular point group: c1
  Charge       = 0
  Multiplicity = 1
  Basis Set: AUG-CC-PVTZ
    Blend: AUG-CC-PVTZ
  Basis Set: (AUG-CC-PVTZ AUX)
    Blend: AUG-CC-PVTZ-JKFIT

    Orbital Energies [Eh]
    ---------------------

    Doubly Occupied:

       1A   -490.026408     2A   -490.026408     3A   -490.022459
       4A    -65.166245     5A    -65.166244     6A    -65.162398
       7A    -58.521573     8A    -58.521572     9A    -58.520130
      10A    -58.520129    11A    -58.520103    12A    -58.520102
      13A    -58.517700    14A    -58.516280    15A    -58.516245
      16A    -11.331713    17A    -11.321754    18A    -11.321726
      19A     -9.838939    20A     -9.838939    21A     -9.835122
      22A     -7.450575    23A     -7.450575    24A     -7.446698
      25A     -7.443727    26A     -7.443726    27A     -7.443572
      28A     -7.443571    29A     -7.439942    30A     -7.439785
      31A     -3.194251    32A     -3.194249    33A     -3.190759
      34A     -3.190757    35A     -3.190575    36A     -3.190574
      37A     -3.190341    38A     -3.186924    39A     -3.186673
      40A     -3.181749    41A     -3.181748    42A     -3.181748
      43A     -3.181747    44A     -3.177994    45A     -3.177992
      46A     -1.163361    47A     -1.075041    48A     -1.026734
      49A     -0.970804    50A     -0.897662    51A     -0.823981
      52A     -0.687206    53A     -0.639268    54A     -0.624913
      55A     -0.605874    56A     -0.528083    57A     -0.496455
      58A     -0.493344    59A     -0.429291    60A     -0.428786
      61A     -0.418026    62A     -0.411105    63A     -0.407865
      64A     -0.396147

  @DF-RHF Final Energy: -7833.94166389765178

   => Energetics <=

    Nuclear Repulsion Energy =           1009.0904893064933958
    One-Electron Energy =              -12919.9515318016055971
    Two-Electron Energy =                4076.9193785974616731
    Total Energy =                      -7833.9416638976508693
  Basis Set: (AUG-CC-PVTZ AUX)
    Blend: AUG-CC-PVTZ-RI
    Molecular point group: c1

    Geometry (in Angstrom), charge = 0, multiplicity = 1:

       Center              X                  Y                   Z               Mass
    ------------   -----------------  -----------------  -----------------  -----------------
         BR           0.000048601715     1.498514543063     0.069765917438    78.918337600000
         BR          -2.869964598285    -0.524701656937    -0.187945482562    78.918337600000
         BR           2.869924401715    -0.524733656937    -0.187947482562    78.918337600000
         C           -0.000010598285    -0.459535656937     0.090556517438    12.000000000000
         C           -1.243149598285    -0.992267656937     0.782812517438    12.000000000000
         C            1.243113401715    -0.992309656937     0.782805517438    12.000000000000
         H           -0.000015598285    -0.728636656937    -0.967683482562     1.007825032230
         H           -1.345850598285    -0.583533656937     1.788750517438     1.007825032230
         H           -1.217450598285    -2.083987656937     0.820942517438     1.007825032230
         H            1.345820401715    -0.583592656937     1.788747517438     1.007825032230
         H            1.217395401715    -2.084030656937     0.820916517438     1.007825032230

  Basis Set: AUG-CC-PVTZ
    Blend: AUG-CC-PVTZ
  Basis Set: (AUG-CC-PVTZ AUX)
    Blend: AUG-CC-PVTZ-JKFIT
	 Reference Energy          =   -7833.9416638976517788 [Eh]
	 Singles Energy            =      -0.0000000000000000 [Eh]
	 Same-Spin Energy          =      -0.3997184209257591 [Eh]
	 Opposite-Spin Energy      =      -1.0592992248395159 [Eh]
	 Correlation Energy        =      -1.4590176457652750 [Eh]
	 Total Energy              =   -7835.4006815434167947 [Eh]

	 ================> DF-SCS-MP2 Energies <==================
	-----------------------------------------------------------
	 SCS Same-Spin Scale       =       0.3333333333333333 [-]
	 SCS Opposite-Spin Scale   =       1.2000000000000000 [-]
	 SCS Same-Spin Energy      =      -0.1332394736419197 [Eh]
	 SCS Opposite-Spin Energy  =      -1.2711590698074191 [Eh]
	 SCS Correlation Energy    =      -1.4043985434493389 [Eh]
	 SCS Total Energy          =   -7835.3460624411009121 [Eh]
	-----------------------------------------------------------

  Dipole Moment: [D]
     X:    -0.0000      Y:    -2.1240      Z:     1.4870     Total:     2.5928

*** Psi4 exiting successfully. Buy a developer a beer!
