                               Psi4 1.3.2 release

  ==> Input File <==

--------------------------------------------------------------------------
#psi4
#
memory 32 gb

molecule  {
0 1
 Br        0.0000490     1.5373210     0.0922820
 Br       -2.9727645    -0.5845712    -0.0877680
 Br        2.8699250    -0.4854600    -0.2337790
  C       -0.0000100    -0.4202620     0.0447250
  C       -1.2431490    -0.9529940     0.7369810
  C        1.2431140    -0.9530360     0.7369740
  H       -0.0000150    -0.6893630    -1.0135150
  H       -1.3458500    -0.5442600     1.7429190
  H       -1.2174500    -2.0447140     0.7751110
  H        1.3458210    -0.5443190     1.7429160
  H        1.2173960    -2.0447570     0.7750850
units angstrom
no_reorient  #important for SAPT in psi4, default
symmetry c1  #important for SAPT in psi4, default
}

set PROPERTIES_ORIGIN ["COM"]
properties('MP2/aug-cc-pvtz', properties = ['dipole'])
--------------------------------------------------------------------------

    Molecular point group: c1
  Charge       = 0
  Multiplicity = 1
  Basis Set: AUG-CC-PVTZ
    Blend: AUG-CC-PVTZ
  Basis Set: (AUG-CC-PVTZ AUX)
    Blend: AUG-CC-PVTZ-JKFIT

    Orbital Energies [Eh]
    ---------------------

    Doubly Occupied:

       1A   -490.027615     2A   -490.027030     3A   -490.023744
       4A    -65.167442     5A    -65.166826     6A    -65.163678
       7A    -58.522773     8A    -58.522158     9A    -58.521326
      10A    -58.521299    11A    -58.520717    12A    -58.520684
      13A    -58.518980    14A    -58.517561    15A    -58.517529
      16A    -11.333962    17A    -11.322859    18A    -11.320777
      19A     -9.840128    20A     -9.839485    21A     -9.836397
      22A     -7.451773    23A     -7.451117    24A     -7.447965
      25A     -7.444907    26A     -7.444749    27A     -7.444278
      28A     -7.444102    29A     -7.441220    30A     -7.441069
      31A     -3.195455    32A     -3.194787    33A     -3.191954
      34A     -3.191770    35A     -3.191601    36A     -3.191311
      37A     -3.191117    38A     -3.188185    39A     -3.187952
      40A     -3.182919    41A     -3.182918    42A     -3.182298
      43A     -3.182298    44A     -3.179285    45A     -3.179282
      46A     -1.163338    47A     -1.075438    48A     -1.029231
      49A     -0.971027    50A     -0.897835    51A     -0.824212
      52A     -0.687849    53A     -0.638936    54A     -0.625206
      55A     -0.607162    56A     -0.526722    57A     -0.498089
      58A     -0.493985    59A     -0.430112    60A     -0.425921
      61A     -0.417968    62A     -0.412032    63A     -0.409051
      64A     -0.400222

  @DF-RHF Final Energy: -7833.94113649252449

   => Energetics <=

    Nuclear Repulsion Energy =            998.8327922219190214
    One-Electron Energy =              -12899.3246174035939475
    Two-Electron Energy =                4066.5506886891494105
    Total Energy =                      -7833.9411364925254020
  Basis Set: (AUG-CC-PVTZ AUX)
    Blend: AUG-CC-PVTZ-RI
    Molecular point group: c1

    Geometry (in Angstrom), charge = 0, multiplicity = 1:

       Center              X                  Y                   Z               Mass
    ------------   -----------------  -----------------  -----------------  -----------------
         BR           0.029252978916     1.526345590224     0.077217104541    78.918337600000
         BR          -2.943560521084    -0.595546609776    -0.102832895459    78.918337600000
         BR           2.899128978916    -0.496435409776    -0.248843895459    78.918337600000
         C            0.029193978916    -0.431237409776     0.029660104541    12.000000000000
         C           -1.213945021084    -0.963969409776     0.721916104541    12.000000000000
         C            1.272317978916    -0.964011409776     0.721909104541    12.000000000000
         H            0.029188978916    -0.700338409776    -1.028579895459     1.007825032230
         H           -1.316646021084    -0.555235409776     1.727854104541     1.007825032230
         H           -1.188246021084    -2.055689409776     0.760046104541     1.007825032230
         H            1.375024978916    -0.555294409776     1.727851104541     1.007825032230
         H            1.246599978916    -2.055732409776     0.760020104541     1.007825032230

  Basis Set: AUG-CC-PVTZ
    Blend: AUG-CC-PVTZ
  Basis Set: (AUG-CC-PVTZ AUX)
    Blend: AUG-CC-PVTZ-JKFIT
	 Reference Energy          =   -7833.9411364925244925 [Eh]
	 Singles Energy            =      -0.0000000000000000 [Eh]
	 Same-Spin Energy          =      -0.3992954739247233 [Eh]
	 Opposite-Spin Energy      =      -1.0588269119451879 [Eh]
	 Correlation Energy        =      -1.4581223858699111 [Eh]
	 Total Energy              =   -7835.3992588783939937 [Eh]

	 ================> DF-SCS-MP2 Energies <==================
	-----------------------------------------------------------
	 SCS Same-Spin Scale       =       0.3333333333333333 [-]
	 SCS Opposite-Spin Scale   =       1.2000000000000000 [-]
	 SCS Same-Spin Energy      =      -0.1330984913082411 [Eh]
	 SCS Opposite-Spin Energy  =      -1.2705922943342254 [Eh]
	 SCS Correlation Energy    =      -1.4036907856424665 [Eh]
	 SCS Total Energy          =   -7835.3448272781670312 [Eh]
	-----------------------------------------------------------

  Dipole Moment: [D]
     X:     0.1198      Y:    -2.0865      Z:     1.3776     Total:     2.5031

*** Psi4 exiting successfully. Buy a developer a beer!
