                               Psi4 1.3.2 release

  ==> Input File <==

--------------------------------------------------------------------------
#psi4
#
memory 32 gb

molecule  {
0 1
 Br        0.0000490     1.5373210     0.0922820
 Br       -2.8883681    -0.5016248    -0.2101389
 Br        2.8699250    -0.4854600    -0.2337790
  C       -0.0000100    -0.4202620     0.0447250
  C       -1.2431490    -0.9529940     0.7369810
  C        1.2431140    -0.9530360     0.7369740
  H       -0.0000150    -0.6893630    -1.0135150
  H       -1.3458500    -0.5442600     1.7429190
  H       -1.2174500    -2.0447140     0.7751110
  H        1.3458210    -0.5443190     1.7429160
  H        1.2173960    -2.0447570     0.7750850
units angstrom
no_reorient  #important for SAPT in psi4, default
symmetry c1  #important for SAPT in psi4, default
}

set PROPERTIES_ORIGIN ["COM"]
properties('MP2/aug-cc-pvtz', properties = ['dipole'])
--------------------------------------------------------------------------

    Molecular point group: c1
  Charge       = 0
  Multiplicity = 1
  Basis Set: AUG-CC-PVTZ
    Blend: AUG-CC-PVTZ
  Basis Set: (AUG-CC-PVTZ AUX)
    Blend: AUG-CC-PVTZ-JKFIT

    Orbital Energies [Eh]
    ---------------------

    Doubly Occupied:

       1A   -490.026662     2A   -490.026560     3A   -490.022909
       4A    -65.166496     5A    -65.166387     6A    -65.162854
       7A    -58.521824     8A    -58.521715     9A    -58.520381
      10A    -58.520354    11A    -58.520274    12A    -58.520247
      13A    -58.518156    14A    -58.516737    15A    -58.516702
      16A    -11.332346    17A    -11.321701    18A    -11.321343
      19A     -9.839187    20A     -9.839071    21A     -9.835584
      22A     -7.450822    23A     -7.450702    24A     -7.447157
      25A     -7.443976    26A     -7.443863    27A     -7.443819
      28A     -7.443704    29A     -7.440411    30A     -7.440248
      31A     -3.194497    32A     -3.194374    33A     -3.191006
      34A     -3.190888    35A     -3.190821    36A     -3.190797
      37A     -3.190703    38A     -3.187385    39A     -3.187132
      40A     -3.181998    41A     -3.181996    42A     -3.181889
      43A     -3.181888    44A     -3.178463    45A     -3.178459
      46A     -1.163724    47A     -1.075097    48A     -1.027116
      49A     -0.970523    50A     -0.897700    51A     -0.824502
      52A     -0.687367    53A     -0.639301    54A     -0.624913
      55A     -0.605758    56A     -0.527686    57A     -0.497099
      58A     -0.493492    59A     -0.429594    60A     -0.427968
      61A     -0.418404    62A     -0.411261    63A     -0.408228
      64A     -0.397474

  @DF-RHF Final Energy: -7833.94198393462284

   => Energetics <=

    Nuclear Repulsion Energy =           1007.2698736708267688
    One-Electron Energy =              -12916.2803274466878065
    Two-Electron Energy =                4075.0684698412392208
    Total Energy =                      -7833.9419839346228400
  Basis Set: (AUG-CC-PVTZ AUX)
    Blend: AUG-CC-PVTZ-RI
    Molecular point group: c1

    Geometry (in Angstrom), charge = 0, multiplicity = 1:

       Center              X                  Y                   Z               Mass
    ------------   -----------------  -----------------  -----------------  -----------------
         BR           0.005276866114     1.502781406883     0.111981365837    78.918337600000
         BR          -2.883140233886    -0.536164393117    -0.190439534163    78.918337600000
         BR           2.875152866114    -0.519999593117    -0.214079634163    78.918337600000
         C            0.005217866114    -0.454801593117     0.064424365837    12.000000000000
         C           -1.237921133886    -0.987533593117     0.756680365837    12.000000000000
         C            1.248341866114    -0.987575593117     0.756673365837    12.000000000000
         H            0.005212866114    -0.723902593117    -0.993815634163     1.007825032230
         H           -1.340622133886    -0.578799593117     1.762618365837     1.007825032230
         H           -1.212222133886    -2.079253593117     0.794810365837     1.007825032230
         H            1.351048866114    -0.578858593117     1.762615365837     1.007825032230
         H            1.222623866114    -2.079296593117     0.794784365837     1.007825032230

  Basis Set: AUG-CC-PVTZ
    Blend: AUG-CC-PVTZ
  Basis Set: (AUG-CC-PVTZ AUX)
    Blend: AUG-CC-PVTZ-JKFIT
	 Reference Energy          =   -7833.9419839346228400 [Eh]
	 Singles Energy            =      -0.0000000000000000 [Eh]
	 Same-Spin Energy          =      -0.3996571515179804 [Eh]
	 Opposite-Spin Energy      =      -1.0592432960377764 [Eh]
	 Correlation Energy        =      -1.4589004475557568 [Eh]
	 Total Energy              =   -7835.4008843821784467 [Eh]

	 ================> DF-SCS-MP2 Energies <==================
	-----------------------------------------------------------
	 SCS Same-Spin Scale       =       0.3333333333333333 [-]
	 SCS Opposite-Spin Scale   =       1.2000000000000000 [-]
	 SCS Same-Spin Energy      =      -0.1332190505059934 [Eh]
	 SCS Opposite-Spin Energy  =      -1.2710919552453317 [Eh]
	 SCS Correlation Energy    =      -1.4043110057513251 [Eh]
	 SCS Total Energy          =   -7835.3462949403738094 [Eh]
	-----------------------------------------------------------

  Dipole Moment: [D]
     X:     0.0207      Y:    -2.1156      Z:     1.4443     Total:     2.5617

*** Psi4 exiting successfully. Buy a developer a beer!
