                               Psi4 1.3.2 release

  ==> Input File <==

--------------------------------------------------------------------------
#psi4
#
memory 32 gb

molecule  {
0 1
 Br        0.0000490     1.5373210     0.0922820
 Br       -2.8699640    -0.4854280    -0.2337770
 Br        2.8699250    -0.4854600    -0.2337790
  C       -0.0000100    -0.4202620     0.0447250
  C       -1.1597776    -0.9769559     0.7867307
  C        1.2431140    -0.9530360     0.7369740
  H       -0.0000150    -0.6893630    -1.0135150
  H       -1.3458500    -0.5442600     1.7429190
  H       -1.2174500    -2.0447140     0.7751110
  H        1.3458210    -0.5443190     1.7429160
  H        1.2173960    -2.0447570     0.7750850
units angstrom
no_reorient  #important for SAPT in psi4, default
symmetry c1  #important for SAPT in psi4, default
}

set PROPERTIES_ORIGIN ["COM"]
properties('MP2/aug-cc-pvtz', properties = ['dipole'])
--------------------------------------------------------------------------

    Molecular point group: c1
  Charge       = 0
  Multiplicity = 1
  Basis Set: AUG-CC-PVTZ
    Blend: AUG-CC-PVTZ
  Basis Set: (AUG-CC-PVTZ AUX)
    Blend: AUG-CC-PVTZ-JKFIT

    Orbital Energies [Eh]
    ---------------------

    Doubly Occupied:

       1A   -490.027369     2A   -490.025826     3A   -490.018291
       4A    -65.167216     5A    -65.165730     6A    -65.157917
       7A    -58.522540     8A    -58.521101     9A    -58.521075
      10A    -58.521051    11A    -58.519603    12A    -58.519562
      13A    -58.513243    14A    -58.511818    15A    -58.511793
      16A    -11.333775    17A    -11.325960    18A    -11.323285
      19A     -9.839916    20A     -9.838423    21A     -9.830200
      22A     -7.451540    23A     -7.450064    24A     -7.444712
      25A     -7.444558    26A     -7.443206    27A     -7.443008
      28A     -7.441555    29A     -7.435039    30A     -7.434894
      31A     -3.195205    32A     -3.193747    33A     -3.191725
      34A     -3.191541    35A     -3.190289    36A     -3.189995
      37A     -3.185062    38A     -3.182746    39A     -3.182745
      40A     -3.181885    41A     -3.181708    42A     -3.181176
      43A     -3.181173    44A     -3.173217    45A     -3.173215
      46A     -1.171038    47A     -1.068847    48A     -1.022957
      49A     -0.973451    50A     -0.901385    51A     -0.831440
      52A     -0.699418    53A     -0.645830    54A     -0.634382
      55A     -0.613529    56A     -0.524326    57A     -0.501241
      58A     -0.472865    59A     -0.430743    60A     -0.428515
      61A     -0.417352    62A     -0.410025    63A     -0.409063
      64A     -0.395289

  @DF-RHF Final Energy: -7833.93611131014677

   => Energetics <=

    Nuclear Repulsion Energy =           1007.5115345644771878
    One-Electron Energy =              -12916.8324992310135713
    Two-Electron Energy =                4075.3848533563896126
    Total Energy =                      -7833.9361113101467708
  Basis Set: (AUG-CC-PVTZ AUX)
    Blend: AUG-CC-PVTZ-RI
    Molecular point group: c1

    Geometry (in Angstrom), charge = 0, multiplicity = 1:

       Center              X                  Y                   Z               Mass
    ------------   -----------------  -----------------  -----------------  -----------------
         BR          -0.003552973835     1.499215162693     0.116547636261    78.918337600000
         BR          -2.873565973835    -0.523533837307    -0.209511363739    78.918337600000
         BR           2.866323026165    -0.523565837307    -0.209513363739    78.918337600000
         C           -0.003611973835    -0.458367837307     0.068990636261    12.000000000000
         C           -1.163379573835    -1.015061737307     0.810996336261    12.000000000000
         C            1.239512026165    -0.991141837307     0.761239636261    12.000000000000
         H           -0.003616973835    -0.727468837307    -0.989249363739     1.007825032230
         H           -1.349451973835    -0.582365837307     1.767184636261     1.007825032230
         H           -1.221051973835    -2.082819837307     0.799376636261     1.007825032230
         H            1.342219026165    -0.582424837307     1.767181636261     1.007825032230
         H            1.213794026165    -2.082862837307     0.799350636261     1.007825032230

  Basis Set: AUG-CC-PVTZ
    Blend: AUG-CC-PVTZ
  Basis Set: (AUG-CC-PVTZ AUX)
    Blend: AUG-CC-PVTZ-JKFIT
	 Reference Energy          =   -7833.9361113101467708 [Eh]
	 Singles Energy            =      -0.0000000000000000 [Eh]
	 Same-Spin Energy          =      -0.3995345144125463 [Eh]
	 Opposite-Spin Energy      =      -1.0591895587735207 [Eh]
	 Correlation Energy        =      -1.4587240731860671 [Eh]
	 Total Energy              =   -7835.3948353833329747 [Eh]

	 ================> DF-SCS-MP2 Energies <==================
	-----------------------------------------------------------
	 SCS Same-Spin Scale       =       0.3333333333333333 [-]
	 SCS Opposite-Spin Scale   =       1.2000000000000000 [-]
	 SCS Same-Spin Energy      =      -0.1331781714708488 [Eh]
	 SCS Opposite-Spin Energy  =      -1.2710274705282247 [Eh]
	 SCS Correlation Energy    =      -1.4042056419990736 [Eh]
	 SCS Total Energy          =   -7835.3403169521461678 [Eh]
	-----------------------------------------------------------

  Dipole Moment: [D]
     X:     0.2673      Y:    -2.1044      Z:     1.5625     Total:     2.6346

*** Psi4 exiting successfully. Buy a developer a beer!
