                               Psi4 1.3.2 release

  ==> Input File <==

--------------------------------------------------------------------------
#psi4
#
memory 32 gb

molecule  {
0 1
 Br        0.0000490     1.5373210     0.0922820
 Br       -2.7893452    -0.5827141    -0.3942512
 Br        2.8699250    -0.4854600    -0.2337790
  C       -0.0000100    -0.4202620     0.0447250
  C       -1.2431490    -0.9529940     0.7369810
  C        1.2431140    -0.9530360     0.7369740
  H       -0.0000150    -0.6893630    -1.0135150
  H       -1.3458500    -0.5442600     1.7429190
  H       -1.2174500    -2.0447140     0.7751110
  H        1.3458210    -0.5443190     1.7429160
  H        1.2173960    -2.0447570     0.7750850
units angstrom
no_reorient  #important for SAPT in psi4, default
symmetry c1  #important for SAPT in psi4, default
}

set PROPERTIES_ORIGIN ["COM"]
properties('MP2/aug-cc-pvtz', properties = ['dipole'])
--------------------------------------------------------------------------

    Molecular point group: c1
  Charge       = 0
  Multiplicity = 1
  Basis Set: AUG-CC-PVTZ
    Blend: AUG-CC-PVTZ
  Basis Set: (AUG-CC-PVTZ AUX)
    Blend: AUG-CC-PVTZ-JKFIT

    Orbital Energies [Eh]
    ---------------------

    Doubly Occupied:

       1A   -490.027047     2A   -490.025838     3A   -490.022782
       4A    -65.166910     5A    -65.165678     6A    -65.162726
       7A    -58.522237     8A    -58.521003     9A    -58.520791
      10A    -58.520762    11A    -58.519565    12A    -58.519539
      13A    -58.518026    14A    -58.516610    15A    -58.516576
      16A    -11.331042    17A    -11.321935    18A    -11.320544
      19A     -9.839629    20A     -9.838373    21A     -9.835452
      22A     -7.451273    23A     -7.449997    24A     -7.447018
      25A     -7.444421    26A     -7.444249    27A     -7.443171
      28A     -7.443017    29A     -7.440280    30A     -7.440126
      31A     -3.194947    32A     -3.193665    33A     -3.191459
      34A     -3.191264    35A     -3.190654    36A     -3.190184
      37A     -3.190002    38A     -3.187243    39A     -3.187002
      40A     -3.182424    41A     -3.182423    42A     -3.181205
      43A     -3.181204    44A     -3.178343    45A     -3.178339
      46A     -1.164400    47A     -1.075301    48A     -1.026332
      49A     -0.969561    50A     -0.897769    51A     -0.825161
      52A     -0.687242    53A     -0.639847    54A     -0.625106
      55A     -0.603978    56A     -0.529043    57A     -0.496794
      58A     -0.492261    59A     -0.429529    60A     -0.427902
      61A     -0.419654    62A     -0.410558    63A     -0.407235
      64A     -0.397555

  @DF-RHF Final Energy: -7833.94014852336022

   => Energetics <=

    Nuclear Repulsion Energy =           1011.3313576544647958
    One-Electron Energy =              -12924.4186048438405123
    Two-Electron Energy =                4079.1470986660156086
    Total Energy =                      -7833.9401485233611311
  Basis Set: (AUG-CC-PVTZ AUX)
    Blend: AUG-CC-PVTZ-RI
    Molecular point group: c1

    Geometry (in Angstrom), charge = 0, multiplicity = 1:

       Center              X                  Y                   Z               Mass
    ------------   -----------------  -----------------  -----------------  -----------------
         BR          -0.022854478592     1.525818008015     0.164285697219    78.918337600000
         BR          -2.812248678592    -0.594217091985    -0.322247502781    78.918337600000
         BR           2.847021521408    -0.496962991985    -0.161775302781    78.918337600000
         C           -0.022913478592    -0.431764991985     0.116728697219    12.000000000000
         C           -1.266052478592    -0.964496991985     0.808984697219    12.000000000000
         C            1.220210521408    -0.964538991985     0.808977697219    12.000000000000
         H           -0.022918478592    -0.700865991985    -0.941511302781     1.007825032230
         H           -1.368753478592    -0.555762991985     1.814922697219     1.007825032230
         H           -1.240353478592    -2.056216991985     0.847114697219     1.007825032230
         H            1.322917521408    -0.555821991985     1.814919697219     1.007825032230
         H            1.194492521408    -2.056259991985     0.847088697219     1.007825032230

  Basis Set: AUG-CC-PVTZ
    Blend: AUG-CC-PVTZ
  Basis Set: (AUG-CC-PVTZ AUX)
    Blend: AUG-CC-PVTZ-JKFIT
	 Reference Energy          =   -7833.9401485233602216 [Eh]
	 Singles Energy            =      -0.0000000000000000 [Eh]
	 Same-Spin Energy          =      -0.3999714012372174 [Eh]
	 Opposite-Spin Energy      =      -1.0597350945347330 [Eh]
	 Correlation Energy        =      -1.4597064957719503 [Eh]
	 Total Energy              =   -7835.3998550191317918 [Eh]

	 ================> DF-SCS-MP2 Energies <==================
	-----------------------------------------------------------
	 SCS Same-Spin Scale       =       0.3333333333333333 [-]
	 SCS Opposite-Spin Scale   =       1.2000000000000000 [-]
	 SCS Same-Spin Energy      =      -0.1333238004124058 [Eh]
	 SCS Opposite-Spin Energy  =      -1.2716821134416796 [Eh]
	 SCS Correlation Energy    =      -1.4050059138540854 [Eh]
	 SCS Total Energy          =   -7835.3451544372146600 [Eh]
	-----------------------------------------------------------

  Dipole Moment: [D]
     X:    -0.0723      Y:    -2.0831      Z:     1.5444     Total:     2.5942

*** Psi4 exiting successfully. Buy a developer a beer!
