                               Psi4 1.4a3.dev225

  ==> Input File <==

--------------------------------------------------------------------------
#psi4
#
memory 32 gb

molecule  {
0 1
 Br       -0.0000060     1.5375450     0.0922240
 Br       -2.8696800    -0.4856180    -0.2338770
 Br        2.8696840    -0.4856140    -0.2338770
  C        0.0000010    -0.4201970     0.0451550
  C       -1.2014724    -0.9647749     0.7622238
  C        1.2431580    -0.9527970     0.7373390
  H        0.0000030    -0.6895990    -1.0129690
  H       -1.3460520    -0.5437630     1.7430850
  H       -1.2175640    -2.0445360     0.7756790
  H        1.3460560    -0.5437510     1.7430860
  H        1.2175710    -2.0445290     0.7756870
units angstrom
no_reorient  #important for SAPT in psi4, default
symmetry c1  #important for SAPT in psi4, default
}

set PROPERTIES_ORIGIN ["COM"]
properties('MP2/aug-cc-pvtz', properties = ['dipole'])
--------------------------------------------------------------------------

    Molecular point group: c1
  Charge       = 0
  Multiplicity = 1
  Basis Set: AUG-CC-PVTZ
    Blend: AUG-CC-PVTZ
  Basis Set: (AUG-CC-PVTZ AUX)
    Blend: AUG-CC-PVTZ-JKFIT

    Orbital Energies [Eh]
    ---------------------

    Doubly Occupied:

       1A   -490.026831     2A   -490.024242     3A   -490.022597
       4A    -65.166674     5A    -65.164168     6A    -65.162305
       7A    -58.521999     8A    -58.520560     9A    -58.520533
      10A    -58.519480    11A    -58.518046    12A    -58.518008
      13A    -58.517637    14A    -58.516198    15A    -58.516172
      16A    -11.332760    17A    -11.323236    18A    -11.322232
      19A     -9.839371    20A     -9.836881    21A     -9.834761
      22A     -7.450999    23A     -7.448487    24A     -7.446255
      25A     -7.444166    26A     -7.444011    27A     -7.441687
      28A     -7.441506    29A     -7.439569    30A     -7.439419
      31A     -3.194667    32A     -3.192149    33A     -3.191184
      34A     -3.191000    35A     -3.189849    36A     -3.188715
      37A     -3.188440    38A     -3.186518    39A     -3.186338
      40A     -3.182197    41A     -3.182196    42A     -3.179697
      43A     -3.179694    44A     -3.177662    45A     -3.177661
      46A     -1.167165    47A     -1.071388    48A     -1.024744
      49A     -0.972229    50A     -0.899645    51A     -0.828005
      52A     -0.693101    53A     -0.642523    54A     -0.629375
      55A     -0.609765    56A     -0.525290    57A     -0.498962
      58A     -0.483893    59A     -0.429619    60A     -0.428935
      61A     -0.417867    62A     -0.410496    63A     -0.409077
      64A     -0.396223

  @DF-RHF Final Energy: -7833.94036948182111

   => Energetics <=

    Nuclear Repulsion Energy =           1008.2931096535986626
    One-Electron Energy =              -12918.3728493744802108
    Two-Electron Energy =                4076.1393702390600993
    Total Energy =                      -7833.9403694818211079
  Basis Set: (AUG-CC-PVTZ AUX)
    Blend: AUG-CC-PVTZ-RI
    Molecular point group: c1

    Geometry (in Angstrom), charge = 0, multiplicity = 1:

       Center              X                  Y                   Z               Mass
    ------------   -----------------  -----------------  -----------------  -----------------
         BR          -0.001806237674     1.498929452645     0.117579212303    78.918337600000
         BR          -2.871480237674    -0.524233547355    -0.208521787697    78.918337600000
         BR           2.867883762326    -0.524229547355    -0.208521787697    78.918337600000
         C           -0.001799237674    -0.458812547355     0.070510212303    12.000000000000
         C           -1.203272637674    -1.003390447355     0.787579012303    12.000000000000
         C            1.241357762326    -0.991412547355     0.762694212303    12.000000000000
         H           -0.001797237674    -0.728214547355    -0.987613787697     1.007825032230
         H           -1.347852237674    -0.582378547355     1.768440212303     1.007825032230
         H           -1.219364237674    -2.083151547355     0.801034212303     1.007825032230
         H            1.344255762326    -0.582366547355     1.768441212303     1.007825032230
         H            1.215770762326    -2.083144547355     0.801042212303     1.007825032230

  Basis Set: AUG-CC-PVTZ
    Blend: AUG-CC-PVTZ
  Basis Set: (AUG-CC-PVTZ AUX)
    Blend: AUG-CC-PVTZ-JKFIT
	 Reference Energy          =   -7833.9403694818211079 [Eh]
	 Singles Energy            =      -0.0000000000000000 [Eh]
	 Same-Spin Energy          =      -0.3995719562055935 [Eh]
	 Opposite-Spin Energy      =      -1.0591748674925356 [Eh]
	 Correlation Energy        =      -1.4587468236981291 [Eh]
	 Total Energy              =   -7835.3991163055188736 [Eh]

	 ================> DF-SCS-MP2 Energies <==================
	-----------------------------------------------------------
	 SCS Same-Spin Scale       =       0.3333333333333333 [-]
	 SCS Opposite-Spin Scale   =       1.2000000000000000 [-]
	 SCS Same-Spin Energy      =      -0.1331906520685312 [Eh]
	 SCS Opposite-Spin Energy  =      -1.2710098409910426 [Eh]
	 SCS Correlation Energy    =      -1.4042004930595737 [Eh]
	 SCS Total Energy          =   -7835.3445699748808693 [Eh]
	-----------------------------------------------------------

  Dipole Moment: [D]
     X:     0.1306      Y:    -2.1128      Z:     1.5112     Total:     2.6009

*** Psi4 exiting successfully. Buy a developer a beer!
