                               Psi4 1.3.2 release

  ==> Input File <==

--------------------------------------------------------------------------
#psi4
#
memory 32 gb

molecule  {
0 1
 Br        0.0000494     1.5358698    -0.0443879
 Br       -2.8699640    -0.4854280    -0.2337770
 Br        2.8699250    -0.4854600    -0.2337790
  C       -0.0000100    -0.4202620     0.0447250
  C       -1.2431490    -0.9529940     0.7369810
  C        1.2431140    -0.9530360     0.7369740
  H       -0.0000150    -0.6893630    -1.0135150
  H       -1.3458500    -0.5442600     1.7429190
  H       -1.2174500    -2.0447140     0.7751110
  H        1.3458210    -0.5443190     1.7429160
  H        1.2173960    -2.0447570     0.7750850
units angstrom
no_reorient  #important for SAPT in psi4, default
symmetry c1  #important for SAPT in psi4, default
}

set PROPERTIES_ORIGIN ["COM"]
properties('MP2/aug-cc-pvtz', properties = ['dipole'])
--------------------------------------------------------------------------

    Molecular point group: c1
  Charge       = 0
  Multiplicity = 1
  Basis Set: AUG-CC-PVTZ
    Blend: AUG-CC-PVTZ
  Basis Set: (AUG-CC-PVTZ AUX)
    Blend: AUG-CC-PVTZ-JKFIT

    Orbital Energies [Eh]
    ---------------------

    Doubly Occupied:

       1A   -490.026357     2A   -490.026356     3A   -490.022202
       4A    -65.166195     5A    -65.166194     6A    -65.162133
       7A    -58.521523     8A    -58.521523     9A    -58.520079
      10A    -58.520078    11A    -58.520052    12A    -58.520052
      13A    -58.517437    14A    -58.516013    15A    -58.515981
      16A    -11.331379    17A    -11.322035    18A    -11.322007
      19A     -9.838892    20A     -9.838891    21A     -9.834854
      22A     -7.450531    23A     -7.450530    24A     -7.446435
      25A     -7.443676    26A     -7.443675    27A     -7.443523
      28A     -7.443522    29A     -7.439661    30A     -7.439515
      31A     -3.194208    32A     -3.194206    33A     -3.190713
      34A     -3.190711    35A     -3.190530    36A     -3.190528
      37A     -3.190079    38A     -3.186655    39A     -3.186411
      40A     -3.181696    41A     -3.181695    42A     -3.181695
      43A     -3.181694    44A     -3.177714    45A     -3.177714
      46A     -1.162932    47A     -1.075027    48A     -1.026837
      49A     -0.971164    50A     -0.897664    51A     -0.823397
      52A     -0.687142    53A     -0.639131    54A     -0.624967
      55A     -0.606330    56A     -0.528337    57A     -0.495873
      58A     -0.493370    59A     -0.429169    60A     -0.428988
      61A     -0.417683    62A     -0.411154    63A     -0.407507
      64A     -0.395498

  @DF-RHF Final Energy: -7833.94109853173450

   => Energetics <=

    Nuclear Repulsion Energy =           1009.1402307715451343
    One-Electron Energy =              -12920.0632125193096726
    Two-Electron Energy =                4076.9818832160294733
    Total Energy =                      -7833.9410985317354061
  Basis Set: (AUG-CC-PVTZ AUX)
    Blend: AUG-CC-PVTZ-RI
    Molecular point group: c1

    Geometry (in Angstrom), charge = 0, multiplicity = 1:

       Center              X                  Y                   Z               Mass
    ------------   -----------------  -----------------  -----------------  -----------------
         BR           0.000048744897     1.497141139945     0.020853250689    78.918337600000
         BR          -2.869964655103    -0.524156660055    -0.168535849311    78.918337600000
         BR           2.869924344897    -0.524188660055    -0.168537849311    78.918337600000
         C           -0.000010655103    -0.458990660055     0.109966150689    12.000000000000
         C           -1.243149655103    -0.991722660055     0.802222150689    12.000000000000
         C            1.243113344897    -0.991764660055     0.802215150689    12.000000000000
         H           -0.000015655103    -0.728091660055    -0.948273849311     1.007825032230
         H           -1.345850655103    -0.582988660055     1.808160150689     1.007825032230
         H           -1.217450655103    -2.083442660055     0.840352150689     1.007825032230
         H            1.345820344897    -0.583047660055     1.808157150689     1.007825032230
         H            1.217395344897    -2.083485660055     0.840326150689     1.007825032230

  Basis Set: AUG-CC-PVTZ
    Blend: AUG-CC-PVTZ
  Basis Set: (AUG-CC-PVTZ AUX)
    Blend: AUG-CC-PVTZ-JKFIT
	 Reference Energy          =   -7833.9410985317344966 [Eh]
	 Singles Energy            =      -0.0000000000000000 [Eh]
	 Same-Spin Energy          =      -0.3997056796593003 [Eh]
	 Opposite-Spin Energy      =      -1.0592733208302176 [Eh]
	 Correlation Energy        =      -1.4589790004895180 [Eh]
	 Total Energy              =   -7835.4000775322238042 [Eh]

	 ================> DF-SCS-MP2 Energies <==================
	-----------------------------------------------------------
	 SCS Same-Spin Scale       =       0.3333333333333333 [-]
	 SCS Opposite-Spin Scale   =       1.2000000000000000 [-]
	 SCS Same-Spin Energy      =      -0.1332352265531001 [Eh]
	 SCS Opposite-Spin Energy  =      -1.2711279849962611 [Eh]
	 SCS Correlation Energy    =      -1.4043632115493612 [Eh]
	 SCS Total Energy          =   -7835.3454617432835221 [Eh]
	-----------------------------------------------------------

  Dipole Moment: [D]
     X:    -0.0000      Y:    -2.1263      Z:     1.5172     Total:     2.6121

*** Psi4 exiting successfully. Buy a developer a beer!
