                               Psi4 1.4a3.dev225

  ==> Input File <==

--------------------------------------------------------------------------
#psi4
#
memory 32 gb

molecule  {
0 1
 Br       -0.0000060     1.5375450     0.0922240
 Br       -2.8696800    -0.4856180    -0.2338770
 Br        2.8696840    -0.4856140    -0.2338770
  C        0.0000010    -0.4201970     0.0451550
  C       -1.2848336    -0.9408311     0.7124482
  C        1.2431580    -0.9527970     0.7373390
  H        0.0000030    -0.6895990    -1.0129690
  H       -1.3460520    -0.5437630     1.7430850
  H       -1.2175640    -2.0445360     0.7756790
  H        1.3460560    -0.5437510     1.7430860
  H        1.2175710    -2.0445290     0.7756870
units angstrom
no_reorient  #important for SAPT in psi4, default
symmetry c1  #important for SAPT in psi4, default
}

set PROPERTIES_ORIGIN ["COM"]
properties('MP2/aug-cc-pvtz', properties = ['dipole'])
--------------------------------------------------------------------------

    Molecular point group: c1
  Charge       = 0
  Multiplicity = 1
  Basis Set: AUG-CC-PVTZ
    Blend: AUG-CC-PVTZ
  Basis Set: (AUG-CC-PVTZ AUX)
    Blend: AUG-CC-PVTZ-JKFIT

    Orbital Energies [Eh]
    ---------------------

    Doubly Occupied:

       1A   -490.029864     2A   -490.026221     3A   -490.021314
       4A    -65.169883     5A    -65.166050     6A    -65.161281
       7A    -58.525193     8A    -58.523763     9A    -58.523734
      10A    -58.521380    11A    -58.519935    12A    -58.519908
      13A    -58.516573    14A    -58.515169    15A    -58.515134
      16A    -11.331533    17A    -11.320852    18A    -11.320546
      19A     -9.842889    20A     -9.838738    21A     -9.834030
      22A     -7.454665    23A     -7.450379    24A     -7.447677
      25A     -7.447512    26A     -7.445573    27A     -7.443523
      28A     -7.443365    29A     -7.438879    30A     -7.438726
      31A     -3.198410    32A     -3.194756    33A     -3.194566
      34A     -3.194058    35A     -3.190561    36A     -3.190377
      37A     -3.189195    38A     -3.185807    39A     -3.185649
      40A     -3.185648    41A     -3.185563    42A     -3.181539
      43A     -3.181538    44A     -3.176962    45A     -3.176959
      46A     -1.161236    47A     -1.080135    48A     -1.028441
      49A     -0.968207    50A     -0.895401    51A     -0.821170
      52A     -0.682194    53A     -0.636512    54A     -0.621047
      55A     -0.601091    56A     -0.532690    57A     -0.500358
      58A     -0.494862    59A     -0.430408    60A     -0.426952
      61A     -0.418828    62A     -0.411064    63A     -0.406761
      64A     -0.397167

  @DF-RHF Final Energy: -7833.93999332564454

   => Energetics <=

    Nuclear Repulsion Energy =           1009.9561648263443203
    One-Electron Energy =              -12921.6315098535033030
    Two-Electron Energy =                4077.7353517015144462
    Total Energy =                      -7833.9399933256445365
  Basis Set: (AUG-CC-PVTZ AUX)
    Blend: AUG-CC-PVTZ-RI
    Molecular point group: c1

    Geometry (in Angstrom), charge = 0, multiplicity = 1:

       Center              X                  Y                   Z               Mass
    ------------   -----------------  -----------------  -----------------  -----------------
         BR           0.001794754079     1.497895141403     0.119729391585    78.918337600000
         BR          -2.867879245921    -0.525267858597    -0.206371608415    78.918337600000
         BR           2.871484754079    -0.525263858597    -0.206371608415    78.918337600000
         C            0.001801754079    -0.459846858597     0.072660391585    12.000000000000
         C           -1.283032845921    -0.980480958597     0.739953591585    12.000000000000
         C            1.244958754079    -0.992446858597     0.764844391585    12.000000000000
         H            0.001803754079    -0.729248858597    -0.985463608415     1.007825032230
         H           -1.344251245921    -0.583412858597     1.770590391585     1.007825032230
         H           -1.215763245921    -2.084185858597     0.803184391585     1.007825032230
         H            1.347856754079    -0.583400858597     1.770591391585     1.007825032230
         H            1.219371754079    -2.084178858597     0.803192391585     1.007825032230

  Basis Set: AUG-CC-PVTZ
    Blend: AUG-CC-PVTZ
  Basis Set: (AUG-CC-PVTZ AUX)
    Blend: AUG-CC-PVTZ-JKFIT
	 Reference Energy          =   -7833.9399933256445365 [Eh]
	 Singles Energy            =      -0.0000000000000000 [Eh]
	 Same-Spin Energy          =      -0.4001132586433337 [Eh]
	 Opposite-Spin Energy      =      -1.0598028958875192 [Eh]
	 Correlation Energy        =      -1.4599161545308528 [Eh]
	 Total Energy              =   -7835.3999094801756655 [Eh]

	 ================> DF-SCS-MP2 Energies <==================
	-----------------------------------------------------------
	 SCS Same-Spin Scale       =       0.3333333333333333 [-]
	 SCS Opposite-Spin Scale   =       1.2000000000000000 [-]
	 SCS Same-Spin Energy      =      -0.1333710862144445 [Eh]
	 SCS Opposite-Spin Energy  =      -1.2717634750650231 [Eh]
	 SCS Correlation Energy    =      -1.4051345612794677 [Eh]
	 SCS Total Energy          =   -7835.3451278869242742 [Eh]
	-----------------------------------------------------------

  Dipole Moment: [D]
     X:    -0.1240      Y:    -2.1272      Z:     1.4038     Total:     2.5517

*** Psi4 exiting successfully. Buy a developer a beer!
