                               Psi4 1.4a3.dev225

  ==> Input File <==

--------------------------------------------------------------------------
#psi4
#
memory 32 gb

molecule  {
0 1
 Br       -0.0000060     1.5375450     0.0922240
 Br       -2.8696800    -0.4856180    -0.2338770
 Br        2.8696840    -0.4856140    -0.2338770
  C        0.0000009    -0.4002028     0.0456357
  C       -1.2431530    -0.9528030     0.7373360
  C        1.2431580    -0.9527970     0.7373390
  H        0.0000030    -0.6895990    -1.0129690
  H       -1.3460520    -0.5437630     1.7430850
  H       -1.2175640    -2.0445360     0.7756790
  H        1.3460560    -0.5437510     1.7430860
  H        1.2175710    -2.0445290     0.7756870
units angstrom
no_reorient  #important for SAPT in psi4, default
symmetry c1  #important for SAPT in psi4, default
}

set PROPERTIES_ORIGIN ["COM"]
properties('MP2/aug-cc-pvtz', properties = ['dipole'])
--------------------------------------------------------------------------

    Molecular point group: c1
  Charge       = 0
  Multiplicity = 1
  Basis Set: AUG-CC-PVTZ
    Blend: AUG-CC-PVTZ
  Basis Set: (AUG-CC-PVTZ AUX)
    Blend: AUG-CC-PVTZ-JKFIT

    Orbital Energies [Eh]
    ---------------------

    Doubly Occupied:

       1A   -490.025927     2A   -490.025927     3A   -490.024621
       4A    -65.165772     5A    -65.165772     6A    -65.164620
       7A    -58.521095     8A    -58.521095     9A    -58.519919
      10A    -58.519660    11A    -58.519660    12A    -58.519634
      13A    -58.519634    14A    -58.518499    15A    -58.518464
      16A    -11.331450    17A    -11.321248    18A    -11.321222
      19A     -9.838473    20A     -9.838473    21A     -9.837450
      22A     -7.450092    23A     -7.450092    24A     -7.449085
      25A     -7.443273    26A     -7.443273    27A     -7.443123
      28A     -7.443123    29A     -7.442263    30A     -7.442105
      31A     -3.193758    32A     -3.193756    33A     -3.192761
      34A     -3.190278    35A     -3.190277    36A     -3.190101
      37A     -3.190099    38A     -3.189275    39A     -3.189025
      40A     -3.181313    41A     -3.181313    42A     -3.181312
      43A     -3.181312    44A     -3.180288    45A     -3.180285
      46A     -1.163082    47A     -1.074248    48A     -1.029123
      49A     -0.969748    50A     -0.896287    51A     -0.823196
      52A     -0.687012    53A     -0.638941    54A     -0.622983
      55A     -0.602315    56A     -0.527129    57A     -0.502878
      58A     -0.492167    59A     -0.429768    60A     -0.428550
      61A     -0.418044    62A     -0.410066    63A     -0.408489
      64A     -0.397544

  @DF-RHF Final Energy: -7833.94154618799894

   => Energetics <=

    Nuclear Repulsion Energy =           1009.5200299736724219
    One-Electron Energy =              -12920.7796152295559295
    Two-Electron Energy =                4077.3180390678858203
    Total Energy =                      -7833.9415461879980285
  Basis Set: (AUG-CC-PVTZ AUX)
    Blend: AUG-CC-PVTZ-RI
    Molecular point group: c1

    Geometry (in Angstrom), charge = 0, multiplicity = 1:

       Center              X                  Y                   Z               Mass
    ------------   -----------------  -----------------  -----------------  -----------------
         BR          -0.000005737478     1.497548598453     0.118633536927    78.918337600000
         BR          -2.869679737478    -0.525614401547    -0.207467463073    78.918337600000
         BR           2.869684262522    -0.525610401547    -0.207467463073    78.918337600000
         C            0.000001162522    -0.440199201547     0.072045236927    12.000000000000
         C           -1.243152737478    -0.992799401547     0.763745536927    12.000000000000
         C            1.243158262522    -0.992793401547     0.763748536927    12.000000000000
         H            0.000003262522    -0.729595401547    -0.986559463073     1.007825032230
         H           -1.346051737478    -0.583759401547     1.769494536927     1.007825032230
         H           -1.217563737478    -2.084532401547     0.802088536927     1.007825032230
         H            1.346056262522    -0.583747401547     1.769495536927     1.007825032230
         H            1.217571262522    -2.084525401547     0.802096536927     1.007825032230

  Basis Set: AUG-CC-PVTZ
    Blend: AUG-CC-PVTZ
  Basis Set: (AUG-CC-PVTZ AUX)
    Blend: AUG-CC-PVTZ-JKFIT
	 Reference Energy          =   -7833.9415461879989380 [Eh]
	 Singles Energy            =      -0.0000000000000000 [Eh]
	 Same-Spin Energy          =      -0.3998767371753882 [Eh]
	 Opposite-Spin Energy      =      -1.0595219271140954 [Eh]
	 Correlation Energy        =      -1.4593986642894836 [Eh]
	 Total Energy              =   -7835.4009448522883758 [Eh]

	 ================> DF-SCS-MP2 Energies <==================
	-----------------------------------------------------------
	 SCS Same-Spin Scale       =       0.3333333333333333 [-]
	 SCS Opposite-Spin Scale   =       1.2000000000000000 [-]
	 SCS Same-Spin Energy      =      -0.1332922457251294 [Eh]
	 SCS Opposite-Spin Energy  =      -1.2714263125369145 [Eh]
	 SCS Correlation Energy    =      -1.4047185582620438 [Eh]
	 SCS Total Energy          =   -7835.3462647462611130 [Eh]
	-----------------------------------------------------------

  Dipole Moment: [D]
     X:     0.0000      Y:    -2.0601      Z:     1.4584     Total:     2.5241

*** Psi4 exiting successfully. Buy a developer a beer!
