                               Psi4 1.3.2 release

  ==> Input File <==

--------------------------------------------------------------------------
#psi4
#
memory 32 gb

molecule  {
0 1
 Br       -0.0296780     1.5366143     0.1091283
 Br       -2.8699640    -0.4854280    -0.2337770
 Br        2.8699250    -0.4854600    -0.2337790
  C       -0.0000100    -0.4202620     0.0447250
  C       -1.2431490    -0.9529940     0.7369810
  C        1.2431140    -0.9530360     0.7369740
  H       -0.0000150    -0.6893630    -1.0135150
  H       -1.3458500    -0.5442600     1.7429190
  H       -1.2174500    -2.0447140     0.7751110
  H        1.3458210    -0.5443190     1.7429160
  H        1.2173960    -2.0447570     0.7750850
units angstrom
no_reorient  #important for SAPT in psi4, default
symmetry c1  #important for SAPT in psi4, default
}

set PROPERTIES_ORIGIN ["COM"]
properties('MP2/aug-cc-pvtz', properties = ['dipole'])
--------------------------------------------------------------------------

    Molecular point group: c1
  Charge       = 0
  Multiplicity = 1
  Basis Set: AUG-CC-PVTZ
    Blend: AUG-CC-PVTZ
  Basis Set: (AUG-CC-PVTZ AUX)
    Blend: AUG-CC-PVTZ-JKFIT

    Orbital Energies [Eh]
    ---------------------

    Doubly Occupied:

       1A   -490.026702     2A   -490.026239     3A   -490.022794
       4A    -65.166534     5A    -65.166078     6A    -65.162746
       7A    -58.521861     8A    -58.521405     9A    -58.520420
      10A    -58.520394    11A    -58.519964    12A    -58.519936
      13A    -58.518047    14A    -58.516629    15A    -58.516592
      16A    -11.332100    17A    -11.321698    18A    -11.321054
      19A     -9.839222    20A     -9.838774    21A     -9.835482
      22A     -7.450853    23A     -7.450406    24A     -7.447057
      25A     -7.444011    26A     -7.443859    27A     -7.443567
      28A     -7.443406    29A     -7.440312    30A     -7.440144
      31A     -3.194525    32A     -3.194080    33A     -3.191035
      34A     -3.190857    35A     -3.190698    36A     -3.190594
      37A     -3.190403    38A     -3.187288    39A     -3.187028
      40A     -3.182040    41A     -3.182039    42A     -3.181588
      43A     -3.181587    44A     -3.178358    45A     -3.178355
      46A     -1.163975    47A     -1.075070    48A     -1.026641
      49A     -0.970335    50A     -0.897660    51A     -0.824713
      52A     -0.687292    53A     -0.639456    54A     -0.624856
      55A     -0.605358    56A     -0.527830    57A     -0.497010
      58A     -0.493309    59A     -0.429916    60A     -0.428065
      61A     -0.418564    62A     -0.411054    63A     -0.408067
      64A     -0.396913

  @DF-RHF Final Energy: -7833.94173945184502

   => Energetics <=

    Nuclear Repulsion Energy =           1009.1150903561090217
    One-Electron Energy =              -12919.9839765959131910
    Two-Electron Energy =                4076.9271467879598276
    Total Energy =                      -7833.9417394518450237
  Basis Set: (AUG-CC-PVTZ AUX)
    Blend: AUG-CC-PVTZ-RI
    Molecular point group: c1

    Geometry (in Angstrom), charge = 0, multiplicity = 1:

       Center              X                  Y                   Z               Mass
    ------------   -----------------  -----------------  -----------------  -----------------
         BR          -0.021233419338     1.497674135473     0.130757143433    78.918337600000
         BR          -2.861519419338    -0.524368164527    -0.212148156567    78.918337600000
         BR           2.878369580662    -0.524400164527    -0.212150156567    78.918337600000
         C            0.008434580662    -0.459202164527     0.066353843433    12.000000000000
         C           -1.234704419338    -0.991934164527     0.758609843433    12.000000000000
         C            1.251558580662    -0.991976164527     0.758602843433    12.000000000000
         H            0.008429580662    -0.728303164527    -0.991886156567     1.007825032230
         H           -1.337405419338    -0.583200164527     1.764547843433     1.007825032230
         H           -1.209005419338    -2.083654164527     0.796739843433     1.007825032230
         H            1.354265580662    -0.583259164527     1.764544843433     1.007825032230
         H            1.225840580662    -2.083697164527     0.796713843433     1.007825032230

  Basis Set: AUG-CC-PVTZ
    Blend: AUG-CC-PVTZ
  Basis Set: (AUG-CC-PVTZ AUX)
    Blend: AUG-CC-PVTZ-JKFIT
	 Reference Energy          =   -7833.9417394518450237 [Eh]
	 Singles Energy            =      -0.0000000000000000 [Eh]
	 Same-Spin Energy          =      -0.3997756553063049 [Eh]
	 Opposite-Spin Energy      =      -1.0594032297855476 [Eh]
	 Correlation Energy        =      -1.4591788850918523 [Eh]
	 Total Energy              =   -7835.4009183369371385 [Eh]

	 ================> DF-SCS-MP2 Energies <==================
	-----------------------------------------------------------
	 SCS Same-Spin Scale       =       0.3333333333333333 [-]
	 SCS Opposite-Spin Scale   =       1.2000000000000000 [-]
	 SCS Same-Spin Energy      =      -0.1332585517687683 [Eh]
	 SCS Opposite-Spin Energy  =      -1.2712838757426570 [Eh]
	 SCS Correlation Energy    =      -1.4045424275114253 [Eh]
	 SCS Total Energy          =   -7835.3462818793568658 [Eh]
	-----------------------------------------------------------

  Dipole Moment: [D]
     X:     0.0155      Y:    -2.1197      Z:     1.4494     Total:     2.5679

*** Psi4 exiting successfully. Buy a developer a beer!
