                               Psi4 1.3.2 release

  ==> Input File <==

--------------------------------------------------------------------------
#psi4
#
memory 32 gb

molecule  {
0 1
 Br        0.0000491     1.5378528     0.0581102
 Br       -2.8699640    -0.4854280    -0.2337770
 Br        2.8699250    -0.4854600    -0.2337790
  C       -0.0000100    -0.4202620     0.0447250
  C       -1.2431490    -0.9529940     0.7369810
  C        1.2431140    -0.9530360     0.7369740
  H       -0.0000150    -0.6893630    -1.0135150
  H       -1.3458500    -0.5442600     1.7429190
  H       -1.2174500    -2.0447140     0.7751110
  H        1.3458210    -0.5443190     1.7429160
  H        1.2173960    -2.0447570     0.7750850
units angstrom
no_reorient  #important for SAPT in psi4, default
symmetry c1  #important for SAPT in psi4, default
}

set PROPERTIES_ORIGIN ["COM"]
properties('MP2/aug-cc-pvtz', properties = ['dipole'])
--------------------------------------------------------------------------

    Molecular point group: c1
  Charge       = 0
  Multiplicity = 1
  Basis Set: AUG-CC-PVTZ
    Blend: AUG-CC-PVTZ
  Basis Set: (AUG-CC-PVTZ AUX)
    Blend: AUG-CC-PVTZ-JKFIT

    Orbital Energies [Eh]
    ---------------------

    Doubly Occupied:

       1A   -490.026434     2A   -490.026434     3A   -490.022594
       4A    -65.166270     5A    -65.166269     6A    -65.162537
       7A    -58.521598     8A    -58.521597     9A    -58.520155
      10A    -58.520155    11A    -58.520129    12A    -58.520128
      13A    -58.517839    14A    -58.516420    15A    -58.516384
      16A    -11.331872    17A    -11.321609    18A    -11.321582
      19A     -9.838963    20A     -9.838963    21A     -9.835265
      22A     -7.450598    23A     -7.450597    24A     -7.446840
      25A     -7.443752    26A     -7.443752    27A     -7.443597
      28A     -7.443596    29A     -7.440089    30A     -7.439928
      31A     -3.194273    32A     -3.194271    33A     -3.190782
      34A     -3.190781    35A     -3.190598    36A     -3.190597
      37A     -3.190481    38A     -3.187068    39A     -3.186813
      40A     -3.181776    41A     -3.181775    42A     -3.181775
      43A     -3.181774    44A     -3.178140    45A     -3.178137
      46A     -1.163594    47A     -1.075048    48A     -1.026697
      49A     -0.970617    50A     -0.897662    51A     -0.824274
      52A     -0.687240    53A     -0.639339    54A     -0.624887
      55A     -0.605661    56A     -0.527972    57A     -0.496701
      58A     -0.493331    59A     -0.429446    60A     -0.428585
      61A     -0.418228    62A     -0.411083    63A     -0.407974
      64A     -0.396481

  @DF-RHF Final Energy: -7833.94179616762085

   => Energetics <=

    Nuclear Repulsion Energy =           1009.0805162214446682
    One-Electron Energy =              -12919.9250186576155102
    Two-Electron Energy =                4076.9027062685513556
    Total Energy =                      -7833.9417961676208506
  Basis Set: (AUG-CC-PVTZ AUX)
    Blend: AUG-CC-PVTZ-RI
    Molecular point group: c1

    Geometry (in Angstrom), charge = 0, multiplicity = 1:

       Center              X                  Y                   Z               Mass
    ------------   -----------------  -----------------  -----------------  -----------------
         BR           0.000048530123     1.498560790896     0.094232738905    78.918337600000
         BR          -2.869964569877    -0.524720009104    -0.197654461095    78.918337600000
         BR           2.869924430123    -0.524752009104    -0.197656461095    78.918337600000
         C           -0.000010569877    -0.459554009104     0.080847538905    12.000000000000
         C           -1.243149569877    -0.992286009104     0.773103538905    12.000000000000
         C            1.243113430123    -0.992328009104     0.773096538905    12.000000000000
         H           -0.000015569877    -0.728655009104    -0.977392461095     1.007825032230
         H           -1.345850569877    -0.583552009104     1.779041538905     1.007825032230
         H           -1.217450569877    -2.084006009104     0.811233538905     1.007825032230
         H            1.345820430123    -0.583611009104     1.779038538905     1.007825032230
         H            1.217395430123    -2.084049009104     0.811207538905     1.007825032230

  Basis Set: AUG-CC-PVTZ
    Blend: AUG-CC-PVTZ
  Basis Set: (AUG-CC-PVTZ AUX)
    Blend: AUG-CC-PVTZ-JKFIT
	 Reference Energy          =   -7833.9417961676208506 [Eh]
	 Singles Energy            =      -0.0000000000000000 [Eh]
	 Same-Spin Energy          =      -0.3997341400836646 [Eh]
	 Opposite-Spin Energy      =      -1.0593289115735789 [Eh]
	 Correlation Energy        =      -1.4590630516572434 [Eh]
	 Total Energy              =   -7835.4008592192776632 [Eh]

	 ================> DF-SCS-MP2 Energies <==================
	-----------------------------------------------------------
	 SCS Same-Spin Scale       =       0.3333333333333333 [-]
	 SCS Opposite-Spin Scale   =       1.2000000000000000 [-]
	 SCS Same-Spin Energy      =      -0.1332447133612215 [Eh]
	 SCS Opposite-Spin Energy  =      -1.2711946938882945 [Eh]
	 SCS Correlation Energy    =      -1.4044394072495161 [Eh]
	 SCS Total Energy          =   -7835.3462355748706614 [Eh]
	-----------------------------------------------------------

  Dipole Moment: [D]
     X:    -0.0000      Y:    -2.1225      Z:     1.4719     Total:     2.5830

*** Psi4 exiting successfully. Buy a developer a beer!
