                               Psi4 1.3.2 release

  ==> Input File <==

--------------------------------------------------------------------------
#psi4
#
memory 32 gb

molecule  {
0 1
 Br        0.0000490     1.5373210     0.0922820
 Br       -2.8699640    -0.4854280    -0.2337770
 Br        2.8699250    -0.4854600    -0.2337790
  C       -0.0000160    -0.6202030     0.0398677
  C       -1.2431490    -0.9529940     0.7369810
  C        1.2431140    -0.9530360     0.7369740
  H       -0.0000150    -0.6893630    -1.0135150
  H       -1.3458500    -0.5442600     1.7429190
  H       -1.2174500    -2.0447140     0.7751110
  H        1.3458210    -0.5443190     1.7429160
  H        1.2173960    -2.0447570     0.7750850
units angstrom
no_reorient  #important for SAPT in psi4, default
symmetry c1  #important for SAPT in psi4, default
}

set PROPERTIES_ORIGIN ["COM"]
properties('MP2/aug-cc-pvtz', properties = ['dipole'])
--------------------------------------------------------------------------

    Molecular point group: c1
  Charge       = 0
  Multiplicity = 1
  Basis Set: AUG-CC-PVTZ
    Blend: AUG-CC-PVTZ
  Basis Set: (AUG-CC-PVTZ AUX)
    Blend: AUG-CC-PVTZ-JKFIT

    Orbital Energies [Eh]
    ---------------------

    Doubly Occupied:

       1A   -490.032583     2A   -490.032582     3A   -489.998587
       4A    -65.172307     5A    -65.172306     6A    -65.138431
       7A    -58.527681     8A    -58.527680     9A    -58.526168
      10A    -58.526167    11A    -58.526132    12A    -58.526131
      13A    -58.493648    14A    -58.492378    15A    -58.492323
      16A    -11.345662    17A    -11.326329    18A    -11.326304
      19A     -9.844911    20A     -9.844910    21A     -9.810719
      22A     -7.456697    23A     -7.456696    24A     -7.449588
      25A     -7.449588    26A     -7.449367    27A     -7.449366
      28A     -7.421627    29A     -7.415861    30A     -7.415624
      31A     -3.200472    32A     -3.200470    33A     -3.196869
      34A     -3.196868    35A     -3.196611    36A     -3.196610
      37A     -3.187436    38A     -3.187436    39A     -3.187434
      40A     -3.187433    41A     -3.164829    42A     -3.162180
      43A     -3.161841    44A     -3.154337    45A     -3.154334
      46A     -1.178010    47A     -1.084800    48A     -1.013076
      49A     -0.966027    50A     -0.913526    51A     -0.838341
      52A     -0.689495    53A     -0.659939    54A     -0.638383
      55A     -0.630024    56A     -0.535718    57A     -0.506471
      58A     -0.441608    59A     -0.429858    60A     -0.426795
      61A     -0.419740    62A     -0.419174    63A     -0.396378
      64A     -0.385301

  @DF-RHF Final Energy: -7833.92001105341569

   => Energetics <=

    Nuclear Repulsion Energy =           1005.0337998101086896
    One-Electron Energy =              -12911.9952591404417035
    Two-Electron Energy =                4073.0414482769165261
    Total Energy =                      -7833.9200110534156920
  Basis Set: (AUG-CC-PVTZ AUX)
    Blend: AUG-CC-PVTZ-RI
    Molecular point group: c1

    Geometry (in Angstrom), charge = 0, multiplicity = 1:

       Center              X                  Y                   Z               Mass
    ------------   -----------------  -----------------  -----------------  -----------------
         BR           0.000048717717     1.506817012090     0.118906519730    78.918337600000
         BR          -2.869964282283    -0.515931987910    -0.207152480270    78.918337600000
         BR           2.869924717717    -0.515963987910    -0.207154480270    78.918337600000
         C           -0.000016282283    -0.650706987910     0.066492219730    12.000000000000
         C           -1.243149282283    -0.983497987910     0.763605519730    12.000000000000
         C            1.243113717717    -0.983539987910     0.763598519730    12.000000000000
         H           -0.000015282283    -0.719866987910    -0.986890480270     1.007825032230
         H           -1.345850282283    -0.574763987910     1.769543519730     1.007825032230
         H           -1.217450282283    -2.075217987910     0.801735519730     1.007825032230
         H            1.345820717717    -0.574822987910     1.769540519730     1.007825032230
         H            1.217395717717    -2.075260987910     0.801709519730     1.007825032230

  Basis Set: AUG-CC-PVTZ
    Blend: AUG-CC-PVTZ
  Basis Set: (AUG-CC-PVTZ AUX)
    Blend: AUG-CC-PVTZ-JKFIT
	 Reference Energy          =   -7833.9200110534156920 [Eh]
	 Singles Energy            =      -0.0000000000000000 [Eh]
	 Same-Spin Energy          =      -0.3997676215001720 [Eh]
	 Opposite-Spin Energy      =      -1.0592772022178565 [Eh]
	 Correlation Energy        =      -1.4590448237180285 [Eh]
	 Total Energy              =   -7835.3790558771333963 [Eh]

	 ================> DF-SCS-MP2 Energies <==================
	-----------------------------------------------------------
	 SCS Same-Spin Scale       =       0.3333333333333333 [-]
	 SCS Opposite-Spin Scale   =       1.2000000000000000 [-]
	 SCS Same-Spin Energy      =      -0.1332558738333907 [Eh]
	 SCS Opposite-Spin Energy  =      -1.2711326426614278 [Eh]
	 SCS Correlation Energy    =      -1.4043885164948184 [Eh]
	 SCS Total Energy          =   -7835.3243995699103834 [Eh]
	-----------------------------------------------------------

  Dipole Moment: [D]
     X:    -0.0000      Y:    -2.7987      Z:     1.4639     Total:     3.1585

*** Psi4 exiting successfully. Buy a developer a beer!
