                               Psi4 1.3.2 release

  ==> Input File <==

--------------------------------------------------------------------------
#psi4
#
memory 32 gb

molecule  {
0 1
 Br        0.0000490     1.5373210     0.0922820
 Br       -2.8510644    -0.4693736    -0.2571194
 Br        2.8699250    -0.4854600    -0.2337790
  C       -0.0000100    -0.4202620     0.0447250
  C       -1.2431490    -0.9529940     0.7369810
  C        1.2431140    -0.9530360     0.7369740
  H       -0.0000150    -0.6893630    -1.0135150
  H       -1.3458500    -0.5442600     1.7429190
  H       -1.2174500    -2.0447140     0.7751110
  H        1.3458210    -0.5443190     1.7429160
  H        1.2173960    -2.0447570     0.7750850
units angstrom
no_reorient  #important for SAPT in psi4, default
symmetry c1  #important for SAPT in psi4, default
}

set PROPERTIES_ORIGIN ["COM"]
properties('MP2/aug-cc-pvtz', properties = ['dipole'])
--------------------------------------------------------------------------

    Molecular point group: c1
  Charge       = 0
  Multiplicity = 1
  Basis Set: AUG-CC-PVTZ
    Blend: AUG-CC-PVTZ
  Basis Set: (AUG-CC-PVTZ AUX)
    Blend: AUG-CC-PVTZ-JKFIT

    Orbital Energies [Eh]
    ---------------------

    Doubly Occupied:

       1A   -490.026358     2A   -490.026254     3A   -490.022551
       4A    -65.166203     5A    -65.166091     6A    -65.162503
       7A    -58.521530     8A    -58.521417     9A    -58.520087
      10A    -58.520061    11A    -58.519977    12A    -58.519950
      13A    -58.517804    14A    -58.516386    15A    -58.516349
      16A    -11.331707    17A    -11.321553    18A    -11.321188
      19A     -9.838904    20A     -9.838784    21A     -9.835239
      22A     -7.450540    23A     -7.450414    24A     -7.446815
      25A     -7.443693    26A     -7.443577    27A     -7.443538
      28A     -7.443420    29A     -7.440069    30A     -7.439899
      31A     -3.194215    32A     -3.194086    33A     -3.190723
      34A     -3.190600    35A     -3.190538    36A     -3.190457
      37A     -3.190415    38A     -3.187047    39A     -3.186783
      40A     -3.181714    41A     -3.181713    42A     -3.181603
      43A     -3.181602    44A     -3.178113    45A     -3.178110
      46A     -1.163969    47A     -1.075021    48A     -1.026213
      49A     -0.970330    50A     -0.897619    51A     -0.824635
      52A     -0.687183    53A     -0.639535    54A     -0.624815
      55A     -0.605151    56A     -0.528055    57A     -0.496738
      58A     -0.493124    59A     -0.429780    60A     -0.428653
      61A     -0.418473    62A     -0.410846    63A     -0.407841
      64A     -0.396130

  @DF-RHF Final Energy: -7833.94155344526462

   => Energetics <=

    Nuclear Repulsion Energy =           1010.9340714590517791
    One-Electron Energy =              -12923.6418661576990417
    Two-Electron Energy =                4078.7662412533818497
    Total Energy =                      -7833.9415534452646170
  Basis Set: (AUG-CC-PVTZ AUX)
    Blend: AUG-CC-PVTZ-RI
    Molecular point group: c1

    Geometry (in Angstrom), charge = 0, multiplicity = 1:

       Center              X                  Y                   Z               Mass
    ------------   -----------------  -----------------  -----------------  -----------------
         BR          -0.005320715289     1.493619186584     0.125328022418    78.918337600000
         BR          -2.856434115289    -0.513075413416    -0.224073377582    78.918337600000
         BR           2.864555284711    -0.529161813416    -0.200732977582    78.918337600000
         C           -0.005379715289    -0.463963813416     0.077771022418    12.000000000000
         C           -1.248518715289    -0.996695813416     0.770027022418    12.000000000000
         C            1.237744284711    -0.996737813416     0.770020022418    12.000000000000
         H           -0.005384715289    -0.733064813416    -0.980468977582     1.007825032230
         H           -1.351219715289    -0.587961813416     1.775965022418     1.007825032230
         H           -1.222819715289    -2.088415813416     0.808157022418     1.007825032230
         H            1.340451284711    -0.588020813416     1.775962022418     1.007825032230
         H            1.212026284711    -2.088458813416     0.808131022418     1.007825032230

  Basis Set: AUG-CC-PVTZ
    Blend: AUG-CC-PVTZ
  Basis Set: (AUG-CC-PVTZ AUX)
    Blend: AUG-CC-PVTZ-JKFIT
	 Reference Energy          =   -7833.9415534452646170 [Eh]
	 Singles Energy            =      -0.0000000000000000 [Eh]
	 Same-Spin Energy          =      -0.3998648544558359 [Eh]
	 Opposite-Spin Energy      =      -1.0595118634921790 [Eh]
	 Correlation Energy        =      -1.4593767179480148 [Eh]
	 Total Energy              =   -7835.4009301632122515 [Eh]

	 ================> DF-SCS-MP2 Energies <==================
	-----------------------------------------------------------
	 SCS Same-Spin Scale       =       0.3333333333333333 [-]
	 SCS Opposite-Spin Scale   =       1.2000000000000000 [-]
	 SCS Same-Spin Energy      =      -0.1332882848186119 [Eh]
	 SCS Opposite-Spin Energy  =      -1.2714142361906147 [Eh]
	 SCS Correlation Energy    =      -1.4047025210092265 [Eh]
	 SCS Total Energy          =   -7835.3462559662739295 [Eh]
	-----------------------------------------------------------

  Dipole Moment: [D]
     X:    -0.0210      Y:    -2.1258      Z:     1.4692     Total:     2.5842

*** Psi4 exiting successfully. Buy a developer a beer!
