                               Psi4 1.3.2 release

  ==> Input File <==

--------------------------------------------------------------------------
#psi4
#
memory 32 gb

molecule  {
0 1
 Br        0.1780939     1.5290440    -0.0089204
 Br       -2.8699640    -0.4854280    -0.2337770
 Br        2.8699250    -0.4854600    -0.2337790
  C       -0.0000100    -0.4202620     0.0447250
  C       -1.2431490    -0.9529940     0.7369810
  C        1.2431140    -0.9530360     0.7369740
  H       -0.0000150    -0.6893630    -1.0135150
  H       -1.3458500    -0.5442600     1.7429190
  H       -1.2174500    -2.0447140     0.7751110
  H        1.3458210    -0.5443190     1.7429160
  H        1.2173960    -2.0447570     0.7750850
units angstrom
no_reorient  #important for SAPT in psi4, default
symmetry c1  #important for SAPT in psi4, default
}

set PROPERTIES_ORIGIN ["COM"]
properties('MP2/aug-cc-pvtz', properties = ['dipole'])
--------------------------------------------------------------------------

    Molecular point group: c1
  Charge       = 0
  Multiplicity = 1
  Basis Set: AUG-CC-PVTZ
    Blend: AUG-CC-PVTZ
  Basis Set: (AUG-CC-PVTZ AUX)
    Blend: AUG-CC-PVTZ-JKFIT

    Orbital Energies [Eh]
    ---------------------

    Doubly Occupied:

       1A   -490.027721     2A   -490.024860     3A   -490.022083
       4A    -65.167542     5A    -65.164729     6A    -65.162045
       7A    -58.522872     8A    -58.521426     9A    -58.521404
      10A    -58.520053    11A    -58.518612    12A    -58.518579
      13A    -58.517346    14A    -58.515921    15A    -58.515884
      16A    -11.331537    17A    -11.323846    18A    -11.319958
      19A     -9.840220    20A     -9.837462    21A     -9.834801
      22A     -7.451856    23A     -7.449102    24A     -7.446388
      25A     -7.444996    26A     -7.444863    27A     -7.442259
      28A     -7.442078    29A     -7.439609    30A     -7.439454
      31A     -3.195527    32A     -3.192785    33A     -3.192021
      34A     -3.191872    35A     -3.190036    36A     -3.189306
      37A     -3.189076    38A     -3.186614    39A     -3.186354
      40A     -3.183034    41A     -3.183033    42A     -3.180256
      43A     -3.180252    44A     -3.177647    45A     -3.177644
      46A     -1.163504    47A     -1.075439    48A     -1.026162
      49A     -0.971196    50A     -0.897631    51A     -0.823729
      52A     -0.687180    53A     -0.639475    54A     -0.625084
      55A     -0.605979    56A     -0.528337    57A     -0.496225
      58A     -0.493214    59A     -0.433076    60A     -0.426147
      61A     -0.418005    62A     -0.411375    63A     -0.407753
      64A     -0.393198

  @DF-RHF Final Energy: -7833.93910948211851

   => Energetics <=

    Nuclear Repulsion Energy =           1010.2235715871079265
    One-Electron Energy =              -12922.2300285742821870
    Two-Electron Energy =                4078.0673475050557499
    Total Energy =                      -7833.9391094821185106
  Basis Set: (AUG-CC-PVTZ AUX)
    Blend: AUG-CC-PVTZ-RI
    Molecular point group: c1

    Geometry (in Angstrom), charge = 0, multiplicity = 1:

       Center              X                  Y                   Z               Mass
    ------------   -----------------  -----------------  -----------------  -----------------
         BR           0.127512710469     1.492254476576     0.046244814028    78.918337600000
         BR          -2.920545189531    -0.522217523424    -0.178611785972    78.918337600000
         BR           2.819343810469    -0.522249523424    -0.178613785972    78.918337600000
         C           -0.050591189531    -0.457051523424     0.099890214028    12.000000000000
         C           -1.293730189531    -0.989783523424     0.792146214028    12.000000000000
         C            1.192532810469    -0.989825523424     0.792139214028    12.000000000000
         H           -0.050596189531    -0.726152523424    -0.958349785972     1.007825032230
         H           -1.396431189531    -0.581049523424     1.798084214028     1.007825032230
         H           -1.268031189531    -2.081503523424     0.830276214028     1.007825032230
         H            1.295239810469    -0.581108523424     1.798081214028     1.007825032230
         H            1.166814810469    -2.081546523424     0.830250214028     1.007825032230

  Basis Set: AUG-CC-PVTZ
    Blend: AUG-CC-PVTZ
  Basis Set: (AUG-CC-PVTZ AUX)
    Blend: AUG-CC-PVTZ-JKFIT
	 Reference Energy          =   -7833.9391094821185106 [Eh]
	 Singles Energy            =      -0.0000000000000000 [Eh]
	 Same-Spin Energy          =      -0.3999316640763489 [Eh]
	 Opposite-Spin Energy      =      -1.0596007687435400 [Eh]
	 Correlation Energy        =      -1.4595324328198889 [Eh]
	 Total Energy              =   -7835.3986419149387075 [Eh]

	 ================> DF-SCS-MP2 Energies <==================
	-----------------------------------------------------------
	 SCS Same-Spin Scale       =       0.3333333333333333 [-]
	 SCS Opposite-Spin Scale   =       1.2000000000000000 [-]
	 SCS Same-Spin Energy      =      -0.1333105546921163 [Eh]
	 SCS Opposite-Spin Energy  =      -1.2715209224922479 [Eh]
	 SCS Correlation Energy    =      -1.4048314771843642 [Eh]
	 SCS Total Energy          =   -7835.3439409593029268 [Eh]
	-----------------------------------------------------------

  Dipole Moment: [D]
     X:    -0.0935      Y:    -2.1177      Z:     1.5003     Total:     2.5970

*** Psi4 exiting successfully. Buy a developer a beer!
