                               Psi4 1.4a3.dev225

  ==> Input File <==

--------------------------------------------------------------------------
#psi4
#
memory 32 gb

molecule  {
0 1
 Br       -0.0000060     1.5375450     0.0922240
 Br       -2.8696800    -0.4856180    -0.2338770
 Br        2.8696840    -0.4856140    -0.2338770
  C        0.0000012    -0.4701826     0.0439532
  C       -1.2431530    -0.9528030     0.7373360
  C        1.2431580    -0.9527970     0.7373390
  H        0.0000030    -0.6895990    -1.0129690
  H       -1.3460520    -0.5437630     1.7430850
  H       -1.2175640    -2.0445360     0.7756790
  H        1.3460560    -0.5437510     1.7430860
  H        1.2175710    -2.0445290     0.7756870
units angstrom
no_reorient  #important for SAPT in psi4, default
symmetry c1  #important for SAPT in psi4, default
}

set PROPERTIES_ORIGIN ["COM"]
properties('MP2/aug-cc-pvtz', properties = ['dipole'])
--------------------------------------------------------------------------

    Molecular point group: c1
  Charge       = 0
  Multiplicity = 1
  Basis Set: AUG-CC-PVTZ
    Blend: AUG-CC-PVTZ
  Basis Set: (AUG-CC-PVTZ AUX)
    Blend: AUG-CC-PVTZ-JKFIT

    Orbital Energies [Eh]
    ---------------------

    Doubly Occupied:

       1A   -490.027848     2A   -490.027848     3A   -490.017596
       4A    -65.167660     5A    -65.167660     6A    -65.157453
       7A    -58.522998     8A    -58.522998     9A    -58.521540
      10A    -58.521540    11A    -58.521511    12A    -58.521511
      13A    -58.512751    14A    -58.511348    15A    -58.511307
      16A    -11.334074    17A    -11.322163    18A    -11.322137
      19A     -9.840333    20A     -9.840333    21A     -9.829988
      22A     -7.452002    23A     -7.452002    24A     -7.445099
      25A     -7.445099    26A     -7.444927    27A     -7.444927
      28A     -7.441408    29A     -7.434867    30A     -7.434681
      31A     -3.195699    32A     -3.195697    33A     -3.192184
      34A     -3.192183    35A     -3.191982    36A     -3.191980
      37A     -3.184954    38A     -3.183082    39A     -3.183082
      40A     -3.183081    41A     -3.183081    42A     -3.181731
      43A     -3.181451    44A     -3.172989    45A     -3.172986
      46A     -1.166432    47A     -1.077298    48A     -1.021181
      49A     -0.971419    50A     -0.901278    51A     -0.828040
      52A     -0.687933    53A     -0.642029    54A     -0.628521
      55A     -0.613598    56A     -0.529770    57A     -0.496426
      58A     -0.481975    59A     -0.429265    60A     -0.427909
      61A     -0.419372    62A     -0.413414    63A     -0.406348
      64A     -0.394701

  @DF-RHF Final Energy: -7833.94026937467333

   => Energetics <=

    Nuclear Repulsion Energy =           1008.0658937098089609
    One-Electron Energy =              -12917.9309701301663154
    Two-Electron Energy =                4075.9248070456837922
    Total Energy =                      -7833.9402693746742443
  Basis Set: (AUG-CC-PVTZ AUX)
    Blend: AUG-CC-PVTZ-RI
    Molecular point group: c1

    Geometry (in Angstrom), charge = 0, multiplicity = 1:

       Center              X                  Y                   Z               Mass
    ------------   -----------------  -----------------  -----------------  -----------------
         BR          -0.000005750437     1.500571547771     0.118706216647    78.918337600000
         BR          -2.869679750437    -0.522591452229    -0.207394783353    78.918337600000
         BR           2.869684249563    -0.522587452229    -0.207394783353    78.918337600000
         C            0.000001449563    -0.507156052229     0.070435416647    12.000000000000
         C           -1.243152750437    -0.989776452229     0.763818216647    12.000000000000
         C            1.243158249563    -0.989770452229     0.763821216647    12.000000000000
         H            0.000003249563    -0.726572452229    -0.986486783353     1.007825032230
         H           -1.346051750437    -0.580736452229     1.769567216647     1.007825032230
         H           -1.217563750437    -2.081509452229     0.802161216647     1.007825032230
         H            1.346056249563    -0.580724452229     1.769568216647     1.007825032230
         H            1.217571249563    -2.081502452229     0.802169216647     1.007825032230

  Basis Set: AUG-CC-PVTZ
    Blend: AUG-CC-PVTZ
  Basis Set: (AUG-CC-PVTZ AUX)
    Blend: AUG-CC-PVTZ-JKFIT
	 Reference Energy          =   -7833.9402693746733348 [Eh]
	 Singles Energy            =      -0.0000000000000000 [Eh]
	 Same-Spin Energy          =      -0.3995754830177958 [Eh]
	 Opposite-Spin Energy      =      -1.0591393440296990 [Eh]
	 Correlation Energy        =      -1.4587148270474948 [Eh]
	 Total Energy              =   -7835.3989842017208503 [Eh]

	 ================> DF-SCS-MP2 Energies <==================
	-----------------------------------------------------------
	 SCS Same-Spin Scale       =       0.3333333333333333 [-]
	 SCS Opposite-Spin Scale   =       1.2000000000000000 [-]
	 SCS Same-Spin Energy      =      -0.1331918276725986 [Eh]
	 SCS Opposite-Spin Energy  =      -1.2709672128356388 [Eh]
	 SCS Correlation Energy    =      -1.4041590405082374 [Eh]
	 SCS Total Energy          =   -7835.3444284151819375 [Eh]
	-----------------------------------------------------------

  Dipole Moment: [D]
     X:     0.0000      Y:    -2.2776      Z:     1.4572     Total:     2.7039

*** Psi4 exiting successfully. Buy a developer a beer!
