                               Psi4 1.4a3.dev225

  ==> Input File <==

--------------------------------------------------------------------------
#psi4
#
memory 32 gb

molecule  {
0 1
 Br       -0.0000060     1.5375450     0.0922240
 Br       -2.8696800    -0.4856180    -0.2338770
 Br        2.8696840    -0.4856140    -0.2338770
  C        0.0000010    -0.4201970     0.0451550
  C       -1.2264808    -0.9575917     0.7472911
  C        1.2431580    -0.9527970     0.7373390
  H        0.0000030    -0.6895990    -1.0129690
  H       -1.3460520    -0.5437630     1.7430850
  H       -1.2175640    -2.0445360     0.7756790
  H        1.3460560    -0.5437510     1.7430860
  H        1.2175710    -2.0445290     0.7756870
units angstrom
no_reorient  #important for SAPT in psi4, default
symmetry c1  #important for SAPT in psi4, default
}

set PROPERTIES_ORIGIN ["COM"]
properties('MP2/aug-cc-pvtz', properties = ['dipole'])
--------------------------------------------------------------------------

    Molecular point group: c1
  Charge       = 0
  Multiplicity = 1
  Basis Set: AUG-CC-PVTZ
    Blend: AUG-CC-PVTZ
  Basis Set: (AUG-CC-PVTZ AUX)
    Blend: AUG-CC-PVTZ-JKFIT

    Orbital Energies [Eh]
    ---------------------

    Doubly Occupied:

       1A   -490.026589     2A   -490.024967     3A   -490.023327
       4A    -65.166427     5A    -65.164746     6A    -65.163267
       7A    -58.521754     8A    -58.520313     9A    -58.520287
      10A    -58.520076    11A    -58.518634    12A    -58.518608
      13A    -58.518572    14A    -58.517148    15A    -58.517110
      16A    -11.332283    17A    -11.322045    18A    -11.321725
      19A     -9.839122    20A     -9.837336    21A     -9.835990
      22A     -7.450753    23A     -7.448913    24A     -7.447578
      25A     -7.443915    26A     -7.443759    27A     -7.442132
      28A     -7.441978    29A     -7.440810    30A     -7.440638
      31A     -3.194424    32A     -3.192555    33A     -3.191226
      34A     -3.190938    35A     -3.190753    36A     -3.189130
      37A     -3.188948    38A     -3.187807    39A     -3.187542
      40A     -3.181942    41A     -3.181941    42A     -3.180182
      43A     -3.180181    44A     -3.178843    45A     -3.178840
      46A     -1.165103    47A     -1.073453    48A     -1.025898
      49A     -0.971206    50A     -0.898486    51A     -0.825943
      52A     -0.689537    53A     -0.640651    54A     -0.626601
      55A     -0.607224    56A     -0.526590    57A     -0.497681
      58A     -0.489839    59A     -0.429315    60A     -0.428891
      61A     -0.418226    62A     -0.410911    63A     -0.408479
      64A     -0.396617

  @DF-RHF Final Energy: -7833.94161273777172

   => Energetics <=

    Nuclear Repulsion Energy =           1008.7712255121330145
    One-Electron Energy =              -12919.3122623082817881
    Two-Electron Energy =                4076.5994240583763712
    Total Energy =                      -7833.9416127377717203
  Basis Set: (AUG-CC-PVTZ AUX)
    Blend: AUG-CC-PVTZ-RI
    Molecular point group: c1

    Geometry (in Angstrom), charge = 0, multiplicity = 1:

       Center              X                  Y                   Z               Mass
    ------------   -----------------  -----------------  -----------------  -----------------
         BR          -0.000725938420     1.498619156680     0.118224266952    78.918337600000
         BR          -2.870399938420    -0.524543843320    -0.207876733048    78.918337600000
         BR           2.868964061580    -0.524539843320    -0.207876733048    78.918337600000
         C           -0.000718938420    -0.459122843320     0.071155266952    12.000000000000
         C           -1.227200738420    -0.996517543320     0.773291366952    12.000000000000
         C            1.242438061580    -0.991722843320     0.763339266952    12.000000000000
         H           -0.000716938420    -0.728524843320    -0.986968733048     1.007825032230
         H           -1.346771938420    -0.582688843320     1.769085266952     1.007825032230
         H           -1.218283938420    -2.083461843320     0.801679266952     1.007825032230
         H            1.345336061580    -0.582676843320     1.769086266952     1.007825032230
         H            1.216851061580    -2.083454843320     0.801687266952     1.007825032230

  Basis Set: AUG-CC-PVTZ
    Blend: AUG-CC-PVTZ
  Basis Set: (AUG-CC-PVTZ AUX)
    Blend: AUG-CC-PVTZ-JKFIT
	 Reference Energy          =   -7833.9416127377717203 [Eh]
	 Singles Energy            =      -0.0000000000000000 [Eh]
	 Same-Spin Energy          =      -0.3996643748015830 [Eh]
	 Opposite-Spin Energy      =      -1.0592652122683925 [Eh]
	 Correlation Energy        =      -1.4589295870699757 [Eh]
	 Total Energy              =   -7835.4005423248418083 [Eh]

	 ================> DF-SCS-MP2 Energies <==================
	-----------------------------------------------------------
	 SCS Same-Spin Scale       =       0.3333333333333333 [-]
	 SCS Opposite-Spin Scale   =       1.2000000000000000 [-]
	 SCS Same-Spin Energy      =      -0.1332214582671943 [Eh]
	 SCS Opposite-Spin Energy  =      -1.2711182547220710 [Eh]
	 SCS Correlation Energy    =      -1.4043397129892652 [Eh]
	 SCS Total Energy          =   -7835.3459524507607057 [Eh]
	-----------------------------------------------------------

  Dipole Moment: [D]
     X:     0.0515      Y:    -2.1175      Z:     1.4792     Total:     2.5836

*** Psi4 exiting successfully. Buy a developer a beer!
