                               Psi4 1.3.2 release

  ==> Input File <==

--------------------------------------------------------------------------
#psi4
#
memory 32 gb

molecule  {
0 1
 Br        0.0000490     1.5373210     0.0922820
 Br       -2.8699640    -0.4854280    -0.2337770
 Br        2.8699250    -0.4854600    -0.2337790
  C       -0.0000100    -0.4202620     0.0447250
  C       -1.3265204    -0.9290321     0.6872313
  C        1.2431140    -0.9530360     0.7369740
  H       -0.0000150    -0.6893630    -1.0135150
  H       -1.3458500    -0.5442600     1.7429190
  H       -1.2174500    -2.0447140     0.7751110
  H        1.3458210    -0.5443190     1.7429160
  H        1.2173960    -2.0447570     0.7750850
units angstrom
no_reorient  #important for SAPT in psi4, default
symmetry c1  #important for SAPT in psi4, default
}

set PROPERTIES_ORIGIN ["COM"]
properties('MP2/aug-cc-pvtz', properties = ['dipole'])
--------------------------------------------------------------------------

    Molecular point group: c1
  Charge       = 0
  Multiplicity = 1
  Basis Set: AUG-CC-PVTZ
    Blend: AUG-CC-PVTZ
  Basis Set: (AUG-CC-PVTZ AUX)
    Blend: AUG-CC-PVTZ-JKFIT

    Orbital Energies [Eh]
    ---------------------

    Doubly Occupied:

       1A   -490.032847     2A   -490.026105     3A   -490.019982
       4A    -65.173111     5A    -65.165926     6A    -65.159967
       7A    -58.528390     8A    -58.526985     9A    -58.526954
      10A    -58.521258    11A    -58.519809    12A    -58.519782
      13A    -58.515251    14A    -58.513860    15A    -58.513826
      16A    -11.331290    17A    -11.320564    18A    -11.320468
      19A     -9.846518    20A     -9.838607    21A     -9.832733
      22A     -7.458445    23A     -7.451316    24A     -7.451140
      25A     -7.450257    26A     -7.444248    27A     -7.443384
      28A     -7.443224    29A     -7.437603    30A     -7.437461
      31A     -3.202254    32A     -3.198423    33A     -3.198225
      34A     -3.193942    35A     -3.190437    36A     -3.190252
      37A     -3.189252    38A     -3.189251    39A     -3.187852
      40A     -3.184485    41A     -3.184255    42A     -3.181390
      43A     -3.181390    44A     -3.175718    45A     -3.175715
      46A     -1.159492    47A     -1.086500    48A     -1.029910
      49A     -0.965731    50A     -0.892817    51A     -0.817795
      52A     -0.677896    53A     -0.633839    54A     -0.617670
      55A     -0.597435    56A     -0.539398    57A     -0.504391
      58A     -0.493343    59A     -0.431215    60A     -0.425235
      61A     -0.418838    62A     -0.410642    63A     -0.405195
      64A     -0.397315

  @DF-RHF Final Energy: -7833.93432959606798

   => Energetics <=

    Nuclear Repulsion Energy =           1010.8528285939488569
    One-Electron Energy =              -12923.3766908806901483
    Two-Electron Energy =                4078.5895326906743321
    Total Energy =                      -7833.9343295960679825
  Basis Set: (AUG-CC-PVTZ AUX)
    Blend: AUG-CC-PVTZ-RI
    Molecular point group: c1

    Geometry (in Angstrom), charge = 0, multiplicity = 1:

       Center              X                  Y                   Z               Mass
    ------------   -----------------  -----------------  -----------------  -----------------
         BR           0.003649890900     1.497144976460     0.120845757196    78.918337600000
         BR          -2.866363109100    -0.525604023540    -0.205213242804    78.918337600000
         BR           2.873525890900    -0.525636023540    -0.205215242804    78.918337600000
         C            0.003590890900    -0.460438023540     0.073288757196    12.000000000000
         C           -1.322919509100    -0.969208123540     0.715795057196    12.000000000000
         C            1.246714890900    -0.993212023540     0.765537757196    12.000000000000
         H            0.003585890900    -0.729539023540    -0.984951242804     1.007825032230
         H           -1.342249109100    -0.584436023540     1.771482757196     1.007825032230
         H           -1.213849109100    -2.084890023540     0.803674757196     1.007825032230
         H            1.349421890900    -0.584495023540     1.771479757196     1.007825032230
         H            1.220996890900    -2.084933023540     0.803648757196     1.007825032230

  Basis Set: AUG-CC-PVTZ
    Blend: AUG-CC-PVTZ
  Basis Set: (AUG-CC-PVTZ AUX)
    Blend: AUG-CC-PVTZ-JKFIT
	 Reference Energy          =   -7833.9343295960679825 [Eh]
	 Singles Energy            =      -0.0000000000000000 [Eh]
	 Same-Spin Energy          =      -0.4006565607925597 [Eh]
	 Opposite-Spin Energy      =      -1.0604994814365751 [Eh]
	 Correlation Energy        =      -1.4611560422291348 [Eh]
	 Total Energy              =   -7835.3954856382970320 [Eh]

	 ================> DF-SCS-MP2 Energies <==================
	-----------------------------------------------------------
	 SCS Same-Spin Scale       =       0.3333333333333333 [-]
	 SCS Opposite-Spin Scale   =       1.2000000000000000 [-]
	 SCS Same-Spin Energy      =      -0.1335521869308532 [Eh]
	 SCS Opposite-Spin Energy  =      -1.2725993777238902 [Eh]
	 SCS Correlation Energy    =      -1.4061515646547433 [Eh]
	 SCS Total Energy          =   -7835.3404811607224474 [Eh]
	-----------------------------------------------------------

  Dipole Moment: [D]
     X:    -0.2421      Y:    -2.1327      Z:     1.3484     Total:     2.5348

*** Psi4 exiting successfully. Buy a developer a beer!
