                               Psi4 1.3.2 release

  ==> Input File <==

--------------------------------------------------------------------------
#psi4
#
memory 32 gb

molecule  {
0 1
 Br        0.0000490     1.5373210     0.0922820
 Br       -2.9327591    -0.3932647    -0.0626670
 Br        2.8699250    -0.4854600    -0.2337790
  C       -0.0000100    -0.4202620     0.0447250
  C       -1.2431490    -0.9529940     0.7369810
  C        1.2431140    -0.9530360     0.7369740
  H       -0.0000150    -0.6893630    -1.0135150
  H       -1.3458500    -0.5442600     1.7429190
  H       -1.2174500    -2.0447140     0.7751110
  H        1.3458210    -0.5443190     1.7429160
  H        1.2173960    -2.0447570     0.7750850
units angstrom
no_reorient  #important for SAPT in psi4, default
symmetry c1  #important for SAPT in psi4, default
}

set PROPERTIES_ORIGIN ["COM"]
properties('MP2/aug-cc-pvtz', properties = ['dipole'])
--------------------------------------------------------------------------

    Molecular point group: c1
  Charge       = 0
  Multiplicity = 1
  Basis Set: AUG-CC-PVTZ
    Blend: AUG-CC-PVTZ
  Basis Set: (AUG-CC-PVTZ AUX)
    Blend: AUG-CC-PVTZ-JKFIT

    Orbital Energies [Eh]
    ---------------------

    Doubly Occupied:

       1A   -490.026974     2A   -490.026070     3A   -490.022694
       4A    -65.166806     5A    -65.165894     6A    -65.162646
       7A    -58.522135     8A    -58.521225     9A    -58.520690
      10A    -58.520663    11A    -58.519776    12A    -58.519750
      13A    -58.517949    14A    -58.516528    15A    -58.516489
      16A    -11.332915    17A    -11.322189    18A    -11.320809
      19A     -9.839495    20A     -9.838583    21A     -9.835385
      22A     -7.451136    23A     -7.450228    24A     -7.446967
      25A     -7.444280    26A     -7.444122    27A     -7.443351
      28A     -7.443208    29A     -7.440214    30A     -7.440036
      31A     -3.194814    32A     -3.193906    33A     -3.191319
      34A     -3.191132    35A     -3.190612    36A     -3.190402
      37A     -3.190233    38A     -3.187203    39A     -3.186928
      40A     -3.182296    41A     -3.182295    42A     -3.181372
      43A     -3.181370    44A     -3.178248    45A     -3.178246
      46A     -1.163488    47A     -1.075122    48A     -1.027111
      49A     -0.971147    50A     -0.897470    51A     -0.823991
      52A     -0.687349    53A     -0.639036    54A     -0.625107
      55A     -0.606776    56A     -0.526552    57A     -0.497165
      58A     -0.493532    59A     -0.429681    60A     -0.428720
      61A     -0.417283    62A     -0.411120    63A     -0.408502
      64A     -0.396098

  @DF-RHF Final Energy: -7833.94031823705245

   => Energetics <=

    Nuclear Repulsion Energy =           1007.4032845945157533
    One-Electron Energy =              -12916.5575360170114436
    Two-Electron Energy =                4075.2139331854436932
    Total Energy =                      -7833.9403182370533614
  Basis Set: (AUG-CC-PVTZ AUX)
    Blend: AUG-CC-PVTZ-RI
    Molecular point group: c1

    Geometry (in Angstrom), charge = 0, multiplicity = 1:

       Center              X                  Y                   Z               Mass
    ------------   -----------------  -----------------  -----------------  -----------------
         BR           0.017887873496     1.471997463719     0.070086179437    78.918337600000
         BR          -2.914920226504    -0.458588236281    -0.084862820563    78.918337600000
         BR           2.887763873496    -0.550783536281    -0.255974820563    78.918337600000
         C            0.017828873496    -0.485585536281     0.022529179437    12.000000000000
         C           -1.225310126504    -1.018317536281     0.714785179437    12.000000000000
         C            1.260952873496    -1.018359536281     0.714778179437    12.000000000000
         H            0.017823873496    -0.754686536281    -1.035710820563     1.007825032230
         H           -1.328011126504    -0.609583536281     1.720723179437     1.007825032230
         H           -1.199611126504    -2.110037536281     0.752915179437     1.007825032230
         H            1.363659873496    -0.609642536281     1.720720179437     1.007825032230
         H            1.235234873496    -2.110080536281     0.752889179437     1.007825032230

  Basis Set: AUG-CC-PVTZ
    Blend: AUG-CC-PVTZ
  Basis Set: (AUG-CC-PVTZ AUX)
    Blend: AUG-CC-PVTZ-JKFIT
	 Reference Energy          =   -7833.9403182370524519 [Eh]
	 Singles Energy            =      -0.0000000000000000 [Eh]
	 Same-Spin Energy          =      -0.3997398534789574 [Eh]
	 Opposite-Spin Energy      =      -1.0593513474497023 [Eh]
	 Correlation Energy        =      -1.4590912009286596 [Eh]
	 Total Energy              =   -7835.3994094379813760 [Eh]

	 ================> DF-SCS-MP2 Energies <==================
	-----------------------------------------------------------
	 SCS Same-Spin Scale       =       0.3333333333333333 [-]
	 SCS Opposite-Spin Scale   =       1.2000000000000000 [-]
	 SCS Same-Spin Energy      =      -0.1332466178263191 [Eh]
	 SCS Opposite-Spin Energy  =      -1.2712216169396426 [Eh]
	 SCS Correlation Energy    =      -1.4044682347659618 [Eh]
	 SCS Total Energy          =   -7835.3447864718182245 [Eh]
	-----------------------------------------------------------

  Dipole Moment: [D]
     X:     0.0608      Y:    -2.1563      Z:     1.3633     Total:     2.5519

*** Psi4 exiting successfully. Buy a developer a beer!
