                               Psi4 1.3.2 release

  ==> Input File <==

--------------------------------------------------------------------------
#psi4
#
memory 32 gb

molecule  {
0 1
 Br        0.0297760     1.5374314     0.0754212
 Br       -2.8699640    -0.4854280    -0.2337770
 Br        2.8699250    -0.4854600    -0.2337790
  C       -0.0000100    -0.4202620     0.0447250
  C       -1.2431490    -0.9529940     0.7369810
  C        1.2431140    -0.9530360     0.7369740
  H       -0.0000150    -0.6893630    -1.0135150
  H       -1.3458500    -0.5442600     1.7429190
  H       -1.2174500    -2.0447140     0.7751110
  H        1.3458210    -0.5443190     1.7429160
  H        1.2173960    -2.0447570     0.7750850
units angstrom
no_reorient  #important for SAPT in psi4, default
symmetry c1  #important for SAPT in psi4, default
}

set PROPERTIES_ORIGIN ["COM"]
properties('MP2/aug-cc-pvtz', properties = ['dipole'])
--------------------------------------------------------------------------

    Molecular point group: c1
  Charge       = 0
  Multiplicity = 1
  Basis Set: AUG-CC-PVTZ
    Blend: AUG-CC-PVTZ
  Basis Set: (AUG-CC-PVTZ AUX)
    Blend: AUG-CC-PVTZ-JKFIT

    Orbital Energies [Eh]
    ---------------------

    Doubly Occupied:

       1A   -490.026678     2A   -490.026211     3A   -490.022656
       4A    -65.166511     5A    -65.166050     6A    -65.162603
       7A    -58.521839     8A    -58.521377     9A    -58.520396
      10A    -58.520371    11A    -58.519936    12A    -58.519908
      13A    -58.517904    14A    -58.516486    15A    -58.516449
      16A    -11.331950    17A    -11.321846    18A    -11.321199
      19A     -9.839200    20A     -9.838747    21A     -9.835334
      22A     -7.450833    23A     -7.450381    24A     -7.446909
      25A     -7.443988    26A     -7.443836    27A     -7.443539
      28A     -7.443379    29A     -7.440160    30A     -7.439996
      31A     -3.194506    32A     -3.194056    33A     -3.191014
      34A     -3.190836    35A     -3.190569    36A     -3.190550
      37A     -3.190377    38A     -3.187139    39A     -3.186881
      40A     -3.182015    41A     -3.182014    42A     -3.181559
      43A     -3.181558    44A     -3.178209    45A     -3.178206
      46A     -1.163727    47A     -1.075063    48A     -1.026664
      49A     -0.970526    50A     -0.897660    51A     -0.824423
      52A     -0.687257    53A     -0.639383    54A     -0.624879
      55A     -0.605554    56A     -0.527924    57A     -0.496814
      58A     -0.493321    59A     -0.429811    60A     -0.428224
      61A     -0.418340    62A     -0.411075    63A     -0.408023
      64A     -0.396575

  @DF-RHF Final Energy: -7833.94175954379807

   => Energetics <=

    Nuclear Repulsion Energy =           1009.1101806545649424
    One-Electron Energy =              -12919.9810776610229368
    Two-Electron Energy =                4076.9291374626595825
    Total Energy =                      -7833.9417595437989803
  Basis Set: (AUG-CC-PVTZ AUX)
    Blend: AUG-CC-PVTZ-RI
    Molecular point group: c1

    Geometry (in Angstrom), charge = 0, multiplicity = 1:

       Center              X                  Y                   Z               Mass
    ------------   -----------------  -----------------  -----------------  -----------------
         BR           0.021330336403     1.498259106120     0.106625869319    78.918337600000
         BR          -2.878409663597    -0.524600293880    -0.202572330681    78.918337600000
         BR           2.861479336403    -0.524632293880    -0.202574330681    78.918337600000
         C           -0.008455663597    -0.459434293880     0.075929669319    12.000000000000
         C           -1.251594663597    -0.992166293880     0.768185669319    12.000000000000
         C            1.234668336403    -0.992208293880     0.768178669319    12.000000000000
         H           -0.008460663597    -0.728535293880    -0.982310330681     1.007825032230
         H           -1.354295663597    -0.583432293880     1.774123669319     1.007825032230
         H           -1.225895663597    -2.083886293880     0.806315669319     1.007825032230
         H            1.337375336403    -0.583491293880     1.774120669319     1.007825032230
         H            1.208950336403    -2.083929293880     0.806289669319     1.007825032230

  Basis Set: AUG-CC-PVTZ
    Blend: AUG-CC-PVTZ
  Basis Set: (AUG-CC-PVTZ AUX)
    Blend: AUG-CC-PVTZ-JKFIT
	 Reference Energy          =   -7833.9417595437980708 [Eh]
	 Singles Energy            =      -0.0000000000000000 [Eh]
	 Same-Spin Energy          =      -0.3997507238639011 [Eh]
	 Opposite-Spin Energy      =      -1.0593571784725844 [Eh]
	 Correlation Energy        =      -1.4591079023364855 [Eh]
	 Total Energy              =   -7835.4008674461347255 [Eh]

	 ================> DF-SCS-MP2 Energies <==================
	-----------------------------------------------------------
	 SCS Same-Spin Scale       =       0.3333333333333333 [-]
	 SCS Opposite-Spin Scale   =       1.2000000000000000 [-]
	 SCS Same-Spin Energy      =      -0.1332502412879670 [Eh]
	 SCS Opposite-Spin Energy  =      -1.2712286141671012 [Eh]
	 SCS Correlation Energy    =      -1.4044788554550682 [Eh]
	 SCS Total Energy          =   -7835.3462383992527975 [Eh]
	-----------------------------------------------------------

  Dipole Moment: [D]
     X:    -0.0156      Y:    -2.1215      Z:     1.4643     Total:     2.5778

*** Psi4 exiting successfully. Buy a developer a beer!
