                               Psi4 1.3.2 release

  ==> Input File <==

--------------------------------------------------------------------------
#psi4
#
memory 32 gb

molecule  {
0 1
 Br        0.0000490     1.5373210     0.0922820
 Br       -2.8699640    -0.4854280    -0.2337770
 Br        2.8699250    -0.4854600    -0.2337790
  C       -0.0000130    -0.5202325     0.0422963
  C       -1.2431490    -0.9529940     0.7369810
  C        1.2431140    -0.9530360     0.7369740
  H       -0.0000150    -0.6893630    -1.0135150
  H       -1.3458500    -0.5442600     1.7429190
  H       -1.2174500    -2.0447140     0.7751110
  H        1.3458210    -0.5443190     1.7429160
  H        1.2173960    -2.0447570     0.7750850
units angstrom
no_reorient  #important for SAPT in psi4, default
symmetry c1  #important for SAPT in psi4, default
}

set PROPERTIES_ORIGIN ["COM"]
properties('MP2/aug-cc-pvtz', properties = ['dipole'])
--------------------------------------------------------------------------

    Molecular point group: c1
  Charge       = 0
  Multiplicity = 1
  Basis Set: AUG-CC-PVTZ
    Blend: AUG-CC-PVTZ
  Basis Set: (AUG-CC-PVTZ AUX)
    Blend: AUG-CC-PVTZ-JKFIT

    Orbital Energies [Eh]
    ---------------------

    Doubly Occupied:

       1A   -490.029339     2A   -490.029338     3A   -490.011846
       4A    -65.169123     5A    -65.169123     6A    -65.151661
       7A    -58.524473     8A    -58.524472     9A    -58.522998
      10A    -58.522997    11A    -58.522966    12A    -58.522965
      13A    -58.506941    14A    -58.505570    15A    -58.505524
      16A    -11.337059    17A    -11.323225    18A    -11.323199
      19A     -9.841775    20A     -9.841774    21A     -9.824064
      22A     -7.453481    23A     -7.453480    24A     -7.446513
      25A     -7.446512    26A     -7.446325    27A     -7.446324
      28A     -7.435323    29A     -7.429012    30A     -7.428808
      31A     -3.197202    32A     -3.197200    33A     -3.193660
      34A     -3.193658    35A     -3.193439    36A     -3.193438
      37A     -3.184453    38A     -3.184452    39A     -3.184452
      40A     -3.184451    41A     -3.178764    42A     -3.175729
      43A     -3.175428    44A     -3.167230    45A     -3.167227
      46A     -1.169748    47A     -1.079628    48A     -1.016959
      49A     -0.971149    50A     -0.905143    51A     -0.831516
      52A     -0.688493    53A     -0.646821    54A     -0.630128
      55A     -0.621940    56A     -0.531749    57A     -0.499685
      58A     -0.467370    59A     -0.429163    60A     -0.427441
      61A     -0.420078    62A     -0.415622    63A     -0.403826
      64A     -0.392093

  @DF-RHF Final Energy: -7833.93582900737965

   => Energetics <=

    Nuclear Repulsion Energy =           1007.0327076198955183
    One-Electron Energy =              -12915.9059838680877874
    Two-Electron Energy =                4074.9374472408126167
    Total Energy =                      -7833.9358290073796525
  Basis Set: (AUG-CC-PVTZ AUX)
    Blend: AUG-CC-PVTZ-RI
    Molecular point group: c1

    Geometry (in Angstrom), charge = 0, multiplicity = 1:

       Center              X                  Y                   Z               Mass
    ------------   -----------------  -----------------  -----------------  -----------------
         BR           0.000048588125     1.502498540833     0.118801610389    78.918337600000
         BR          -2.869964411875    -0.520250459167    -0.207257389611    78.918337600000
         BR           2.869924588125    -0.520282459167    -0.207259389611    78.918337600000
         C           -0.000013411875    -0.555054959167     0.068815910389    12.000000000000
         C           -1.243149411875    -0.987816459167     0.763500610389    12.000000000000
         C            1.243113588125    -0.987858459167     0.763493610389    12.000000000000
         H           -0.000015411875    -0.724185459167    -0.986995389611     1.007825032230
         H           -1.345850411875    -0.579082459167     1.769438610389     1.007825032230
         H           -1.217450411875    -2.079536459167     0.801630610389     1.007825032230
         H            1.345820588125    -0.579141459167     1.769435610389     1.007825032230
         H            1.217395588125    -2.079579459167     0.801604610389     1.007825032230

  Basis Set: AUG-CC-PVTZ
    Blend: AUG-CC-PVTZ
  Basis Set: (AUG-CC-PVTZ AUX)
    Blend: AUG-CC-PVTZ-JKFIT
	 Reference Energy          =   -7833.9358290073796525 [Eh]
	 Singles Energy            =      -0.0000000000000000 [Eh]
	 Same-Spin Energy          =      -0.3995335430616508 [Eh]
	 Opposite-Spin Energy      =      -1.0590804772208982 [Eh]
	 Correlation Energy        =      -1.4586140202825488 [Eh]
	 Total Energy              =   -7835.3944430276624189 [Eh]

	 ================> DF-SCS-MP2 Energies <==================
	-----------------------------------------------------------
	 SCS Same-Spin Scale       =       0.3333333333333333 [-]
	 SCS Opposite-Spin Scale   =       1.2000000000000000 [-]
	 SCS Same-Spin Energy      =      -0.1331778476872169 [Eh]
	 SCS Opposite-Spin Energy  =      -1.2708965726650778 [Eh]
	 SCS Correlation Energy    =      -1.4040744203522948 [Eh]
	 SCS Total Energy          =   -7835.3399034277317696 [Eh]
	-----------------------------------------------------------

  Dipole Moment: [D]
     X:    -0.0000      Y:    -2.4437      Z:     1.4570     Total:     2.8451

*** Psi4 exiting successfully. Buy a developer a beer!
