                               Psi4 1.3.2 release

  ==> Input File <==

--------------------------------------------------------------------------
#psi4
#
memory 32 gb

molecule  {
0 1
 Br        0.0000490     1.5373210     0.0922820
 Br       -2.8699640    -0.4854280    -0.2337770
 Br        2.8699250    -0.4854600    -0.2337790
  C       -0.0000070    -0.3202915     0.0471537
  C       -1.2431490    -0.9529940     0.7369810
  C        1.2431140    -0.9530360     0.7369740
  H       -0.0000150    -0.6893630    -1.0135150
  H       -1.3458500    -0.5442600     1.7429190
  H       -1.2174500    -2.0447140     0.7751110
  H        1.3458210    -0.5443190     1.7429160
  H        1.2173960    -2.0447570     0.7750850
units angstrom
no_reorient  #important for SAPT in psi4, default
symmetry c1  #important for SAPT in psi4, default
}

set PROPERTIES_ORIGIN ["COM"]
properties('MP2/aug-cc-pvtz', properties = ['dipole'])
--------------------------------------------------------------------------

    Molecular point group: c1
  Charge       = 0
  Multiplicity = 1
  Basis Set: AUG-CC-PVTZ
    Blend: AUG-CC-PVTZ
  Basis Set: (AUG-CC-PVTZ AUX)
    Blend: AUG-CC-PVTZ-JKFIT

    Orbital Energies [Eh]
    ---------------------

    Doubly Occupied:

       1A   -490.031261     2A   -490.023962     3A   -490.023961
       4A    -65.171568     5A    -65.163839     6A    -65.163838
       7A    -58.526834     8A    -58.525431     9A    -58.525406
      10A    -58.519147    11A    -58.519146    12A    -58.517734
      13A    -58.517733    14A    -58.517712    15A    -58.517712
      16A    -11.330564    17A    -11.320915    18A    -11.320893
      19A     -9.844934    20A     -9.836565    21A     -9.836565
      22A     -7.456813    23A     -7.449712    24A     -7.449591
      25A     -7.448132    26A     -7.448132    27A     -7.441400
      28A     -7.441400    29A     -7.441272    30A     -7.441272
      31A     -3.200611    32A     -3.196811    33A     -3.196600
      34A     -3.191766    35A     -3.191764    36A     -3.188323
      37A     -3.188322    38A     -3.188172    39A     -3.188171
      40A     -3.187684    41A     -3.187681    42A     -3.179499
      43A     -3.179499    44A     -3.179498    45A     -3.179497
      46A     -1.161934    47A     -1.071084    48A     -1.039888
      49A     -0.965879    50A     -0.891204    51A     -0.817734
      52A     -0.685763    53A     -0.638480    54A     -0.614505
      55A     -0.590829    56A     -0.526834    57A     -0.523985
      58A     -0.488088    59A     -0.430227    60A     -0.428982
      61A     -0.416298    62A     -0.409169    63A     -0.405747
      64A     -0.399734

  @DF-RHF Final Energy: -7833.93444648302011

   => Energetics <=

    Nuclear Repulsion Energy =           1011.2408904367636069
    One-Electron Energy =              -12924.1432572838584747
    Two-Electron Energy =                4078.9679203640748710
    Total Energy =                      -7833.9344464830192010
  Basis Set: (AUG-CC-PVTZ AUX)
    Blend: AUG-CC-PVTZ-RI
    Molecular point group: c1

    Geometry (in Angstrom), charge = 0, multiplicity = 1:

       Center              X                  Y                   Z               Mass
    ------------   -----------------  -----------------  -----------------  -----------------
         BR           0.000048328940     1.493861598320     0.118591783067    78.918337600000
         BR          -2.869964671060    -0.528887401680    -0.207467216933    78.918337600000
         BR           2.869924328940    -0.528919401680    -0.207469216933    78.918337600000
         C           -0.000007671060    -0.363750901680     0.073463483067    12.000000000000
         C           -1.243149671060    -0.996453401680     0.763290783067    12.000000000000
         C            1.243113328940    -0.996495401680     0.763283783067    12.000000000000
         H           -0.000015671060    -0.732822401680    -0.987205216933     1.007825032230
         H           -1.345850671060    -0.587719401680     1.769228783067     1.007825032230
         H           -1.217450671060    -2.088173401680     0.801420783067     1.007825032230
         H            1.345820328940    -0.587778401680     1.769225783067     1.007825032230
         H            1.217395328940    -2.088216401680     0.801394783067     1.007825032230

  Basis Set: AUG-CC-PVTZ
    Blend: AUG-CC-PVTZ
  Basis Set: (AUG-CC-PVTZ AUX)
    Blend: AUG-CC-PVTZ-JKFIT
	 Reference Energy          =   -7833.9344464830201105 [Eh]
	 Singles Energy            =      -0.0000000000000000 [Eh]
	 Same-Spin Energy          =      -0.4006504829990715 [Eh]
	 Opposite-Spin Energy      =      -1.0605382957086948 [Eh]
	 Correlation Energy        =      -1.4611887787077662 [Eh]
	 Total Energy              =   -7835.3956352617278753 [Eh]

	 ================> DF-SCS-MP2 Energies <==================
	-----------------------------------------------------------
	 SCS Same-Spin Scale       =       0.3333333333333333 [-]
	 SCS Opposite-Spin Scale   =       1.2000000000000000 [-]
	 SCS Same-Spin Energy      =      -0.1335501609996905 [Eh]
	 SCS Opposite-Spin Energy  =      -1.2726459548504339 [Eh]
	 SCS Correlation Energy    =      -1.4061961158501244 [Eh]
	 SCS Total Energy          =   -7835.3406425988705450 [Eh]
	-----------------------------------------------------------

  Dipole Moment: [D]
     X:    -0.0000      Y:    -1.8314      Z:     1.4620     Total:     2.3434

*** Psi4 exiting successfully. Buy a developer a beer!
