                               Psi4 1.3.2 release

  ==> Input File <==

--------------------------------------------------------------------------
#psi4
#
memory 32 gb

molecule  {
0 1
 Br        0.0000494     1.5315682    -0.1126017
 Br       -2.8699640    -0.4854280    -0.2337770
 Br        2.8699250    -0.4854600    -0.2337790
  C       -0.0000100    -0.4202620     0.0447250
  C       -1.2431490    -0.9529940     0.7369810
  C        1.2431140    -0.9530360     0.7369740
  H       -0.0000150    -0.6893630    -1.0135150
  H       -1.3458500    -0.5442600     1.7429190
  H       -1.2174500    -2.0447140     0.7751110
  H        1.3458210    -0.5443190     1.7429160
  H        1.2173960    -2.0447570     0.7750850
units angstrom
no_reorient  #important for SAPT in psi4, default
symmetry c1  #important for SAPT in psi4, default
}

set PROPERTIES_ORIGIN ["COM"]
properties('MP2/aug-cc-pvtz', properties = ['dipole'])
--------------------------------------------------------------------------

    Molecular point group: c1
  Charge       = 0
  Multiplicity = 1
  Basis Set: AUG-CC-PVTZ
    Blend: AUG-CC-PVTZ
  Basis Set: (AUG-CC-PVTZ AUX)
    Blend: AUG-CC-PVTZ-JKFIT

    Orbital Energies [Eh]
    ---------------------

    Doubly Occupied:

       1A   -490.026306     2A   -490.026306     3A   -490.021965
       4A    -65.166146     5A    -65.166145     6A    -65.161892
       7A    -58.521475     8A    -58.521474     9A    -58.520028
      10A    -58.520028    11A    -58.520003    12A    -58.520002
      13A    -58.517198    14A    -58.515768    15A    -58.515739
      16A    -11.331022    17A    -11.322306    18A    -11.322276
      19A     -9.838845    20A     -9.838844    21A     -9.834612
      22A     -7.450487    23A     -7.450487    24A     -7.446201
      25A     -7.443625    26A     -7.443625    27A     -7.443475
      28A     -7.443474    29A     -7.439404    30A     -7.439270
      31A     -3.194166    32A     -3.194164    33A     -3.190667
      34A     -3.190666    35A     -3.190485    36A     -3.190484
      37A     -3.189848    38A     -3.186414    39A     -3.186179
      40A     -3.181644    41A     -3.181644    42A     -3.181642
      43A     -3.181642    44A     -3.177457    45A     -3.177456
      46A     -1.162549    47A     -1.075013    48A     -1.026981
      49A     -0.971507    50A     -0.897666    51A     -0.822813
      52A     -0.687084    53A     -0.638999    54A     -0.625022
      55A     -0.606821    56A     -0.528628    57A     -0.495181
      58A     -0.493397    59A     -0.429533    60A     -0.428690
      61A     -0.417427    62A     -0.411208    63A     -0.406957
      64A     -0.394872

  @DF-RHF Final Energy: -7833.94013662287307

   => Energetics <=

    Nuclear Repulsion Energy =           1009.2288411501747305
    One-Electron Energy =              -12920.2512959564774064
    Two-Electron Energy =                4077.0823181834302886
    Total Energy =                      -7833.9401366228730694
  Basis Set: (AUG-CC-PVTZ AUX)
    Blend: AUG-CC-PVTZ-RI
    Molecular point group: c1

    Geometry (in Angstrom), charge = 0, multiplicity = 1:

       Center              X                  Y                   Z               Mass
    ------------   -----------------  -----------------  -----------------  -----------------
         BR           0.000048744897     1.494061578406    -0.027981739748    78.918337600000
         BR          -2.869964655103    -0.522934621594    -0.149157039748    78.918337600000
         BR           2.869924344897    -0.522966621594    -0.149159039748    78.918337600000
         C           -0.000010655103    -0.457768621594     0.129344960252    12.000000000000
         C           -1.243149655103    -0.990500621594     0.821600960252    12.000000000000
         C            1.243113344897    -0.990542621594     0.821593960252    12.000000000000
         H           -0.000015655103    -0.726869621594    -0.928895039748     1.007825032230
         H           -1.345850655103    -0.581766621594     1.827538960252     1.007825032230
         H           -1.217450655103    -2.082220621594     0.859730960252     1.007825032230
         H            1.345820344897    -0.581825621594     1.827535960252     1.007825032230
         H            1.217395344897    -2.082263621594     0.859704960252     1.007825032230

  Basis Set: AUG-CC-PVTZ
    Blend: AUG-CC-PVTZ
  Basis Set: (AUG-CC-PVTZ AUX)
    Blend: AUG-CC-PVTZ-JKFIT
	 Reference Energy          =   -7833.9401366228730694 [Eh]
	 Singles Energy            =      -0.0000000000000000 [Eh]
	 Same-Spin Energy          =      -0.3997174340308927 [Eh]
	 Opposite-Spin Energy      =      -1.0592915816154767 [Eh]
	 Correlation Energy        =      -1.4590090156463693 [Eh]
	 Total Energy              =   -7835.3991456385192578 [Eh]

	 ================> DF-SCS-MP2 Energies <==================
	-----------------------------------------------------------
	 SCS Same-Spin Scale       =       0.3333333333333333 [-]
	 SCS Opposite-Spin Scale   =       1.2000000000000000 [-]
	 SCS Same-Spin Energy      =      -0.1332391446769642 [Eh]
	 SCS Opposite-Spin Energy  =      -1.2711498979385720 [Eh]
	 SCS Correlation Energy    =      -1.4043890426155363 [Eh]
	 SCS Total Energy          =   -7835.3445256654886180 [Eh]
	-----------------------------------------------------------

  Dipole Moment: [D]
     X:    -0.0000      Y:    -2.1275      Z:     1.5473     Total:     2.6306

*** Psi4 exiting successfully. Buy a developer a beer!
