                               Psi4 1.3.2 release

  ==> Input File <==

--------------------------------------------------------------------------
#psi4
#
memory 32 gb

molecule  {
0 1
 Br        0.0000490     1.5373210     0.0922820
 Br       -2.8699640    -0.4854280    -0.2337770
 Br        2.8699250    -0.4854600    -0.2337790
  C       -0.0000100    -0.4202620     0.0447250
  C       -1.0764061    -1.0009179     0.8364803
  C        1.2431140    -0.9530360     0.7369740
  H       -0.0000150    -0.6893630    -1.0135150
  H       -1.3458500    -0.5442600     1.7429190
  H       -1.2174500    -2.0447140     0.7751110
  H        1.3458210    -0.5443190     1.7429160
  H        1.2173960    -2.0447570     0.7750850
units angstrom
no_reorient  #important for SAPT in psi4, default
symmetry c1  #important for SAPT in psi4, default
}

set PROPERTIES_ORIGIN ["COM"]
properties('MP2/aug-cc-pvtz', properties = ['dipole'])
--------------------------------------------------------------------------

    Molecular point group: c1
  Charge       = 0
  Multiplicity = 1
  Basis Set: AUG-CC-PVTZ
    Blend: AUG-CC-PVTZ
  Basis Set: (AUG-CC-PVTZ AUX)
    Blend: AUG-CC-PVTZ-JKFIT

    Orbital Energies [Eh]
    ---------------------

    Doubly Occupied:

       1A   -490.029163     2A   -490.028979     3A   -490.008487
       4A    -65.169016     5A    -65.168831     6A    -65.148061
       7A    -58.524359     8A    -58.524155     9A    -58.522877
      10A    -58.522831    11A    -58.522714    12A    -58.522688
      13A    -58.503348    14A    -58.501983    15A    -58.501959
      16A    -11.336556    17A    -11.333839    18A    -11.326124
      19A     -9.841664    20A     -9.841534    21A     -9.820151
      22A     -7.453375    23A     -7.453162    24A     -7.446399
      25A     -7.446324    26A     -7.446172    27A     -7.446164
      28A     -7.431223    29A     -7.425092    30A     -7.424955
      31A     -3.197103    32A     -3.196826    33A     -3.193597
      34A     -3.193344    35A     -3.193264    36A     -3.193160
      37A     -3.184358    38A     -3.184356    39A     -3.184284
      40A     -3.184281    41A     -3.174541    42A     -3.171663
      43A     -3.171491    44A     -3.163479    45A     -3.163477
      46A     -1.180159    47A     -1.066518    48A     -1.020772
      49A     -0.973653    50A     -0.904188    51A     -0.838174
      52A     -0.712516    53A     -0.654650    54A     -0.643416
      55A     -0.619226    56A     -0.524861    57A     -0.505909
      58A     -0.450336    59A     -0.432748    60A     -0.428590
      61A     -0.416957    62A     -0.411204    63A     -0.403924
      64A     -0.392102

  @DF-RHF Final Energy: -7833.92105507599535

   => Energetics <=

    Nuclear Repulsion Energy =           1006.0853861443689539
    One-Electron Energy =              -12914.0102543415650871
    Two-Electron Energy =                4074.0038131212013468
    Total Energy =                      -7833.9210550759953549
  Basis Set: (AUG-CC-PVTZ AUX)
    Blend: AUG-CC-PVTZ-RI
    Molecular point group: c1

    Geometry (in Angstrom), charge = 0, multiplicity = 1:

       Center              X                  Y                   Z               Mass
    ------------   -----------------  -----------------  -----------------  -----------------
         BR          -0.007154410523     1.500250260129     0.114398580113    78.918337600000
         BR          -2.877167410523    -0.522498739871    -0.211660419887    78.918337600000
         BR           2.862721589477    -0.522530739871    -0.211662419887    78.918337600000
         C           -0.007213410523    -0.457332739871     0.066841580113    12.000000000000
         C           -1.083609510523    -1.037988639871     0.858596880113    12.000000000000
         C            1.235910589477    -0.990106739871     0.759090580113    12.000000000000
         H           -0.007218410523    -0.726433739871    -0.991398419887     1.007825032230
         H           -1.353053410523    -0.581330739871     1.765035580113     1.007825032230
         H           -1.224653410523    -2.081784739871     0.797227580113     1.007825032230
         H            1.338617589477    -0.581389739871     1.765032580113     1.007825032230
         H            1.210192589477    -2.081827739871     0.797201580113     1.007825032230

  Basis Set: AUG-CC-PVTZ
    Blend: AUG-CC-PVTZ
  Basis Set: (AUG-CC-PVTZ AUX)
    Blend: AUG-CC-PVTZ-JKFIT
	 Reference Energy          =   -7833.9210550759953549 [Eh]
	 Singles Energy            =      -0.0000000000000000 [Eh]
	 Same-Spin Energy          =      -0.3998476831346027 [Eh]
	 Opposite-Spin Energy      =      -1.0597405036317795 [Eh]
	 Correlation Energy        =      -1.4595881867663822 [Eh]
	 Total Energy              =   -7835.3806432627616232 [Eh]

	 ================> DF-SCS-MP2 Energies <==================
	-----------------------------------------------------------
	 SCS Same-Spin Scale       =       0.3333333333333333 [-]
	 SCS Opposite-Spin Scale   =       1.2000000000000000 [-]
	 SCS Same-Spin Energy      =      -0.1332825610448676 [Eh]
	 SCS Opposite-Spin Energy  =      -1.2716886043581355 [Eh]
	 SCS Correlation Energy    =      -1.4049711654030030 [Eh]
	 SCS Total Energy          =   -7835.3260262413987220 [Eh]
	-----------------------------------------------------------

  Dipole Moment: [D]
     X:     0.5504      Y:    -2.0841      Z:     1.6590     Total:     2.7201

*** Psi4 exiting successfully. Buy a developer a beer!
