                               Psi4 1.3.2 release

  ==> Input File <==

--------------------------------------------------------------------------
#psi4
#
memory 32 gb

molecule  {
0 1
 Br        0.0000490     1.5373210     0.0922820
 Br       -2.8699640    -0.4854280    -0.2337770
 Br        2.8699250    -0.4854600    -0.2337790
  C       -0.0000100    -0.4202620     0.0447250
  C       -1.2431490    -0.9529940     0.7369810
  C        1.2431140    -0.9530360     0.7369740
  H       -0.0000150    -0.6893630    -1.0135150
  H       -1.3458500    -0.5442600     1.7429190
  H       -1.2174500    -2.0447140     0.7751110
  H        1.3458210    -0.5443190     1.7429160
  H        1.2173960    -2.0447570     0.7750850
units angstrom
no_reorient  #important for SAPT in psi4, default
symmetry c1  #important for SAPT in psi4, default
}

set PROPERTIES_ORIGIN ["COM"]
properties('MP2/aug-cc-pvtz', properties = ['dipole'])
--------------------------------------------------------------------------

    Molecular point group: c1
  Charge       = 0
  Multiplicity = 1
  Basis Set: AUG-CC-PVTZ
    Blend: AUG-CC-PVTZ
  Basis Set: (AUG-CC-PVTZ AUX)
    Blend: AUG-CC-PVTZ-JKFIT

    Orbital Energies [Eh]
    ---------------------

    Doubly Occupied:

       1A   -490.026460     2A   -490.026460     3A   -490.022731
       4A    -65.166296     5A    -65.166295     6A    -65.162680
       7A    -58.521623     8A    -58.521622     9A    -58.520181
      10A    -58.520181    11A    -58.520155    12A    -58.520154
      13A    -58.517981    14A    -58.516563    15A    -58.516527
      16A    -11.332026    17A    -11.321462    18A    -11.321436
      19A     -9.838988    20A     -9.838987    21A     -9.835413
      22A     -7.450621    23A     -7.450620    24A     -7.446987
      25A     -7.443778    26A     -7.443778    27A     -7.443622
      28A     -7.443621    29A     -7.440241    30A     -7.440075
      31A     -3.194295    32A     -3.194293    33A     -3.190806
      34A     -3.190804    35A     -3.190628    36A     -3.190621
      37A     -3.190620    38A     -3.187218    39A     -3.186959
      40A     -3.181803    41A     -3.181802    42A     -3.181802
      43A     -3.181801    44A     -3.178289    45A     -3.178286
      46A     -1.163839    47A     -1.075055    48A     -1.026669
      49A     -0.970425    50A     -0.897661    51A     -0.824567
      52A     -0.687274    53A     -0.639412    54A     -0.624863
      55A     -0.605457    56A     -0.527872    57A     -0.496916
      58A     -0.493319    59A     -0.429602    60A     -0.428377
      61A     -0.418447    62A     -0.411061    63A     -0.408038
      64A     -0.396821

  @DF-RHF Final Energy: -7833.94182699715748

   => Energetics <=

    Nuclear Repulsion Energy =           1009.0806345944261011
    One-Electron Energy =              -12919.9183917057562212
    Two-Electron Energy =                4076.8959301141726428
    Total Energy =                      -7833.9418269971574773
  Basis Set: (AUG-CC-PVTZ AUX)
    Blend: AUG-CC-PVTZ-RI
    Molecular point group: c1

    Geometry (in Angstrom), charge = 0, multiplicity = 1:

       Center              X                  Y                   Z               Mass
    ------------   -----------------  -----------------  -----------------  -----------------
         BR           0.000048458532     1.498180069577     0.118696696728    78.918337600000
         BR          -2.869964541468    -0.524568930423    -0.207362303272    78.918337600000
         BR           2.869924458532    -0.524600930423    -0.207364303272    78.918337600000
         C           -0.000010541468    -0.459402930423     0.071139696728    12.000000000000
         C           -1.243149541468    -0.992134930423     0.763395696728    12.000000000000
         C            1.243113458532    -0.992176930423     0.763388696728    12.000000000000
         H           -0.000015541468    -0.728503930423    -0.987100303272     1.007825032230
         H           -1.345850541468    -0.583400930423     1.769333696728     1.007825032230
         H           -1.217450541468    -2.083854930423     0.801525696728     1.007825032230
         H            1.345820458532    -0.583459930423     1.769330696728     1.007825032230
         H            1.217395458532    -2.083897930423     0.801499696728     1.007825032230

  Basis Set: AUG-CC-PVTZ
    Blend: AUG-CC-PVTZ
  Basis Set: (AUG-CC-PVTZ AUX)
    Blend: AUG-CC-PVTZ-JKFIT
	 Reference Energy          =   -7833.9418269971574773 [Eh]
	 Singles Energy            =      -0.0000000000000000 [Eh]
	 Same-Spin Energy          =      -0.3997562080423670 [Eh]
	 Opposite-Spin Energy      =      -1.0593698975113937 [Eh]
	 Correlation Energy        =      -1.4591261055537608 [Eh]
	 Total Energy              =   -7835.4009531027113553 [Eh]

	 ================> DF-SCS-MP2 Energies <==================
	-----------------------------------------------------------
	 SCS Same-Spin Scale       =       0.3333333333333333 [-]
	 SCS Opposite-Spin Scale   =       1.2000000000000000 [-]
	 SCS Same-Spin Energy      =      -0.1332520693474556 [Eh]
	 SCS Opposite-Spin Energy  =      -1.2712438770136723 [Eh]
	 SCS Correlation Energy    =      -1.4044959463611280 [Eh]
	 SCS Total Energy          =   -7835.3463229435183166 [Eh]
	-----------------------------------------------------------

  Dipole Moment: [D]
     X:    -0.0000      Y:    -2.1208      Z:     1.4569     Total:     2.5730

*** Psi4 exiting successfully. Buy a developer a beer!
