                               Psi4 1.3.2 release

  ==> Input File <==

--------------------------------------------------------------------------
#psi4
#
memory 32 gb

molecule  {
0 1
 Br        0.0000490     1.5373210     0.0922820
 Br       -2.8181479    -0.5497810    -0.3420527
 Br        2.8699250    -0.4854600    -0.2337790
  C       -0.0000100    -0.4202620     0.0447250
  C       -1.2431490    -0.9529940     0.7369810
  C        1.2431140    -0.9530360     0.7369740
  H       -0.0000150    -0.6893630    -1.0135150
  H       -1.3458500    -0.5442600     1.7429190
  H       -1.2174500    -2.0447140     0.7751110
  H        1.3458210    -0.5443190     1.7429160
  H        1.2173960    -2.0447570     0.7750850
units angstrom
no_reorient  #important for SAPT in psi4, default
symmetry c1  #important for SAPT in psi4, default
}

set PROPERTIES_ORIGIN ["COM"]
properties('MP2/aug-cc-pvtz', properties = ['dipole'])
--------------------------------------------------------------------------

    Molecular point group: c1
  Charge       = 0
  Multiplicity = 1
  Basis Set: AUG-CC-PVTZ
    Blend: AUG-CC-PVTZ
  Basis Set: (AUG-CC-PVTZ AUX)
    Blend: AUG-CC-PVTZ-JKFIT

    Orbital Energies [Eh]
    ---------------------

    Doubly Occupied:

       1A   -490.026834     2A   -490.026056     3A   -490.022763
       4A    -65.166686     5A    -65.165895     6A    -65.162709
       7A    -58.522013     8A    -58.521220     9A    -58.520570
      10A    -58.520541    11A    -58.519781    12A    -58.519755
      13A    -58.518009    14A    -58.516592    15A    -58.516558
      16A    -11.331381    17A    -11.321787    18A    -11.320862
      19A     -9.839393    20A     -9.838589    21A     -9.835437
      22A     -7.451031    23A     -7.450216    24A     -7.447006
      25A     -7.444187    26A     -7.444020    27A     -7.443384
      28A     -7.443229    29A     -7.440265    30A     -7.440107
      31A     -3.194704    32A     -3.193886    33A     -3.191217
      34A     -3.191025    35A     -3.190644    36A     -3.190402
      37A     -3.190219    38A     -3.187233    39A     -3.186986
      40A     -3.182200    41A     -3.182199    42A     -3.181415
      43A     -3.181414    44A     -3.178323    45A     -3.178320
      46A     -1.164185    47A     -1.075188    48A     -1.026434
      49A     -0.969866    50A     -0.897741    51A     -0.824958
      52A     -0.687247    53A     -0.639693    54A     -0.624979
      55A     -0.604479    56A     -0.528678    57A     -0.496813
      58A     -0.492706    59A     -0.429573    60A     -0.428052
      61A     -0.419274    62A     -0.410770    63A     -0.407527
      64A     -0.397310

  @DF-RHF Final Energy: -7833.94106837732033

   => Energetics <=

    Nuclear Repulsion Energy =           1010.5157865925979195
    One-Electron Energy =              -12922.7886361831606337
    Two-Electron Energy =                4078.3317812132431754
    Total Energy =                      -7833.9410683773203345
  Basis Set: (AUG-CC-PVTZ AUX)
    Blend: AUG-CC-PVTZ-RI
    Molecular point group: c1

    Geometry (in Angstrom), charge = 0, multiplicity = 1:

       Center              X                  Y                   Z               Mass
    ------------   -----------------  -----------------  -----------------  -----------------
         BR          -0.014671940188     1.516462067235     0.149456662756    78.918337600000
         BR          -2.832868840188    -0.570639932765    -0.284878037244    78.918337600000
         BR           2.855204059812    -0.506318932765    -0.176604337244    78.918337600000
         C           -0.014730940188    -0.441120932765     0.101899662756    12.000000000000
         C           -1.257869940188    -0.973852932765     0.794155662756    12.000000000000
         C            1.228393059812    -0.973894932765     0.794148662756    12.000000000000
         H           -0.014735940188    -0.710221932765    -0.956340337244     1.007825032230
         H           -1.360570940188    -0.565118932765     1.800093662756     1.007825032230
         H           -1.232170940188    -2.065572932765     0.832285662756     1.007825032230
         H            1.331100059812    -0.565177932765     1.800090662756     1.007825032230
         H            1.202675059812    -2.065615932765     0.832259662756     1.007825032230

  Basis Set: AUG-CC-PVTZ
    Blend: AUG-CC-PVTZ
  Basis Set: (AUG-CC-PVTZ AUX)
    Blend: AUG-CC-PVTZ-JKFIT
	 Reference Energy          =   -7833.9410683773203345 [Eh]
	 Singles Energy            =      -0.0000000000000000 [Eh]
	 Same-Spin Energy          =      -0.3998773389769941 [Eh]
	 Opposite-Spin Energy      =      -1.0595745255902067 [Eh]
	 Correlation Energy        =      -1.4594518645672008 [Eh]
	 Total Energy              =   -7835.4005202418875342 [Eh]

	 ================> DF-SCS-MP2 Energies <==================
	-----------------------------------------------------------
	 SCS Same-Spin Scale       =       0.3333333333333333 [-]
	 SCS Opposite-Spin Scale   =       1.2000000000000000 [-]
	 SCS Same-Spin Energy      =      -0.1332924463256647 [Eh]
	 SCS Opposite-Spin Energy  =      -1.2714894307082480 [Eh]
	 SCS Correlation Energy    =      -1.4047818770339127 [Eh]
	 SCS Total Energy          =   -7835.3458502543544455 [Eh]
	-----------------------------------------------------------

  Dipole Moment: [D]
     X:    -0.0472      Y:    -2.0959      Z:     1.5159     Total:     2.5871

*** Psi4 exiting successfully. Buy a developer a beer!
