                               Psi4 1.3.2 release

  ==> Input File <==

--------------------------------------------------------------------------
#psi4
#
memory 32 gb

molecule  {
0 1
  N       -0.0821095     0.0031663     1.4511473
  C        0.0000110    -0.0087070    -1.1889250
  C        0.0001420     0.0020510     0.2743040
  H       -0.6838220    -0.7758470    -1.5576010
  H        1.0038610    -0.2217700    -1.5616520
  H       -0.3198320     0.9627440    -1.5709320
units angstrom
no_reorient  #important for SAPT in psi4, default
symmetry c1  #important for SAPT in psi4, default
}

set PROPERTIES_ORIGIN ["COM"]
properties('MP2/aug-cc-pvtz', properties = ['dipole'])
--------------------------------------------------------------------------

    Molecular point group: c1
  Charge       = 0
  Multiplicity = 1
  Basis Set: AUG-CC-PVTZ
    Blend: AUG-CC-PVTZ
  Basis Set: (AUG-CC-PVTZ AUX)
    Blend: AUG-CC-PVTZ-JKFIT

    Orbital Energies [Eh]
    ---------------------

    Doubly Occupied:

       1A    -15.579577     2A    -11.289040     3A    -11.287803
       4A     -1.209539     5A     -1.041349     6A     -0.702000
       7A     -0.630380     8A     -0.630319     9A     -0.556685
      10A     -0.455765    11A     -0.455698

  @DF-RHF Final Energy:  -131.96947501164794

   => Energetics <=

    Nuclear Repulsion Energy =             57.9060844972733761
    One-Electron Energy =                -292.0748085323285750
    Two-Electron Energy =                 102.1992490234072619
    Total Energy =                       -131.9694750116479440
  Basis Set: (AUG-CC-PVTZ AUX)
    Blend: AUG-CC-PVTZ-RI
    Molecular point group: c1

    Geometry (in Angstrom), charge = 0, multiplicity = 1:

       Center              X                  Y                   Z               Mass
    ------------   -----------------  -----------------  -----------------  -----------------
         N           -0.054133937582     0.004889085627     1.338581527698    14.003074004430
         C            0.027986562418    -0.006984214373    -1.301490772302    12.000000000000
         C            0.028117562418     0.003773785627     0.161738227698    12.000000000000
         H           -0.655846437582    -0.774124214373    -1.670166772302     1.007825032230
         H            1.031836562418    -0.220047214373    -1.674217772302     1.007825032230
         H           -0.291856437582     0.964466785627    -1.683497772302     1.007825032230

  Basis Set: AUG-CC-PVTZ
    Blend: AUG-CC-PVTZ
  Basis Set: (AUG-CC-PVTZ AUX)
    Blend: AUG-CC-PVTZ-JKFIT
	 Reference Energy          =    -131.9694750116479440 [Eh]
	 Singles Energy            =      -0.0000000000000000 [Eh]
	 Same-Spin Energy          =      -0.1336741546531138 [Eh]
	 Opposite-Spin Energy      =      -0.4456080006646895 [Eh]
	 Correlation Energy        =      -0.5792821553178034 [Eh]
	 Total Energy              =    -132.5487571669657427 [Eh]

	 ================> DF-SCS-MP2 Energies <==================
	-----------------------------------------------------------
	 SCS Same-Spin Scale       =       0.3333333333333333 [-]
	 SCS Opposite-Spin Scale   =       1.2000000000000000 [-]
	 SCS Same-Spin Energy      =      -0.0445580515510379 [Eh]
	 SCS Opposite-Spin Energy  =      -0.5347296007976273 [Eh]
	 SCS Correlation Energy    =      -0.5792876523486653 [Eh]
	 SCS Total Energy          =    -132.5487626639965981 [Eh]
	-----------------------------------------------------------

  Dipole Moment: [D]
     X:     0.1240      Y:    -0.0176      Z:    -3.9398     Total:     3.9417

*** Psi4 exiting successfully. Buy a developer a beer!
