                               Psi4 1.3.2 release

  ==> Input File <==

--------------------------------------------------------------------------
#psi4
#
memory 32 gb

molecule  {
0 1
  N       -0.0411599     0.0069296     1.4532853
  C        0.0000110    -0.0087070    -1.1889250
  C        0.0001420     0.0020510     0.2743040
  H       -0.6838220    -0.7758470    -1.5576010
  H        1.0038610    -0.2217700    -1.5616520
  H       -0.3198320     0.9627440    -1.5709320
units angstrom
no_reorient  #important for SAPT in psi4, default
symmetry c1  #important for SAPT in psi4, default
}

set PROPERTIES_ORIGIN ["COM"]
properties('MP2/aug-cc-pvtz', properties = ['dipole'])
--------------------------------------------------------------------------

    Molecular point group: c1
  Charge       = 0
  Multiplicity = 1
  Basis Set: AUG-CC-PVTZ
    Blend: AUG-CC-PVTZ
  Basis Set: (AUG-CC-PVTZ AUX)
    Blend: AUG-CC-PVTZ-JKFIT

    Orbital Energies [Eh]
    ---------------------

    Doubly Occupied:

       1A    -15.579505     2A    -11.289095     3A    -11.287842
       4A     -1.209456     5A     -1.041468     6A     -0.702073
       7A     -0.630420     8A     -0.630389     9A     -0.556647
      10A     -0.455738    11A     -0.455707

  @DF-RHF Final Energy:  -131.96965819119916

   => Energetics <=

    Nuclear Repulsion Energy =             57.9007561202022103
    One-Electron Energy =                -292.0641489464368306
    Two-Electron Energy =                 102.1937346350354687
    Total Energy =                       -131.9696581911991586
  Basis Set: (AUG-CC-PVTZ AUX)
    Blend: AUG-CC-PVTZ-RI
    Molecular point group: c1

    Geometry (in Angstrom), charge = 0, multiplicity = 1:

       Center              X                  Y                   Z               Mass
    ------------   -----------------  -----------------  -----------------  -----------------
         N           -0.027161147521     0.007367905954     1.339989791153    14.003074004430
         C            0.014009752479    -0.008268694046    -1.302220508847    12.000000000000
         C            0.014140752479     0.002489305954     0.161008491153    12.000000000000
         H           -0.669823247521    -0.775408694046    -1.670896508847     1.007825032230
         H            1.017859752479    -0.221331694046    -1.674947508847     1.007825032230
         H           -0.305833247521     0.963182305954    -1.684227508847     1.007825032230

  Basis Set: AUG-CC-PVTZ
    Blend: AUG-CC-PVTZ
  Basis Set: (AUG-CC-PVTZ AUX)
    Blend: AUG-CC-PVTZ-JKFIT
	 Reference Energy          =    -131.9696581911991586 [Eh]
	 Singles Energy            =      -0.0000000000000000 [Eh]
	 Same-Spin Energy          =      -0.1336660175850621 [Eh]
	 Opposite-Spin Energy      =      -0.4455754205266481 [Eh]
	 Correlation Energy        =      -0.5792414381117101 [Eh]
	 Total Energy              =    -132.5488996293108812 [Eh]

	 ================> DF-SCS-MP2 Energies <==================
	-----------------------------------------------------------
	 SCS Same-Spin Scale       =       0.3333333333333333 [-]
	 SCS Opposite-Spin Scale   =       1.2000000000000000 [-]
	 SCS Same-Spin Energy      =      -0.0445553391950207 [Eh]
	 SCS Opposite-Spin Energy  =      -0.5346905046319776 [Eh]
	 SCS Correlation Energy    =      -0.5792458438269984 [Eh]
	 SCS Total Energy          =    -132.5489040350261689 [Eh]
	-----------------------------------------------------------

  Dipole Moment: [D]
     X:     0.0622      Y:    -0.0234      Z:    -3.9452     Total:     3.9458

*** Psi4 exiting successfully. Buy a developer a beer!
