                               Psi4 1.3.2 release

  ==> Input File <==

--------------------------------------------------------------------------
#psi4
#
memory 32 gb

molecule  {
0 1
  N       -0.0001600     0.0106870     1.4539870
  C        0.0000110    -0.0087070    -1.1889250
  C        0.1021177     0.1159867     0.2654410
  H       -0.6838220    -0.7758470    -1.5576010
  H        1.0038610    -0.2217700    -1.5616520
  H       -0.3198320     0.9627440    -1.5709320
units angstrom
no_reorient  #important for SAPT in psi4, default
symmetry c1  #important for SAPT in psi4, default
}

set PROPERTIES_ORIGIN ["COM"]
properties('MP2/aug-cc-pvtz', properties = ['dipole'])
--------------------------------------------------------------------------

    Molecular point group: c1
  Charge       = 0
  Multiplicity = 1
  Basis Set: AUG-CC-PVTZ
    Blend: AUG-CC-PVTZ
  Basis Set: (AUG-CC-PVTZ AUX)
    Blend: AUG-CC-PVTZ-JKFIT

    Orbital Energies [Eh]
    ---------------------

    Doubly Occupied:

       1A    -15.586561     2A    -11.293738     3A    -11.288897
       4A     -1.202786     5A     -1.040771     6A     -0.704533
       7A     -0.630869     8A     -0.627287     9A     -0.557132
      10A     -0.451306    11A     -0.450837

  @DF-RHF Final Energy:  -131.96004222150970

   => Energetics <=

    Nuclear Repulsion Energy =             57.6251690005748145
    One-Electron Energy =                -291.5009888822247603
    Two-Electron Energy =                 101.9157776601402361
    Total Energy =                       -131.9600422215096955
  Basis Set: (AUG-CC-PVTZ AUX)
    Blend: AUG-CC-PVTZ-RI
    Molecular point group: c1

    Geometry (in Angstrom), charge = 0, multiplicity = 1:

       Center              X                  Y                   Z               Mass
    ------------   -----------------  -----------------  -----------------  -----------------
         N           -0.029982457768    -0.023482614561     1.343044358871    14.003074004430
         C           -0.029811457768    -0.042876614561    -1.299867641129    12.000000000000
         C            0.072295242232     0.081817085439     0.154498358871    12.000000000000
         H           -0.713644457768    -0.810016614561    -1.668543641129     1.007825032230
         H            0.974038542232    -0.255939614561    -1.672594641129     1.007825032230
         H           -0.349654457768     0.928574385439    -1.681874641129     1.007825032230

  Basis Set: AUG-CC-PVTZ
    Blend: AUG-CC-PVTZ
  Basis Set: (AUG-CC-PVTZ AUX)
    Blend: AUG-CC-PVTZ-JKFIT
	 Reference Energy          =    -131.9600422215096955 [Eh]
	 Singles Energy            =      -0.0000000000000000 [Eh]
	 Same-Spin Energy          =      -0.1349585509562874 [Eh]
	 Opposite-Spin Energy      =      -0.4485942072817410 [Eh]
	 Correlation Energy        =      -0.5835527582380284 [Eh]
	 Total Energy              =    -132.5435949797477235 [Eh]

	 ================> DF-SCS-MP2 Energies <==================
	-----------------------------------------------------------
	 SCS Same-Spin Scale       =       0.3333333333333333 [-]
	 SCS Opposite-Spin Scale   =       1.2000000000000000 [-]
	 SCS Same-Spin Energy      =      -0.0449861836520958 [Eh]
	 SCS Opposite-Spin Energy  =      -0.5383130487380893 [Eh]
	 SCS Correlation Energy    =      -0.5832992323901851 [Eh]
	 SCS Total Energy          =    -132.5433414538998704 [Eh]
	-----------------------------------------------------------

  Dipole Moment: [D]
     X:     0.0176      Y:    -0.0093      Z:    -3.8885     Total:     3.8885

*** Psi4 exiting successfully. Buy a developer a beer!
