                               Psi4 1.3.2 release

  ==> Input File <==

--------------------------------------------------------------------------
#psi4
#
memory 32 gb

molecule  {
0 1
  N       -0.0001600     0.0106870     1.4539870
  C        0.0000110    -0.0087070    -1.1889250
  C        0.0001510     0.0027862     0.3743013
  H       -0.6838220    -0.7758470    -1.5576010
  H        1.0038610    -0.2217700    -1.5616520
  H       -0.3198320     0.9627440    -1.5709320
units angstrom
no_reorient  #important for SAPT in psi4, default
symmetry c1  #important for SAPT in psi4, default
}

set PROPERTIES_ORIGIN ["COM"]
properties('MP2/aug-cc-pvtz', properties = ['dipole'])
--------------------------------------------------------------------------

    Molecular point group: c1
  Charge       = 0
  Multiplicity = 1
  Basis Set: AUG-CC-PVTZ
    Blend: AUG-CC-PVTZ
  Basis Set: (AUG-CC-PVTZ AUX)
    Blend: AUG-CC-PVTZ-JKFIT

    Orbital Energies [Eh]
    ---------------------

    Doubly Occupied:

       1A    -15.546573     2A    -11.295858     3A    -11.256104
       4A     -1.254494     5A     -1.018115     6A     -0.672116
       7A     -0.622919     8A     -0.622904     9A     -0.551837
      10A     -0.489689    11A     -0.489682

  @DF-RHF Final Energy:  -131.96437409900520

   => Energetics <=

    Nuclear Repulsion Energy =             58.6296347042454258
    One-Electron Energy =                -293.5474405410307099
    Two-Electron Energy =                 102.9534317377800789
    Total Energy =                       -131.9643740990051981
  Basis Set: (AUG-CC-PVTZ AUX)
    Blend: AUG-CC-PVTZ-RI
    Molecular point group: c1

    Geometry (in Angstrom), charge = 0, multiplicity = 1:

       Center              X                  Y                   Z               Mass
    ------------   -----------------  -----------------  -----------------  -----------------
         N           -0.000157858166     0.009627798812     1.311203425899    14.003074004430
         C            0.000013141834    -0.009766201188    -1.331708574101    12.000000000000
         C            0.000153141834     0.001726998812     0.231517725899    12.000000000000
         H           -0.683819858166    -0.776906201188    -1.700384574101     1.007825032230
         H            1.003863141834    -0.222829201188    -1.704435574101     1.007825032230
         H           -0.319829858166     0.961684798812    -1.713715574101     1.007825032230

  Basis Set: AUG-CC-PVTZ
    Blend: AUG-CC-PVTZ
  Basis Set: (AUG-CC-PVTZ AUX)
    Blend: AUG-CC-PVTZ-JKFIT
	 Reference Energy          =    -131.9643740990051981 [Eh]
	 Singles Energy            =      -0.0000000000000000 [Eh]
	 Same-Spin Energy          =      -0.1271988044047318 [Eh]
	 Opposite-Spin Energy      =      -0.4334681599175277 [Eh]
	 Correlation Energy        =      -0.5606669643222596 [Eh]
	 Total Energy              =    -132.5250410633274498 [Eh]

	 ================> DF-SCS-MP2 Energies <==================
	-----------------------------------------------------------
	 SCS Same-Spin Scale       =       0.3333333333333333 [-]
	 SCS Opposite-Spin Scale   =       1.2000000000000000 [-]
	 SCS Same-Spin Energy      =      -0.0423996014682439 [Eh]
	 SCS Opposite-Spin Energy  =      -0.5201617919010333 [Eh]
	 SCS Correlation Energy    =      -0.5625613933692772 [Eh]
	 SCS Total Energy          =    -132.5269354923744629 [Eh]
	-----------------------------------------------------------

  Dipole Moment: [D]
     X:     0.0004      Y:    -0.0293      Z:    -3.9747     Total:     3.9748

*** Psi4 exiting successfully. Buy a developer a beer!
