                               Psi4 1.4a3.dev225

  ==> Input File <==

--------------------------------------------------------------------------
#psi4
#
memory 32 gb

molecule  {
0 1
  N       -1.4539190     0.0000000     0.0000000
  C        1.1887110     0.0000000     0.0000000
  C       -0.2242650     0.0000010     0.0000000
  H        1.5635860     0.9070380    -0.4783560
  H        1.5635860    -0.8677880    -0.5463390
  H        1.5635870    -0.0392510     1.0246960
units angstrom
no_reorient  #important for SAPT in psi4, default
symmetry c1  #important for SAPT in psi4, default
}

set PROPERTIES_ORIGIN ["COM"]
properties('MP2/aug-cc-pvtz', properties = ['dipole'])
--------------------------------------------------------------------------

    Molecular point group: c1
  Charge       = 0
  Multiplicity = 1
  Basis Set: AUG-CC-PVTZ
    Blend: AUG-CC-PVTZ
  Basis Set: (AUG-CC-PVTZ AUX)
    Blend: AUG-CC-PVTZ-JKFIT

    Orbital Energies [Eh]
    ---------------------

    Doubly Occupied:

       1A    -15.593283     2A    -11.302043     3A    -11.285656
       4A     -1.189302     5A     -1.053976     6A     -0.715366
       7A     -0.635856     8A     -0.635856     9A     -0.557360
      10A     -0.439816    11A     -0.439816

  @DF-RHF Final Energy:  -131.95153462829950

   => Energetics <=

    Nuclear Repulsion Energy =             57.6937095788668586
    One-Electron Energy =                -291.5938287729172202
    Two-Electron Energy =                 101.9485845657508918
    Total Energy =                       -131.9515346282994983
  Basis Set: (AUG-CC-PVTZ AUX)
    Blend: AUG-CC-PVTZ-RI
    Molecular point group: c1

    Geometry (in Angstrom), charge = 0, multiplicity = 1:

       Center              X                  Y                   Z               Mass
    ------------   -----------------  -----------------  -----------------  -----------------
         N           -1.354994788678    -0.000000267928    -0.000000024565    14.003074004430
         C            1.287635211322    -0.000000267928    -0.000000024565    12.000000000000
         C           -0.125340788678     0.000000732072    -0.000000024565    12.000000000000
         H            1.662510211322     0.907037732072    -0.478356024565     1.007825032230
         H            1.662510211322    -0.867788267928    -0.546339024565     1.007825032230
         H            1.662511211322    -0.039251267928     1.024695975435     1.007825032230

  Basis Set: AUG-CC-PVTZ
    Blend: AUG-CC-PVTZ
  Basis Set: (AUG-CC-PVTZ AUX)
    Blend: AUG-CC-PVTZ-JKFIT
	 Reference Energy          =    -131.9515346282994983 [Eh]
	 Singles Energy            =      -0.0000000000000000 [Eh]
	 Same-Spin Energy          =      -0.1374796587762115 [Eh]
	 Opposite-Spin Energy      =      -0.4525818819747897 [Eh]
	 Correlation Energy        =      -0.5900615407510013 [Eh]
	 Total Energy              =    -132.5415961690505071 [Eh]

	 ================> DF-SCS-MP2 Energies <==================
	-----------------------------------------------------------
	 SCS Same-Spin Scale       =       0.3333333333333333 [-]
	 SCS Opposite-Spin Scale   =       1.2000000000000000 [-]
	 SCS Same-Spin Energy      =      -0.0458265529254038 [Eh]
	 SCS Opposite-Spin Energy  =      -0.5430982583697476 [Eh]
	 SCS Correlation Energy    =      -0.5889248112951514 [Eh]
	 SCS Total Energy          =    -132.5404594395946560 [Eh]
	-----------------------------------------------------------

  Dipole Moment: [D]
     X:     3.9479      Y:    -0.0000      Z:     0.0000     Total:     3.9479

*** Psi4 exiting successfully. Buy a developer a beer!
