                               Psi4 1.3.2 release

  ==> Input File <==

--------------------------------------------------------------------------
#psi4
#
memory 32 gb

molecule  {
0 1
  N        0.0817910     0.0181656     1.4510794
  C        0.0000110    -0.0087070    -1.1889250
  C        0.0001420     0.0020510     0.2743040
  H       -0.6838220    -0.7758470    -1.5576010
  H        1.0038610    -0.2217700    -1.5616520
  H       -0.3198320     0.9627440    -1.5709320
units angstrom
no_reorient  #important for SAPT in psi4, default
symmetry c1  #important for SAPT in psi4, default
}

set PROPERTIES_ORIGIN ["COM"]
properties('MP2/aug-cc-pvtz', properties = ['dipole'])
--------------------------------------------------------------------------

    Molecular point group: c1
  Charge       = 0
  Multiplicity = 1
  Basis Set: AUG-CC-PVTZ
    Blend: AUG-CC-PVTZ
  Basis Set: (AUG-CC-PVTZ AUX)
    Blend: AUG-CC-PVTZ-JKFIT

    Orbital Energies [Eh]
    ---------------------

    Doubly Occupied:

       1A    -15.579575     2A    -11.289042     3A    -11.287804
       4A     -1.209537     5A     -1.041352     6A     -0.702002
       7A     -0.630375     8A     -0.630328     9A     -0.556684
      10A     -0.455798    11A     -0.455664

  @DF-RHF Final Energy:  -131.96948050206839

   => Energetics <=

    Nuclear Repulsion Energy =             57.9059552243815077
    One-Electron Energy =                -292.0745508365414480
    Two-Electron Energy =                 102.1991151100915403
    Total Energy =                       -131.9694805020683930
  Basis Set: (AUG-CC-PVTZ AUX)
    Blend: AUG-CC-PVTZ-RI
    Molecular point group: c1

    Geometry (in Angstrom), charge = 0, multiplicity = 1:

       Center              X                  Y                   Z               Mass
    ------------   -----------------  -----------------  -----------------  -----------------
         N            0.053824474157     0.014768863939     1.338536803148    14.003074004430
         C           -0.027955525843    -0.012103736061    -1.301467596852    12.000000000000
         C           -0.027824525843    -0.001345736061     0.161761403148    12.000000000000
         H           -0.711788525843    -0.779243736061    -1.670143596852     1.007825032230
         H            0.975894474157    -0.225166736061    -1.674194596852     1.007825032230
         H           -0.347798525843     0.959347263939    -1.683474596852     1.007825032230

  Basis Set: AUG-CC-PVTZ
    Blend: AUG-CC-PVTZ
  Basis Set: (AUG-CC-PVTZ AUX)
    Blend: AUG-CC-PVTZ-JKFIT
	 Reference Energy          =    -131.9694805020683930 [Eh]
	 Singles Energy            =      -0.0000000000000000 [Eh]
	 Same-Spin Energy          =      -0.1336739043360036 [Eh]
	 Opposite-Spin Energy      =      -0.4456068625593916 [Eh]
	 Correlation Energy        =      -0.5792807668953952 [Eh]
	 Total Energy              =    -132.5487612689638013 [Eh]

	 ================> DF-SCS-MP2 Energies <==================
	-----------------------------------------------------------
	 SCS Same-Spin Scale       =       0.3333333333333333 [-]
	 SCS Opposite-Spin Scale   =       1.2000000000000000 [-]
	 SCS Same-Spin Energy      =      -0.0445579681120012 [Eh]
	 SCS Opposite-Spin Energy  =      -0.5347282350712700 [Eh]
	 SCS Correlation Energy    =      -0.5792862031832712 [Eh]
	 SCS Total Energy          =    -132.5487667052516656 [Eh]
	-----------------------------------------------------------

  Dipole Moment: [D]
     X:    -0.1235      Y:    -0.0403      Z:    -3.9397     Total:     3.9419

*** Psi4 exiting successfully. Buy a developer a beer!
