                               Psi4 1.3.2 release

  ==> Input File <==

--------------------------------------------------------------------------
#psi4
#
memory 32 gb

molecule  {
0 1
  N       -0.0001600     0.0106870     1.4539870
  C        0.0000110    -0.0087070    -1.1889250
  C       -0.1018351    -0.1120026     0.2671355
  H       -0.6838220    -0.7758470    -1.5576010
  H        1.0038610    -0.2217700    -1.5616520
  H       -0.3198320     0.9627440    -1.5709320
units angstrom
no_reorient  #important for SAPT in psi4, default
symmetry c1  #important for SAPT in psi4, default
}

set PROPERTIES_ORIGIN ["COM"]
properties('MP2/aug-cc-pvtz', properties = ['dipole'])
--------------------------------------------------------------------------

    Molecular point group: c1
  Charge       = 0
  Multiplicity = 1
  Basis Set: AUG-CC-PVTZ
    Blend: AUG-CC-PVTZ
  Basis Set: (AUG-CC-PVTZ AUX)
    Blend: AUG-CC-PVTZ-JKFIT

    Orbital Energies [Eh]
    ---------------------

    Doubly Occupied:

       1A    -15.586520     2A    -11.293755     3A    -11.288848
       4A     -1.202791     5A     -1.040796     6A     -0.704632
       7A     -0.629138     8A     -0.628912     9A     -0.557112
      10A     -0.452056    11A     -0.450031

  @DF-RHF Final Energy:  -131.95995690581711

   => Energetics <=

    Nuclear Repulsion Energy =             57.6266439646319668
    One-Electron Energy =                -291.5040183798321323
    Two-Electron Energy =                 101.9174175093830570
    Total Energy =                       -131.9599569058171085
  Basis Set: (AUG-CC-PVTZ AUX)
    Blend: AUG-CC-PVTZ-RI
    Molecular point group: c1

    Geometry (in Angstrom), charge = 0, multiplicity = 1:

       Center              X                  Y                   Z               Mass
    ------------   -----------------  -----------------  -----------------  -----------------
         N            0.029672415811     0.043202779652     1.342548728591    14.003074004430
         C            0.029843415811     0.023808779652    -1.300363271409    12.000000000000
         C           -0.072002684189    -0.079486820348     0.155697228591    12.000000000000
         H           -0.653989584189    -0.743331220348    -1.669039271409     1.007825032230
         H            1.033693415811    -0.189254220348    -1.673090271409     1.007825032230
         H           -0.289999584189     0.995259779652    -1.682370271409     1.007825032230

  Basis Set: AUG-CC-PVTZ
    Blend: AUG-CC-PVTZ
  Basis Set: (AUG-CC-PVTZ AUX)
    Blend: AUG-CC-PVTZ-JKFIT
	 Reference Energy          =    -131.9599569058171085 [Eh]
	 Singles Energy            =      -0.0000000000000000 [Eh]
	 Same-Spin Energy          =      -0.1349779826624619 [Eh]
	 Opposite-Spin Energy      =      -0.4486265945906686 [Eh]
	 Correlation Energy        =      -0.5836045772531305 [Eh]
	 Total Energy              =    -132.5435614830702491 [Eh]

	 ================> DF-SCS-MP2 Energies <==================
	-----------------------------------------------------------
	 SCS Same-Spin Scale       =       0.3333333333333333 [-]
	 SCS Opposite-Spin Scale   =       1.2000000000000000 [-]
	 SCS Same-Spin Energy      =      -0.0449926608874873 [Eh]
	 SCS Opposite-Spin Energy  =      -0.5383519135088023 [Eh]
	 SCS Correlation Energy    =      -0.5833445743962896 [Eh]
	 SCS Total Energy          =    -132.5433014802133869 [Eh]
	-----------------------------------------------------------

  Dipole Moment: [D]
     X:    -0.0152      Y:    -0.0460      Z:    -3.8865     Total:     3.8868

*** Psi4 exiting successfully. Buy a developer a beer!
