                               Psi4 1.3.2 release

  ==> Input File <==

--------------------------------------------------------------------------
#psi4
#
memory 32 gb

molecule  {
0 1
  N       -0.0001600     0.0106870     1.4539870
  C        0.0000110    -0.0087070    -1.1889250
  C       -0.0339055    -0.0360156     0.2736955
  H       -0.6838220    -0.7758470    -1.5576010
  H        1.0038610    -0.2217700    -1.5616520
  H       -0.3198320     0.9627440    -1.5709320
units angstrom
no_reorient  #important for SAPT in psi4, default
symmetry c1  #important for SAPT in psi4, default
}

set PROPERTIES_ORIGIN ["COM"]
properties('MP2/aug-cc-pvtz', properties = ['dipole'])
--------------------------------------------------------------------------

    Molecular point group: c1
  Charge       = 0
  Multiplicity = 1
  Basis Set: AUG-CC-PVTZ
    Blend: AUG-CC-PVTZ
  Basis Set: (AUG-CC-PVTZ AUX)
    Blend: AUG-CC-PVTZ-JKFIT

    Orbital Energies [Eh]
    ---------------------

    Doubly Occupied:

       1A    -15.580271     2A    -11.289226     3A    -11.288382
       4A     -1.208679     5A     -1.041432     6A     -0.702384
       7A     -0.630430     8A     -0.630094     9A     -0.556703
      10A     -0.455394    11A     -0.454979

  @DF-RHF Final Energy:  -131.96868130970844

   => Energetics <=

    Nuclear Repulsion Energy =             57.8681790977316766
    One-Electron Energy =                -291.9977705340607486
    Two-Electron Energy =                 102.1609101266206210
    Total Energy =                       -131.9686813097084439
  Basis Set: (AUG-CC-PVTZ AUX)
    Blend: AUG-CC-PVTZ-RI
    Molecular point group: c1

    Geometry (in Angstrom), charge = 0, multiplicity = 1:

       Center              X                  Y                   Z               Mass
    ------------   -----------------  -----------------  -----------------  -----------------
         N            0.009803447597     0.020977074104     1.340629971062    14.003074004430
         C            0.009974447597     0.001583074104    -1.302282028938    12.000000000000
         C           -0.023942052403    -0.025725525896     0.160338471062    12.000000000000
         H           -0.673858552403    -0.765556925896    -1.670958028938     1.007825032230
         H            1.013824447597    -0.211479925896    -1.675009028938     1.007825032230
         H           -0.309868552403     0.973034074104    -1.684289028938     1.007825032230

  Basis Set: AUG-CC-PVTZ
    Blend: AUG-CC-PVTZ
  Basis Set: (AUG-CC-PVTZ AUX)
    Blend: AUG-CC-PVTZ-JKFIT
	 Reference Energy          =    -131.9686813097084439 [Eh]
	 Singles Energy            =      -0.0000000000000000 [Eh]
	 Same-Spin Energy          =      -0.1338084076660761 [Eh]
	 Opposite-Spin Energy      =      -0.4459021552912942 [Eh]
	 Correlation Energy        =      -0.5797105629573703 [Eh]
	 Total Energy              =    -132.5483918726658032 [Eh]

	 ================> DF-SCS-MP2 Energies <==================
	-----------------------------------------------------------
	 SCS Same-Spin Scale       =       0.3333333333333333 [-]
	 SCS Opposite-Spin Scale   =       1.2000000000000000 [-]
	 SCS Same-Spin Energy      =      -0.0446028025553587 [Eh]
	 SCS Opposite-Spin Energy  =      -0.5350825863495530 [Eh]
	 SCS Correlation Energy    =      -0.5796853889049117 [Eh]
	 SCS Total Energy          =    -132.5483666986133642 [Eh]
	-----------------------------------------------------------

  Dipole Moment: [D]
     X:    -0.0062      Y:    -0.0363      Z:    -3.9403     Total:     3.9405

*** Psi4 exiting successfully. Buy a developer a beer!
