                               Psi4 1.3.2 release

  ==> Input File <==

--------------------------------------------------------------------------
#psi4
#
memory 32 gb

molecule  {
0 1
  N        0.0408403     0.0144338     1.4532514
  C        0.0000110    -0.0087070    -1.1889250
  C        0.0001420     0.0020510     0.2743040
  H       -0.6838220    -0.7758470    -1.5576010
  H        1.0038610    -0.2217700    -1.5616520
  H       -0.3198320     0.9627440    -1.5709320
units angstrom
no_reorient  #important for SAPT in psi4, default
symmetry c1  #important for SAPT in psi4, default
}

set PROPERTIES_ORIGIN ["COM"]
properties('MP2/aug-cc-pvtz', properties = ['dipole'])
--------------------------------------------------------------------------

    Molecular point group: c1
  Charge       = 0
  Multiplicity = 1
  Basis Set: AUG-CC-PVTZ
    Blend: AUG-CC-PVTZ
  Basis Set: (AUG-CC-PVTZ AUX)
    Blend: AUG-CC-PVTZ-JKFIT

    Orbital Energies [Eh]
    ---------------------

    Doubly Occupied:

       1A    -15.579503     2A    -11.289096     3A    -11.287843
       4A     -1.209455     5A     -1.041470     6A     -0.702074
       7A     -0.630419     8A     -0.630392     9A     -0.556646
      10A     -0.455749    11A     -0.455696

  @DF-RHF Final Energy:  -131.96966096739374

   => Energetics <=

    Nuclear Repulsion Energy =             57.9006895192925128
    One-Electron Energy =                -292.0640162585672215
    Two-Electron Energy =                 102.1936657718809727
    Total Energy =                       -131.9696609673937360
  Basis Set: (AUG-CC-PVTZ AUX)
    Blend: AUG-CC-PVTZ-RI
    Molecular point group: c1

    Geometry (in Angstrom), charge = 0, multiplicity = 1:

       Center              X                  Y                   Z               Mass
    ------------   -----------------  -----------------  -----------------  -----------------
         N            0.026850959546     0.012310792115     1.339967461812    14.003074004430
         C           -0.013978340454    -0.010830007885    -1.302208938188    12.000000000000
         C           -0.013847340454    -0.000072007885     0.161020061812    12.000000000000
         H           -0.697811340454    -0.777970007885    -1.670884938188     1.007825032230
         H            0.989871659546    -0.223893007885    -1.674935938188     1.007825032230
         H           -0.333821340454     0.960620992115    -1.684215938188     1.007825032230

  Basis Set: AUG-CC-PVTZ
    Blend: AUG-CC-PVTZ
  Basis Set: (AUG-CC-PVTZ AUX)
    Blend: AUG-CC-PVTZ-JKFIT
	 Reference Energy          =    -131.9696609673937360 [Eh]
	 Singles Energy            =      -0.0000000000000000 [Eh]
	 Same-Spin Energy          =      -0.1336658941594269 [Eh]
	 Opposite-Spin Energy      =      -0.4455748990759174 [Eh]
	 Correlation Energy        =      -0.5792407932353443 [Eh]
	 Total Energy              =    -132.5489017606290929 [Eh]

	 ================> DF-SCS-MP2 Energies <==================
	-----------------------------------------------------------
	 SCS Same-Spin Scale       =       0.3333333333333333 [-]
	 SCS Opposite-Spin Scale   =       1.2000000000000000 [-]
	 SCS Same-Spin Energy      =      -0.0445552980531423 [Eh]
	 SCS Opposite-Spin Energy  =      -0.5346898788911009 [Eh]
	 SCS Correlation Energy    =      -0.5792451769442432 [Eh]
	 SCS Total Energy          =    -132.5489061443379910 [Eh]
	-----------------------------------------------------------

  Dipole Moment: [D]
     X:    -0.0616      Y:    -0.0347      Z:    -3.9452     Total:     3.9459

*** Psi4 exiting successfully. Buy a developer a beer!
