                               Psi4 1.4a3.dev225

  ==> Input File <==

--------------------------------------------------------------------------
#psi4
#
memory 32 gb

molecule  {
0 1
  N       -1.4539190     0.0000000     0.0000000
  C        1.1887110     0.0000000     0.0000000
  C       -0.2542650     0.0000010     0.0000000
  H        1.5635860     0.9070380    -0.4783560
  H        1.5635860    -0.8677880    -0.5463390
  H        1.5635870    -0.0392510     1.0246960
units angstrom
no_reorient  #important for SAPT in psi4, default
symmetry c1  #important for SAPT in psi4, default
}

set PROPERTIES_ORIGIN ["COM"]
properties('MP2/aug-cc-pvtz', properties = ['dipole'])
--------------------------------------------------------------------------

    Molecular point group: c1
  Charge       = 0
  Multiplicity = 1
  Basis Set: AUG-CC-PVTZ
    Blend: AUG-CC-PVTZ
  Basis Set: (AUG-CC-PVTZ AUX)
    Blend: AUG-CC-PVTZ-JKFIT

    Orbital Energies [Eh]
    ---------------------

    Doubly Occupied:

       1A    -15.585236     2A    -11.293806     3A    -11.287585
       4A     -1.201050     5A     -1.046582     6A     -0.707618
       7A     -0.632427     8A     -0.632427     9A     -0.557088
      10A     -0.449296    11A     -0.449296

  @DF-RHF Final Energy:  -131.96387051821401

   => Energetics <=

    Nuclear Repulsion Energy =             57.8076573343693312
    One-Electron Energy =                -291.8582293384682771
    Two-Electron Energy =                 102.0867014858849302
    Total Energy =                       -131.9638705182140086
  Basis Set: (AUG-CC-PVTZ AUX)
    Blend: AUG-CC-PVTZ-RI
    Molecular point group: c1

    Geometry (in Angstrom), charge = 0, multiplicity = 1:

       Center              X                  Y                   Z               Mass
    ------------   -----------------  -----------------  -----------------  -----------------
         N           -1.346219982903    -0.000000267928    -0.000000024565    14.003074004430
         C            1.296410017097    -0.000000267928    -0.000000024565    12.000000000000
         C           -0.146565982903     0.000000732072    -0.000000024565    12.000000000000
         H            1.671285017097     0.907037732072    -0.478356024565     1.007825032230
         H            1.671285017097    -0.867788267928    -0.546339024565     1.007825032230
         H            1.671286017097    -0.039251267928     1.024695975435     1.007825032230

  Basis Set: AUG-CC-PVTZ
    Blend: AUG-CC-PVTZ
  Basis Set: (AUG-CC-PVTZ AUX)
    Blend: AUG-CC-PVTZ-JKFIT
	 Reference Energy          =    -131.9638705182140086 [Eh]
	 Singles Energy            =      -0.0000000000000000 [Eh]
	 Same-Spin Energy          =      -0.1351436998018803 [Eh]
	 Opposite-Spin Energy      =      -0.4482900148600180 [Eh]
	 Correlation Energy        =      -0.5834337146618982 [Eh]
	 Total Energy              =    -132.5473042328759163 [Eh]

	 ================> DF-SCS-MP2 Energies <==================
	-----------------------------------------------------------
	 SCS Same-Spin Scale       =       0.3333333333333333 [-]
	 SCS Opposite-Spin Scale   =       1.2000000000000000 [-]
	 SCS Same-Spin Energy      =      -0.0450478999339601 [Eh]
	 SCS Opposite-Spin Energy  =      -0.5379480178320215 [Eh]
	 SCS Correlation Energy    =      -0.5829959177659816 [Eh]
	 SCS Total Energy          =    -132.5468664359799789 [Eh]
	-----------------------------------------------------------

  Dipole Moment: [D]
     X:     3.9464      Y:    -0.0000      Z:     0.0000     Total:     3.9464

*** Psi4 exiting successfully. Buy a developer a beer!
