                               Psi4 1.3.2 release

  ==> Input File <==

--------------------------------------------------------------------------
#psi4
#
memory 32 gb

molecule  {
0 1
  N       -0.0001600     0.0106870     1.4539870
  C        0.0000110    -0.0087070    -1.1889250
  C       -0.0679117    -0.0740489     0.2713051
  H       -0.6838220    -0.7758470    -1.5576010
  H        1.0038610    -0.2217700    -1.5616520
  H       -0.3198320     0.9627440    -1.5709320
units angstrom
no_reorient  #important for SAPT in psi4, default
symmetry c1  #important for SAPT in psi4, default
}

set PROPERTIES_ORIGIN ["COM"]
properties('MP2/aug-cc-pvtz', properties = ['dipole'])
--------------------------------------------------------------------------

    Molecular point group: c1
  Charge       = 0
  Multiplicity = 1
  Basis Set: AUG-CC-PVTZ
    Blend: AUG-CC-PVTZ
  Basis Set: (AUG-CC-PVTZ AUX)
    Blend: AUG-CC-PVTZ-JKFIT

    Orbital Energies [Eh]
    ---------------------

    Doubly Occupied:

       1A    -15.582635     2A    -11.290651     3A    -11.288859
       4A     -1.206445     5A     -1.041198     6A     -0.703237
       7A     -0.629908     8A     -0.629664     9A     -0.556888
      10A     -0.454153    11A     -0.453056

  @DF-RHF Final Energy:  -131.96548723932901

   => Energetics <=

    Nuclear Repulsion Energy =             57.7764310135850323
    One-Electron Energy =                -291.8104480150250311
    Two-Electron Energy =                 102.0685297621109839
    Total Energy =                       -131.9654872393290077
  Basis Set: (AUG-CC-PVTZ AUX)
    Blend: AUG-CC-PVTZ-RI
    Molecular point group: c1

    Geometry (in Angstrom), charge = 0, multiplicity = 1:

       Center              X                  Y                   Z               Mass
    ------------   -----------------  -----------------  -----------------  -----------------
         N            0.019750040936     0.032101568120     1.341329147586    14.003074004430
         C            0.019921040936     0.012707568120    -1.301582852414    12.000000000000
         C           -0.048001659064    -0.052634331880     0.158647247586    12.000000000000
         H           -0.663911959064    -0.754432431880    -1.670258852414     1.007825032230
         H            1.023771040936    -0.200355431880    -1.674309852414     1.007825032230
         H           -0.299921959064     0.984158568120    -1.683589852414     1.007825032230

  Basis Set: AUG-CC-PVTZ
    Blend: AUG-CC-PVTZ
  Basis Set: (AUG-CC-PVTZ AUX)
    Blend: AUG-CC-PVTZ-JKFIT
	 Reference Energy          =    -131.9654872393290077 [Eh]
	 Singles Energy            =      -0.0000000000000000 [Eh]
	 Same-Spin Energy          =      -0.1342465476220017 [Eh]
	 Opposite-Spin Energy      =      -0.4469219864946741 [Eh]
	 Correlation Energy        =      -0.5811685341166759 [Eh]
	 Total Energy              =    -132.5466557734456785 [Eh]

	 ================> DF-SCS-MP2 Energies <==================
	-----------------------------------------------------------
	 SCS Same-Spin Scale       =       0.3333333333333333 [-]
	 SCS Opposite-Spin Scale   =       1.2000000000000000 [-]
	 SCS Same-Spin Energy      =      -0.0447488492073339 [Eh]
	 SCS Opposite-Spin Energy  =      -0.5363063837936090 [Eh]
	 SCS Correlation Energy    =      -0.5810552330009429 [Eh]
	 SCS Total Energy          =    -132.5465424723299463 [Eh]
	-----------------------------------------------------------

  Dipole Moment: [D]
     X:    -0.0116      Y:    -0.0422      Z:    -3.9200     Total:     3.9202

*** Psi4 exiting successfully. Buy a developer a beer!
