                               Psi4 1.4a3.dev225

  ==> Input File <==

--------------------------------------------------------------------------
#psi4
#
memory 32 gb

molecule  {
0 1
  N       -1.4539190     0.0000000     0.0000000
  C        1.1887110     0.0000000     0.0000000
  C       -0.2942650     0.0000010     0.0000000
  H        1.5635860     0.9070380    -0.4783560
  H        1.5635860    -0.8677880    -0.5463390
  H        1.5635870    -0.0392510     1.0246960
units angstrom
no_reorient  #important for SAPT in psi4, default
symmetry c1  #important for SAPT in psi4, default
}

set PROPERTIES_ORIGIN ["COM"]
properties('MP2/aug-cc-pvtz', properties = ['dipole'])
--------------------------------------------------------------------------

    Molecular point group: c1
  Charge       = 0
  Multiplicity = 1
  Basis Set: AUG-CC-PVTZ
    Blend: AUG-CC-PVTZ
  Basis Set: (AUG-CC-PVTZ AUX)
    Blend: AUG-CC-PVTZ-JKFIT

    Orbital Energies [Eh]
    ---------------------

    Doubly Occupied:

       1A    -15.573407     2A    -11.290315     3A    -11.281922
       4A     -1.218213     5A     -1.036554     6A     -0.696600
       7A     -0.628537     8A     -0.628537     9A     -0.556040
      10A     -0.462266    11A     -0.462266

  @DF-RHF Final Energy:  -131.97353764635830

   => Energetics <=

    Nuclear Repulsion Energy =             58.0154737638555744
    One-Electron Energy =                -292.3087064265172330
    Two-Electron Energy =                 102.3196950163033847
    Total Energy =                       -131.9735376463582952
  Basis Set: (AUG-CC-PVTZ AUX)
    Blend: AUG-CC-PVTZ-RI
    Molecular point group: c1

    Geometry (in Angstrom), charge = 0, multiplicity = 1:

       Center              X                  Y                   Z               Mass
    ------------   -----------------  -----------------  -----------------  -----------------
         N           -1.334520241869    -0.000000267928    -0.000000024565    14.003074004430
         C            1.308109758131    -0.000000267928    -0.000000024565    12.000000000000
         C           -0.174866241869     0.000000732072    -0.000000024565    12.000000000000
         H            1.682984758131     0.907037732072    -0.478356024565     1.007825032230
         H            1.682984758131    -0.867788267928    -0.546339024565     1.007825032230
         H            1.682985758131    -0.039251267928     1.024695975435     1.007825032230

  Basis Set: AUG-CC-PVTZ
    Blend: AUG-CC-PVTZ
  Basis Set: (AUG-CC-PVTZ AUX)
    Blend: AUG-CC-PVTZ-JKFIT
	 Reference Energy          =    -131.9735376463582952 [Eh]
	 Singles Energy            =      -0.0000000000000000 [Eh]
	 Same-Spin Energy          =      -0.1322455398742330 [Eh]
	 Opposite-Spin Energy      =      -0.4429345478111070 [Eh]
	 Correlation Energy        =      -0.5751800876853399 [Eh]
	 Total Energy              =    -132.5487177340436347 [Eh]

	 ================> DF-SCS-MP2 Energies <==================
	-----------------------------------------------------------
	 SCS Same-Spin Scale       =       0.3333333333333333 [-]
	 SCS Opposite-Spin Scale   =       1.2000000000000000 [-]
	 SCS Same-Spin Energy      =      -0.0440818466247443 [Eh]
	 SCS Opposite-Spin Energy  =      -0.5315214573733283 [Eh]
	 SCS Correlation Energy    =      -0.5756033039980727 [Eh]
	 SCS Total Energy          =    -132.5491409503563602 [Eh]
	-----------------------------------------------------------

  Dipole Moment: [D]
     X:     3.9495      Y:    -0.0000      Z:     0.0000     Total:     3.9495

*** Psi4 exiting successfully. Buy a developer a beer!
