                               Psi4 1.3.2 release

  ==> Input File <==

--------------------------------------------------------------------------
#psi4
#
memory 32 gb

molecule  {
0 1
  N       -0.0206631     0.0088093     1.4538158
  C        0.0000110    -0.0087070    -1.1889250
  C        0.0001420     0.0020510     0.2743040
  H       -0.6838220    -0.7758470    -1.5576010
  H        1.0038610    -0.2217700    -1.5616520
  H       -0.3198320     0.9627440    -1.5709320
units angstrom
no_reorient  #important for SAPT in psi4, default
symmetry c1  #important for SAPT in psi4, default
}

set PROPERTIES_ORIGIN ["COM"]
properties('MP2/aug-cc-pvtz', properties = ['dipole'])
--------------------------------------------------------------------------

    Molecular point group: c1
  Charge       = 0
  Multiplicity = 1
  Basis Set: AUG-CC-PVTZ
    Blend: AUG-CC-PVTZ
  Basis Set: (AUG-CC-PVTZ AUX)
    Blend: AUG-CC-PVTZ-JKFIT

    Orbital Energies [Eh]
    ---------------------

    Doubly Occupied:

       1A    -15.579486     2A    -11.289109     3A    -11.287852
       4A     -1.209435     5A     -1.041499     6A     -0.702091
       7A     -0.630428     8A     -0.630409     9A     -0.556637
      10A     -0.455728    11A     -0.455712

  @DF-RHF Final Energy:  -131.96970433237135

   => Energetics <=

    Nuclear Repulsion Energy =             57.8994154705935031
    One-Electron Energy =                -292.0614667771707786
    Two-Electron Energy =                 102.1923469742059041
    Total Energy =                       -131.9697043323713501
  Basis Set: (AUG-CC-PVTZ AUX)
    Blend: AUG-CC-PVTZ-RI
    Molecular point group: c1

    Geometry (in Angstrom), charge = 0, multiplicity = 1:

       Center              X                  Y                   Z               Mass
    ------------   -----------------  -----------------  -----------------  -----------------
         N           -0.013660261473     0.008606031686     1.340339222286    14.003074004430
         C            0.007013838527    -0.008910268314    -1.302401577714    12.000000000000
         C            0.007144838527     0.001847731686     0.160827422286    12.000000000000
         H           -0.676819161473    -0.776050268314    -1.671077577714     1.007825032230
         H            1.010863838527    -0.221973268314    -1.675128577714     1.007825032230
         H           -0.312829161473     0.962540731686    -1.684408577714     1.007825032230

  Basis Set: AUG-CC-PVTZ
    Blend: AUG-CC-PVTZ
  Basis Set: (AUG-CC-PVTZ AUX)
    Blend: AUG-CC-PVTZ-JKFIT
	 Reference Energy          =    -131.9697043323713501 [Eh]
	 Singles Energy            =      -0.0000000000000000 [Eh]
	 Same-Spin Energy          =      -0.1336639620810454 [Eh]
	 Opposite-Spin Energy      =      -0.4455672161207894 [Eh]
	 Correlation Energy        =      -0.5792311782018349 [Eh]
	 Total Energy              =    -132.5489355105731875 [Eh]

	 ================> DF-SCS-MP2 Energies <==================
	-----------------------------------------------------------
	 SCS Same-Spin Scale       =       0.3333333333333333 [-]
	 SCS Opposite-Spin Scale   =       1.2000000000000000 [-]
	 SCS Same-Spin Energy      =      -0.0445546540270151 [Eh]
	 SCS Opposite-Spin Energy  =      -0.5346806593449472 [Eh]
	 SCS Correlation Energy    =      -0.5792353133719623 [Eh]
	 SCS Total Energy          =    -132.5489396457433031 [Eh]
	-----------------------------------------------------------

  Dipole Moment: [D]
     X:     0.0313      Y:    -0.0262      Z:    -3.9466     Total:     3.9468

*** Psi4 exiting successfully. Buy a developer a beer!
