                               Psi4 1.3.2 release

  ==> Input File <==

--------------------------------------------------------------------------
#psi4
#
memory 32 gb

molecule  {
0 1
  N       -0.0001600     0.0106870     1.4539870
  C        0.0000110    -0.0087070    -1.1889250
  C        0.0171683     0.0210823     0.2739397
  H       -0.6838220    -0.7758470    -1.5576010
  H        1.0038610    -0.2217700    -1.5616520
  H       -0.3198320     0.9627440    -1.5709320
units angstrom
no_reorient  #important for SAPT in psi4, default
symmetry c1  #important for SAPT in psi4, default
}

set PROPERTIES_ORIGIN ["COM"]
properties('MP2/aug-cc-pvtz', properties = ['dipole'])
--------------------------------------------------------------------------

    Molecular point group: c1
  Charge       = 0
  Multiplicity = 1
  Basis Set: AUG-CC-PVTZ
    Blend: AUG-CC-PVTZ
  Basis Set: (AUG-CC-PVTZ AUX)
    Blend: AUG-CC-PVTZ-JKFIT

    Orbital Energies [Eh]
    ---------------------

    Doubly Occupied:

       1A    -15.579682     2A    -11.289132     3A    -11.288000
       4A     -1.209237     5A     -1.041489     6A     -0.702169
       7A     -0.630559     8A     -0.630208     9A     -0.556652
      10A     -0.455632    11A     -0.455535

  @DF-RHF Final Energy:  -131.96945910062229

   => Energetics <=

    Nuclear Repulsion Energy =             57.8910861298774648
    One-Electron Energy =                -292.0445022769886805
    Two-Electron Energy =                 102.1839570464889277
    Total Energy =                       -131.9694591006222879
  Basis Set: (AUG-CC-PVTZ AUX)
    Blend: AUG-CC-PVTZ-RI
    Molecular point group: c1

    Geometry (in Angstrom), charge = 0, multiplicity = 1:

       Center              X                  Y                   Z               Mass
    ------------   -----------------  -----------------  -----------------  -----------------
         N           -0.005135308243     0.004276308014     1.340558544143    14.003074004430
         C           -0.004964308243    -0.015117691986    -1.302353455857    12.000000000000
         C            0.012192991757     0.014671608014     0.160511244143    12.000000000000
         H           -0.688797308243    -0.782257691986    -1.671029455857     1.007825032230
         H            0.998885691757    -0.228180691986    -1.675080455857     1.007825032230
         H           -0.324807308243     0.956333308014    -1.684360455857     1.007825032230

  Basis Set: AUG-CC-PVTZ
    Blend: AUG-CC-PVTZ
  Basis Set: (AUG-CC-PVTZ AUX)
    Blend: AUG-CC-PVTZ-JKFIT
	 Reference Energy          =    -131.9694591006222879 [Eh]
	 Singles Energy            =      -0.0000000000000000 [Eh]
	 Same-Spin Energy          =      -0.1337000194155293 [Eh]
	 Opposite-Spin Energy      =      -0.4456500719080445 [Eh]
	 Correlation Energy        =      -0.5793500913235738 [Eh]
	 Total Energy              =    -132.5488091919458498 [Eh]

	 ================> DF-SCS-MP2 Energies <==================
	-----------------------------------------------------------
	 SCS Same-Spin Scale       =       0.3333333333333333 [-]
	 SCS Opposite-Spin Scale   =       1.2000000000000000 [-]
	 SCS Same-Spin Energy      =      -0.0445666731385098 [Eh]
	 SCS Opposite-Spin Energy  =      -0.5347800862896533 [Eh]
	 SCS Correlation Energy    =      -0.5793467594281632 [Eh]
	 SCS Total Energy          =    -132.5488058600504644 [Eh]
	-----------------------------------------------------------

  Dipole Moment: [D]
     X:     0.0037      Y:    -0.0253      Z:    -3.9454     Total:     3.9455

*** Psi4 exiting successfully. Buy a developer a beer!
