                               Psi4 1.3.2 release

  ==> Input File <==

--------------------------------------------------------------------------
#psi4
#
memory 32 gb

molecule  {
0 1
  N       -0.1229589    -0.0005983     1.4475754
  C        0.0000110    -0.0087070    -1.1889250
  C        0.0001420     0.0020510     0.2743040
  H       -0.6838220    -0.7758470    -1.5576010
  H        1.0038610    -0.2217700    -1.5616520
  H       -0.3198320     0.9627440    -1.5709320
units angstrom
no_reorient  #important for SAPT in psi4, default
symmetry c1  #important for SAPT in psi4, default
}

set PROPERTIES_ORIGIN ["COM"]
properties('MP2/aug-cc-pvtz', properties = ['dipole'])
--------------------------------------------------------------------------

    Molecular point group: c1
  Charge       = 0
  Multiplicity = 1
  Basis Set: AUG-CC-PVTZ
    Blend: AUG-CC-PVTZ
  Basis Set: (AUG-CC-PVTZ AUX)
    Blend: AUG-CC-PVTZ-JKFIT

    Orbital Energies [Eh]
    ---------------------

    Doubly Occupied:

       1A    -15.579698     2A    -11.288950     3A    -11.287737
       4A     -1.209678     5A     -1.041150     6A     -0.701880
       7A     -0.630306     8A     -0.630210     9A     -0.556748
      10A     -0.455813    11A     -0.455680

  @DF-RHF Final Energy:  -131.96917072804541

   => Energetics <=

    Nuclear Repulsion Energy =             57.9149538477744770
    One-Electron Energy =                -292.0925491999230985
    Two-Electron Energy =                 102.2084246241031877
    Total Energy =                       -131.9691707280454125
  Basis Set: (AUG-CC-PVTZ AUX)
    Blend: AUG-CC-PVTZ-RI
    Molecular point group: c1

    Geometry (in Angstrom), charge = 0, multiplicity = 1:

       Center              X                  Y                   Z               Mass
    ------------   -----------------  -----------------  -----------------  -----------------
         N           -0.081040727643     0.002409409014     1.336228779227    14.003074004430
         C            0.041929172357    -0.005699290986    -1.300271620773    12.000000000000
         C            0.042060172357     0.005058709014     0.162957379227    12.000000000000
         H           -0.641903827643    -0.772839290986    -1.668947620773     1.007825032230
         H            1.045779172357    -0.218762290986    -1.672998620773     1.007825032230
         H           -0.277913827643     0.965751709014    -1.682278620773     1.007825032230

  Basis Set: AUG-CC-PVTZ
    Blend: AUG-CC-PVTZ
  Basis Set: (AUG-CC-PVTZ AUX)
    Blend: AUG-CC-PVTZ-JKFIT
	 Reference Energy          =    -131.9691707280454125 [Eh]
	 Singles Energy            =      -0.0000000000000000 [Eh]
	 Same-Spin Energy          =      -0.1336875552008960 [Eh]
	 Opposite-Spin Energy      =      -0.4456620661235634 [Eh]
	 Correlation Energy        =      -0.5793496213244594 [Eh]
	 Total Energy              =    -132.5485203493698805 [Eh]

	 ================> DF-SCS-MP2 Energies <==================
	-----------------------------------------------------------
	 SCS Same-Spin Scale       =       0.3333333333333333 [-]
	 SCS Opposite-Spin Scale   =       1.2000000000000000 [-]
	 SCS Same-Spin Energy      =      -0.0445625184002987 [Eh]
	 SCS Opposite-Spin Energy  =      -0.5347944793482761 [Eh]
	 SCS Correlation Energy    =      -0.5793569977485747 [Eh]
	 SCS Total Energy          =    -132.5485277257939742 [Eh]
	-----------------------------------------------------------

  Dipole Moment: [D]
     X:     0.1855      Y:    -0.0118      Z:    -3.9306     Total:     3.9350

*** Psi4 exiting successfully. Buy a developer a beer!
