                               Psi4 1.3.2 release

  ==> Input File <==

--------------------------------------------------------------------------
#psi4
#
memory 32 gb

molecule  {
0 1
  N       -0.0001600     0.0106870     1.4539870
  C        0.0000110    -0.0087070    -1.1889250
  C        0.0001676     0.0013190     0.1743067
  H       -0.6838220    -0.7758470    -1.5576010
  H        1.0038610    -0.2217700    -1.5616520
  H       -0.3198320     0.9627440    -1.5709320
units angstrom
no_reorient  #important for SAPT in psi4, default
symmetry c1  #important for SAPT in psi4, default
}

set PROPERTIES_ORIGIN ["COM"]
properties('MP2/aug-cc-pvtz', properties = ['dipole'])
--------------------------------------------------------------------------

    Molecular point group: c1
  Charge       = 0
  Multiplicity = 1
  Basis Set: AUG-CC-PVTZ
    Blend: AUG-CC-PVTZ
  Basis Set: (AUG-CC-PVTZ AUX)
    Blend: AUG-CC-PVTZ-JKFIT

    Orbital Energies [Eh]
    ---------------------

    Doubly Occupied:

       1A    -15.604974     2A    -11.314448     3A    -11.282652
       4A     -1.173641     5A     -1.064320     6A     -0.727230
       7A     -0.642666     8A     -0.642656     9A     -0.556722
      10A     -0.424381    11A     -0.424376

  @DF-RHF Final Energy:  -131.92242780843944

   => Energetics <=

    Nuclear Repulsion Energy =             57.5763165114856150
    One-Electron Energy =                -291.2813571124503937
    Two-Electron Energy =                 101.7826127925253274
    Total Energy =                       -131.9224278084394371
  Basis Set: (AUG-CC-PVTZ AUX)
    Blend: AUG-CC-PVTZ-RI
    Molecular point group: c1

    Geometry (in Angstrom), charge = 0, multiplicity = 1:

       Center              X                  Y                   Z               Mass
    ------------   -----------------  -----------------  -----------------  -----------------
         N           -0.000162713558     0.010056945313     1.369700551604    14.003074004430
         C            0.000008286442    -0.009337054687    -1.273211448396    12.000000000000
         C            0.000164886442     0.000688945313     0.090020251604    12.000000000000
         H           -0.683824713558    -0.776477054687    -1.641887448396     1.007825032230
         H            1.003858286442    -0.222400054687    -1.645938448396     1.007825032230
         H           -0.319834713558     0.962113945313    -1.655218448396     1.007825032230

  Basis Set: AUG-CC-PVTZ
    Blend: AUG-CC-PVTZ
  Basis Set: (AUG-CC-PVTZ AUX)
    Blend: AUG-CC-PVTZ-JKFIT
	 Reference Energy          =    -131.9224278084394371 [Eh]
	 Singles Energy            =      -0.0000000000000000 [Eh]
	 Same-Spin Energy          =      -0.1416679951073283 [Eh]
	 Opposite-Spin Energy      =      -0.4602468962333943 [Eh]
	 Correlation Energy        =      -0.6019148913407226 [Eh]
	 Total Energy              =    -132.5243426997801635 [Eh]

	 ================> DF-SCS-MP2 Energies <==================
	-----------------------------------------------------------
	 SCS Same-Spin Scale       =       0.3333333333333333 [-]
	 SCS Opposite-Spin Scale   =       1.2000000000000000 [-]
	 SCS Same-Spin Energy      =      -0.0472226650357761 [Eh]
	 SCS Opposite-Spin Energy  =      -0.5522962754800732 [Eh]
	 SCS Correlation Energy    =      -0.5995189405158493 [Eh]
	 SCS Total Energy          =    -132.5219467489552869 [Eh]
	-----------------------------------------------------------

  Dipole Moment: [D]
     X:     0.0003      Y:    -0.0292      Z:    -3.9558     Total:     3.9559

*** Psi4 exiting successfully. Buy a developer a beer!
