                               Psi4 1.3.2 release

  ==> Input File <==

--------------------------------------------------------------------------
#psi4
#
memory 32 gb

molecule  {
0 1
  N       -0.0001600     0.0106870     1.4539870
  C        0.0000110    -0.0087070    -1.1889250
  C        0.0341893     0.0401045     0.2731298
  H       -0.6838220    -0.7758470    -1.5576010
  H        1.0038610    -0.2217700    -1.5616520
  H       -0.3198320     0.9627440    -1.5709320
units angstrom
no_reorient  #important for SAPT in psi4, default
symmetry c1  #important for SAPT in psi4, default
}

set PROPERTIES_ORIGIN ["COM"]
properties('MP2/aug-cc-pvtz', properties = ['dipole'])
--------------------------------------------------------------------------

    Molecular point group: c1
  Charge       = 0
  Multiplicity = 1
  Basis Set: AUG-CC-PVTZ
    Blend: AUG-CC-PVTZ
  Basis Set: (AUG-CC-PVTZ AUX)
    Blend: AUG-CC-PVTZ-JKFIT

    Orbital Energies [Eh]
    ---------------------

    Doubly Occupied:

       1A    -15.580281     2A    -11.289230     3A    -11.288387
       4A     -1.208670     5A     -1.041430     6A     -0.702380
       7A     -0.630666     8A     -0.629862     9A     -0.556705
      10A     -0.455244    11A     -0.455119

  @DF-RHF Final Energy:  -131.96867705267280

   => Energetics <=

    Nuclear Repulsion Energy =             57.8677462255039146
    One-Electron Energy =                -291.9968974643708748
    Two-Electron Energy =                 102.1604741861941648
    Total Energy =                       -131.9686770526728026
  Basis Set: (AUG-CC-PVTZ AUX)
    Blend: AUG-CC-PVTZ-RI
    Molecular point group: c1

    Geometry (in Angstrom), charge = 0, multiplicity = 1:

       Center              X                  Y                   Z               Mass
    ------------   -----------------  -----------------  -----------------  -----------------
         N           -0.010113840547    -0.001287562333     1.340795434649    14.003074004430
         C           -0.009942840547    -0.020681562333    -1.302116565351    12.000000000000
         C            0.024235459453     0.028129937667     0.159938234649    12.000000000000
         H           -0.693775840547    -0.787821562333    -1.670792565351     1.007825032230
         H            0.993907159453    -0.233744562333    -1.674843565351     1.007825032230
         H           -0.329785840547     0.950769437667    -1.684123565351     1.007825032230

  Basis Set: AUG-CC-PVTZ
    Blend: AUG-CC-PVTZ
  Basis Set: (AUG-CC-PVTZ AUX)
    Blend: AUG-CC-PVTZ-JKFIT
	 Reference Energy          =    -131.9686770526728026 [Eh]
	 Singles Energy            =      -0.0000000000000000 [Eh]
	 Same-Spin Energy          =      -0.1338092462508307 [Eh]
	 Opposite-Spin Energy      =      -0.4459048110347094 [Eh]
	 Correlation Energy        =      -0.5797140572855402 [Eh]
	 Total Energy              =    -132.5483911099583452 [Eh]

	 ================> DF-SCS-MP2 Energies <==================
	-----------------------------------------------------------
	 SCS Same-Spin Scale       =       0.3333333333333333 [-]
	 SCS Opposite-Spin Scale   =       1.2000000000000000 [-]
	 SCS Same-Spin Energy      =      -0.0446030820836102 [Eh]
	 SCS Opposite-Spin Energy  =      -0.5350857732416513 [Eh]
	 SCS Correlation Energy    =      -0.5796888553252615 [Eh]
	 SCS Total Energy          =    -132.5483659079980612 [Eh]
	-----------------------------------------------------------

  Dipole Moment: [D]
     X:     0.0070      Y:    -0.0216      Z:    -3.9404     Total:     3.9404

*** Psi4 exiting successfully. Buy a developer a beer!
