                               Psi4 1.4a3.dev225

  ==> Input File <==

--------------------------------------------------------------------------
#psi4
#
memory 32 gb

molecule  {
0 1
  N       -1.4539190     0.0000000     0.0000000
  C        1.1887110     0.0000000     0.0000000
  C       -0.3242650     0.0000010     0.0000000
  H        1.5635860     0.9070380    -0.4783560
  H        1.5635860    -0.8677880    -0.5463390
  H        1.5635870    -0.0392510     1.0246960
units angstrom
no_reorient  #important for SAPT in psi4, default
symmetry c1  #important for SAPT in psi4, default
}

set PROPERTIES_ORIGIN ["COM"]
properties('MP2/aug-cc-pvtz', properties = ['dipole'])
--------------------------------------------------------------------------

    Molecular point group: c1
  Charge       = 0
  Multiplicity = 1
  Basis Set: AUG-CC-PVTZ
    Blend: AUG-CC-PVTZ
  Basis Set: (AUG-CC-PVTZ AUX)
    Blend: AUG-CC-PVTZ-JKFIT

    Orbital Energies [Eh]
    ---------------------

    Doubly Occupied:

       1A    -15.563792     2A    -11.292365     3A    -11.272519
       4A     -1.231706     5A     -1.029294     6A     -0.687818
       7A     -0.626095     8A     -0.626095     9A     -0.554781
      10A     -0.472294    11A     -0.472294

  @DF-RHF Final Energy:  -131.97501328913540

   => Energetics <=

    Nuclear Repulsion Energy =             58.2147551880314609
    One-Electron Energy =                -292.7214311621426646
    Two-Electron Energy =                 102.5316626849757995
    Total Energy =                       -131.9750132891354042
  Basis Set: (AUG-CC-PVTZ AUX)
    Blend: AUG-CC-PVTZ-RI
    Molecular point group: c1

    Geometry (in Angstrom), charge = 0, multiplicity = 1:

       Center              X                  Y                   Z               Mass
    ------------   -----------------  -----------------  -----------------  -----------------
         N           -1.325745436093    -0.000000267928    -0.000000024565    14.003074004430
         C            1.316884563907    -0.000000267928    -0.000000024565    12.000000000000
         C           -0.196091436093     0.000000732072    -0.000000024565    12.000000000000
         H            1.691759563907     0.907037732072    -0.478356024565     1.007825032230
         H            1.691759563907    -0.867788267928    -0.546339024565     1.007825032230
         H            1.691760563907    -0.039251267928     1.024695975435     1.007825032230

  Basis Set: AUG-CC-PVTZ
    Blend: AUG-CC-PVTZ
  Basis Set: (AUG-CC-PVTZ AUX)
    Blend: AUG-CC-PVTZ-JKFIT
	 Reference Energy          =    -131.9750132891354042 [Eh]
	 Singles Energy            =      -0.0000000000000000 [Eh]
	 Same-Spin Energy          =      -0.1302363155511256 [Eh]
	 Opposite-Spin Energy      =      -0.4391917810471748 [Eh]
	 Correlation Energy        =      -0.5694280965983003 [Eh]
	 Total Energy              =    -132.5444413857337054 [Eh]

	 ================> DF-SCS-MP2 Energies <==================
	-----------------------------------------------------------
	 SCS Same-Spin Scale       =       0.3333333333333333 [-]
	 SCS Opposite-Spin Scale   =       1.2000000000000000 [-]
	 SCS Same-Spin Energy      =      -0.0434121051837085 [Eh]
	 SCS Opposite-Spin Energy  =      -0.5270301372566097 [Eh]
	 SCS Correlation Energy    =      -0.5704422424403183 [Eh]
	 SCS Total Energy          =    -132.5454555315757261 [Eh]
	-----------------------------------------------------------

  Dipole Moment: [D]
     X:     3.9560      Y:    -0.0000      Z:     0.0000     Total:     3.9560

*** Psi4 exiting successfully. Buy a developer a beer!
