                               Psi4 1.3.2 release

  ==> Input File <==

--------------------------------------------------------------------------
#psi4
#
memory 32 gb

molecule  {
0 1
  N       -0.0001600     0.0106870     1.4539870
  C        0.0000110    -0.0087070    -1.1889250
  C        0.0000908     0.0035151     0.4742986
  H       -0.6838220    -0.7758470    -1.5576010
  H        1.0038610    -0.2217700    -1.5616520
  H       -0.3198320     0.9627440    -1.5709320
units angstrom
no_reorient  #important for SAPT in psi4, default
symmetry c1  #important for SAPT in psi4, default
}

set PROPERTIES_ORIGIN ["COM"]
properties('MP2/aug-cc-pvtz', properties = ['dipole'])
--------------------------------------------------------------------------

    Molecular point group: c1
  Charge       = 0
  Multiplicity = 1
  Basis Set: AUG-CC-PVTZ
    Blend: AUG-CC-PVTZ
  Basis Set: (AUG-CC-PVTZ AUX)
    Blend: AUG-CC-PVTZ-JKFIT

    Orbital Energies [Eh]
    ---------------------

    Doubly Occupied:

       1A    -15.509303     2A    -11.302561     3A    -11.222737
       4A     -1.297333     5A     -1.000080     6A     -0.637842
       7A     -0.619600     8A     -0.619584     9A     -0.543234
      10A     -0.527750    11A     -0.527742

  @DF-RHF Final Energy:  -131.87675428335285

   => Energetics <=

    Nuclear Repulsion Energy =             59.8288022273760589
    One-Electron Energy =                -295.7955814152585390
    Two-Electron Energy =                 104.0900249045296420
    Total Energy =                       -131.8767542833528523
  Basis Set: (AUG-CC-PVTZ AUX)
    Blend: AUG-CC-PVTZ-RI
    Molecular point group: c1

    Geometry (in Angstrom), charge = 0, multiplicity = 1:

       Center              X                  Y                   Z               Mass
    ------------   -----------------  -----------------  -----------------  -----------------
         N           -0.000140250056     0.009414600281     1.281954863047    14.003074004430
         C            0.000030749944    -0.009979399719    -1.360957136953    12.000000000000
         C            0.000110549944     0.002242700281     0.302266463047    12.000000000000
         H           -0.683802250056    -0.777119399719    -1.729633136953     1.007825032230
         H            1.003880749944    -0.223042399719    -1.733684136953     1.007825032230
         H           -0.319812250056     0.961471600281    -1.742964136953     1.007825032230

  Basis Set: AUG-CC-PVTZ
    Blend: AUG-CC-PVTZ
  Basis Set: (AUG-CC-PVTZ AUX)
    Blend: AUG-CC-PVTZ-JKFIT
	 Reference Energy          =    -131.8767542833528523 [Eh]
	 Singles Energy            =      -0.0000000000000000 [Eh]
	 Same-Spin Energy          =      -0.1222505135389980 [Eh]
	 Opposite-Spin Energy      =      -0.4238557074596226 [Eh]
	 Correlation Energy        =      -0.5461062209986206 [Eh]
	 Total Energy              =    -132.4228605043514619 [Eh]

	 ================> DF-SCS-MP2 Energies <==================
	-----------------------------------------------------------
	 SCS Same-Spin Scale       =       0.3333333333333333 [-]
	 SCS Opposite-Spin Scale   =       1.2000000000000000 [-]
	 SCS Same-Spin Energy      =      -0.0407501711796660 [Eh]
	 SCS Opposite-Spin Energy  =      -0.5086268489515472 [Eh]
	 SCS Correlation Energy    =      -0.5493770201312131 [Eh]
	 SCS Total Energy          =    -132.4261313034840555 [Eh]
	-----------------------------------------------------------

  Dipole Moment: [D]
     X:     0.0004      Y:    -0.0297      Z:    -4.0328     Total:     4.0329

*** Psi4 exiting successfully. Buy a developer a beer!
