                               Psi4 1.3.2 release

  ==> Input File <==

--------------------------------------------------------------------------
#psi4
#
memory 32 gb

molecule  {
0 1
  N       -0.0001600     0.0106870     1.4539870
  C        0.0000110    -0.0087070    -1.1889250
  C        0.0001420     0.0020510     0.2743040
  H       -0.6838220    -0.7758470    -1.5576010
  H        1.0038610    -0.2217700    -1.5616520
  H       -0.3198320     0.9627440    -1.5709320
units angstrom
no_reorient  #important for SAPT in psi4, default
symmetry c1  #important for SAPT in psi4, default
}

set PROPERTIES_ORIGIN ["COM"]
properties('MP2/aug-cc-pvtz', properties = ['dipole'])
--------------------------------------------------------------------------

    Molecular point group: c1
  Charge       = 0
  Multiplicity = 1
  Basis Set: AUG-CC-PVTZ
    Blend: AUG-CC-PVTZ
  Basis Set: (AUG-CC-PVTZ AUX)
    Blend: AUG-CC-PVTZ-JKFIT

    Orbital Energies [Eh]
    ---------------------

    Doubly Occupied:

       1A    -15.579480     2A    -11.289114     3A    -11.287855
       4A     -1.209428     5A     -1.041509     6A     -0.702098
       7A     -0.630430     8A     -0.630417     9A     -0.556634
      10A     -0.455722    11A     -0.455716

  @DF-RHF Final Energy:  -131.96972017910559

   => Energetics <=

    Nuclear Repulsion Energy =             57.8989574801980353
    One-Electron Energy =                -292.0605505859415416
    Two-Electron Energy =                 102.1918729266379273
    Total Energy =                       -131.9697201791055932
  Basis Set: (AUG-CC-PVTZ AUX)
    Blend: AUG-CC-PVTZ-RI
    Molecular point group: c1

    Geometry (in Angstrom), charge = 0, multiplicity = 1:

       Center              X                  Y                   Z               Mass
    ------------   -----------------  -----------------  -----------------  -----------------
         N           -0.000155225724     0.009842840052     1.340451988751    14.003074004430
         C            0.000015774276    -0.009551159948    -1.302460011249    12.000000000000
         C            0.000146774276     0.001206840052     0.160768988751    12.000000000000
         H           -0.683817225724    -0.776691159948    -1.671136011249     1.007825032230
         H            1.003865774276    -0.222614159948    -1.675187011249     1.007825032230
         H           -0.319827225724     0.961899840052    -1.684467011249     1.007825032230

  Basis Set: AUG-CC-PVTZ
    Blend: AUG-CC-PVTZ
  Basis Set: (AUG-CC-PVTZ AUX)
    Blend: AUG-CC-PVTZ-JKFIT
	 Reference Energy          =    -131.9697201791055932 [Eh]
	 Singles Energy            =      -0.0000000000000000 [Eh]
	 Same-Spin Energy          =      -0.1336632555336004 [Eh]
	 Opposite-Spin Energy      =      -0.4455643971457978 [Eh]
	 Correlation Energy        =      -0.5792276526793981 [Eh]
	 Total Energy              =    -132.5489478317850001 [Eh]

	 ================> DF-SCS-MP2 Energies <==================
	-----------------------------------------------------------
	 SCS Same-Spin Scale       =       0.3333333333333333 [-]
	 SCS Opposite-Spin Scale   =       1.2000000000000000 [-]
	 SCS Same-Spin Energy      =      -0.0445544185112001 [Eh]
	 SCS Opposite-Spin Energy  =      -0.5346772765749573 [Eh]
	 SCS Correlation Energy    =      -0.5792316950861575 [Eh]
	 SCS Total Energy          =    -132.5489518741917436 [Eh]
	-----------------------------------------------------------

  Dipole Moment: [D]
     X:     0.0003      Y:    -0.0291      Z:    -3.9471     Total:     3.9472

*** Psi4 exiting successfully. Buy a developer a beer!
