                               Psi4 1.3.2 release

  ==> Input File <==

--------------------------------------------------------------------------
#psi4
#
memory 32 gb

molecule  {
0 1
  N        0.0203432     0.0125620     1.4537988
  C        0.0000110    -0.0087070    -1.1889250
  C        0.0001420     0.0020510     0.2743040
  H       -0.6838220    -0.7758470    -1.5576010
  H        1.0038610    -0.2217700    -1.5616520
  H       -0.3198320     0.9627440    -1.5709320
units angstrom
no_reorient  #important for SAPT in psi4, default
symmetry c1  #important for SAPT in psi4, default
}

set PROPERTIES_ORIGIN ["COM"]
properties('MP2/aug-cc-pvtz', properties = ['dipole'])
--------------------------------------------------------------------------

    Molecular point group: c1
  Charge       = 0
  Multiplicity = 1
  Basis Set: AUG-CC-PVTZ
    Blend: AUG-CC-PVTZ
  Basis Set: (AUG-CC-PVTZ AUX)
    Blend: AUG-CC-PVTZ-JKFIT

    Orbital Energies [Eh]
    ---------------------

    Doubly Occupied:

       1A    -15.579486     2A    -11.289109     3A    -11.287852
       4A     -1.209434     5A     -1.041499     6A     -0.702092
       7A     -0.630428     8A     -0.630410     9A     -0.556637
      10A     -0.455732    11A     -0.455708

  @DF-RHF Final Energy:  -131.96970573794152

   => Energetics <=

    Nuclear Repulsion Energy =             57.8993830620008509
    One-Electron Energy =                -292.0614022478973766
    Two-Electron Energy =                 102.1923134479549873
    Total Energy =                       -131.9697057379415241
  Basis Set: (AUG-CC-PVTZ AUX)
    Blend: AUG-CC-PVTZ-RI
    Molecular point group: c1

    Geometry (in Angstrom), charge = 0, multiplicity = 1:

       Center              X                  Y                   Z               Mass
    ------------   -----------------  -----------------  -----------------  -----------------
         N            0.013349875893     0.011077869976     1.340328024681    14.003074004430
         C           -0.006982324107    -0.010191130024    -1.302395775319    12.000000000000
         C           -0.006851324107     0.000566869976     0.160833224681    12.000000000000
         H           -0.690815324107    -0.777331130024    -1.671071775319     1.007825032230
         H            0.996867675893    -0.223254130024    -1.675122775319     1.007825032230
         H           -0.326825324107     0.961259869976    -1.684402775319     1.007825032230

  Basis Set: AUG-CC-PVTZ
    Blend: AUG-CC-PVTZ
  Basis Set: (AUG-CC-PVTZ AUX)
    Blend: AUG-CC-PVTZ-JKFIT
	 Reference Energy          =    -131.9697057379415241 [Eh]
	 Singles Energy            =      -0.0000000000000000 [Eh]
	 Same-Spin Energy          =      -0.1336638972041209 [Eh]
	 Opposite-Spin Energy      =      -0.4455669540571529 [Eh]
	 Correlation Energy        =      -0.5792308512612738 [Eh]
	 Total Energy              =    -132.5489365892028104 [Eh]

	 ================> DF-SCS-MP2 Energies <==================
	-----------------------------------------------------------
	 SCS Same-Spin Scale       =       0.3333333333333333 [-]
	 SCS Opposite-Spin Scale   =       1.2000000000000000 [-]
	 SCS Same-Spin Energy      =      -0.0445546324013736 [Eh]
	 SCS Opposite-Spin Energy  =      -0.5346803448685835 [Eh]
	 SCS Correlation Energy    =      -0.5792349772699571 [Eh]
	 SCS Total Energy          =    -132.5489407152114723 [Eh]
	-----------------------------------------------------------

  Dipole Moment: [D]
     X:    -0.0306      Y:    -0.0319      Z:    -3.9466     Total:     3.9469

*** Psi4 exiting successfully. Buy a developer a beer!
