                               Psi4 1.3.2 release

  ==> Input File <==

--------------------------------------------------------------------------
#psi4
#
memory 32 gb

molecule  {
0 1
  N        0.1226423     0.0218777     1.4474737
  C        0.0000110    -0.0087070    -1.1889250
  C        0.0001420     0.0020510     0.2743040
  H       -0.6838220    -0.7758470    -1.5576010
  H        1.0038610    -0.2217700    -1.5616520
  H       -0.3198320     0.9627440    -1.5709320
units angstrom
no_reorient  #important for SAPT in psi4, default
symmetry c1  #important for SAPT in psi4, default
}

set PROPERTIES_ORIGIN ["COM"]
properties('MP2/aug-cc-pvtz', properties = ['dipole'])
--------------------------------------------------------------------------

    Molecular point group: c1
  Charge       = 0
  Multiplicity = 1
  Basis Set: AUG-CC-PVTZ
    Blend: AUG-CC-PVTZ
  Basis Set: (AUG-CC-PVTZ AUX)
    Blend: AUG-CC-PVTZ-JKFIT

    Orbital Energies [Eh]
    ---------------------

    Doubly Occupied:

       1A    -15.579694     2A    -11.288952     3A    -11.287739
       4A     -1.209675     5A     -1.041154     6A     -0.701882
       7A     -0.630294     8A     -0.630227     9A     -0.556747
      10A     -0.455871    11A     -0.455621

  @DF-RHF Final Energy:  -131.96917870353678

   => Energetics <=

    Nuclear Repulsion Energy =             57.9147616131465242
    One-Electron Energy =                -292.0921653896082830
    Two-Electron Energy =                 102.2082250729249466
    Total Energy =                       -131.9691787035367838
  Basis Set: (AUG-CC-PVTZ AUX)
    Blend: AUG-CC-PVTZ-RI
    Molecular point group: c1

    Geometry (in Angstrom), charge = 0, multiplicity = 1:

       Center              X                  Y                   Z               Mass
    ------------   -----------------  -----------------  -----------------  -----------------
         N            0.080732515716     0.017213959715     1.336161791204    14.003074004430
         C           -0.041898784284    -0.013370740285    -1.300236908796    12.000000000000
         C           -0.041767784284    -0.002612740285     0.162992091204    12.000000000000
         H           -0.725731784284    -0.780510740285    -1.668912908796     1.007825032230
         H            0.961951215716    -0.226433740285    -1.672963908796     1.007825032230
         H           -0.361741784284     0.958080259715    -1.682243908796     1.007825032230

  Basis Set: AUG-CC-PVTZ
    Blend: AUG-CC-PVTZ
  Basis Set: (AUG-CC-PVTZ AUX)
    Blend: AUG-CC-PVTZ-JKFIT
	 Reference Energy          =    -131.9691787035367838 [Eh]
	 Singles Energy            =      -0.0000000000000000 [Eh]
	 Same-Spin Energy          =      -0.1336871982213061 [Eh]
	 Opposite-Spin Energy      =      -0.4456601724271788 [Eh]
	 Correlation Energy        =      -0.5793473706484848 [Eh]
	 Total Energy              =    -132.5485260741852755 [Eh]

	 ================> DF-SCS-MP2 Energies <==================
	-----------------------------------------------------------
	 SCS Same-Spin Scale       =       0.3333333333333333 [-]
	 SCS Opposite-Spin Scale   =       1.2000000000000000 [-]
	 SCS Same-Spin Energy      =      -0.0445623994071020 [Eh]
	 SCS Opposite-Spin Energy  =      -0.5347922069126145 [Eh]
	 SCS Correlation Energy    =      -0.5793546063197166 [Eh]
	 SCS Total Energy          =    -132.5485333098565093 [Eh]
	-----------------------------------------------------------

  Dipole Moment: [D]
     X:    -0.1852      Y:    -0.0457      Z:    -3.9306     Total:     3.9352

*** Psi4 exiting successfully. Buy a developer a beer!
