                               Psi4 1.3.2 release

  ==> Input File <==

--------------------------------------------------------------------------
#psi4
#
memory 32 gb

molecule  {
0 1
  N       -0.0001600     0.0106870     1.4539870
  C        0.0000110    -0.0087070    -1.1889250
  C        0.0681950     0.0780985     0.2701742
  H       -0.6838220    -0.7758470    -1.5576010
  H        1.0038610    -0.2217700    -1.5616520
  H       -0.3198320     0.9627440    -1.5709320
units angstrom
no_reorient  #important for SAPT in psi4, default
symmetry c1  #important for SAPT in psi4, default
}

set PROPERTIES_ORIGIN ["COM"]
properties('MP2/aug-cc-pvtz', properties = ['dipole'])
--------------------------------------------------------------------------

    Molecular point group: c1
  Charge       = 0
  Multiplicity = 1
  Basis Set: AUG-CC-PVTZ
    Blend: AUG-CC-PVTZ
  Basis Set: (AUG-CC-PVTZ AUX)
    Blend: AUG-CC-PVTZ-JKFIT

    Orbital Energies [Eh]
    ---------------------

    Doubly Occupied:

       1A    -15.582658     2A    -11.290656     3A    -11.288873
       4A     -1.206432     5A     -1.041189     6A     -0.703206
       7A     -0.630812     8A     -0.628793     9A     -0.556895
      10A     -0.453623    11A     -0.453588

  @DF-RHF Final Energy:  -131.96550288693064

   => Energetics <=

    Nuclear Repulsion Energy =             57.7755208670849996
    One-Electron Energy =                -291.8085987266077836
    Two-Electron Energy =                 102.0675749725921548
    Total Energy =                       -131.9655028869306364
  Basis Set: (AUG-CC-PVTZ AUX)
    Blend: AUG-CC-PVTZ-RI
    Molecular point group: c1

    Geometry (in Angstrom), charge = 0, multiplicity = 1:

       Center              X                  Y                   Z               Mass
    ------------   -----------------  -----------------  -----------------  -----------------
         N           -0.020060287639    -0.012400561355     1.341659928514    14.003074004430
         C           -0.019889287639    -0.031794561355    -1.301252071486    12.000000000000
         C            0.048294712361     0.055010938645     0.157847128514    12.000000000000
         H           -0.703722287639    -0.798934561355    -1.669928071486     1.007825032230
         H            0.983960712361    -0.244857561355    -1.673979071486     1.007825032230
         H           -0.339732287639     0.939656438645    -1.683259071486     1.007825032230

  Basis Set: AUG-CC-PVTZ
    Blend: AUG-CC-PVTZ
  Basis Set: (AUG-CC-PVTZ AUX)
    Blend: AUG-CC-PVTZ-JKFIT
	 Reference Energy          =    -131.9655028869306364 [Eh]
	 Singles Energy            =      -0.0000000000000000 [Eh]
	 Same-Spin Energy          =      -0.1342431211192651 [Eh]
	 Opposite-Spin Energy      =      -0.4469186084827824 [Eh]
	 Correlation Energy        =      -0.5811617296020475 [Eh]
	 Total Energy              =    -132.5466646165326949 [Eh]

	 ================> DF-SCS-MP2 Energies <==================
	-----------------------------------------------------------
	 SCS Same-Spin Scale       =       0.3333333333333333 [-]
	 SCS Opposite-Spin Scale   =       1.2000000000000000 [-]
	 SCS Same-Spin Energy      =      -0.0447477070397550 [Eh]
	 SCS Opposite-Spin Energy  =      -0.5363023301793389 [Eh]
	 SCS Correlation Energy    =      -0.5810500372190940 [Eh]
	 SCS Total Energy          =    -132.5465529241497222 [Eh]
	-----------------------------------------------------------

  Dipole Moment: [D]
     X:     0.0129      Y:    -0.0148      Z:    -3.9206     Total:     3.9206

*** Psi4 exiting successfully. Buy a developer a beer!
