                               Psi4 1.3.2 release

  ==> Input File <==

--------------------------------------------------------------------------
#psi4
#
memory 32 gb

molecule  {
0 1
  N       -0.0001600     0.0106870     1.4539870
  C        0.0000110    -0.0087070    -1.1889250
  C        0.0001932     0.0005869     0.0743094
  H       -0.6838220    -0.7758470    -1.5576010
  H        1.0038610    -0.2217700    -1.5616520
  H       -0.3198320     0.9627440    -1.5709320
units angstrom
no_reorient  #important for SAPT in psi4, default
symmetry c1  #important for SAPT in psi4, default
}

set PROPERTIES_ORIGIN ["COM"]
properties('MP2/aug-cc-pvtz', properties = ['dipole'])
--------------------------------------------------------------------------

    Molecular point group: c1
  Charge       = 0
  Multiplicity = 1
  Basis Set: AUG-CC-PVTZ
    Blend: AUG-CC-PVTZ
  Basis Set: (AUG-CC-PVTZ AUX)
    Blend: AUG-CC-PVTZ-JKFIT

    Orbital Energies [Eh]
    ---------------------

    Doubly Occupied:

       1A    -15.621037     2A    -11.333320     3A    -11.277680
       4A     -1.172036     5A     -1.062973     6A     -0.748158
       7A     -0.660765     8A     -0.660757     9A     -0.551004
      10A     -0.394375    11A     -0.394373

  @DF-RHF Final Energy:  -131.83531612524678

   => Energetics <=

    Nuclear Repulsion Energy =             57.6324749006638584
    One-Electron Energy =                -291.1826245045406267
    Two-Electron Energy =                 101.7148334786299984
    Total Energy =                       -131.8353161252467771
  Basis Set: (AUG-CC-PVTZ AUX)
    Blend: AUG-CC-PVTZ-RI
    Molecular point group: c1

    Geometry (in Angstrom), charge = 0, multiplicity = 1:

       Center              X                  Y                   Z               Mass
    ------------   -----------------  -----------------  -----------------  -----------------
         N           -0.000170201393     0.010271079824     1.398949114456    14.003074004430
         C            0.000000798607    -0.009122920176    -1.243962885544    12.000000000000
         C            0.000182998607     0.000170979824     0.019271514456    12.000000000000
         H           -0.683832201393    -0.776262920176    -1.612638885544     1.007825032230
         H            1.003850798607    -0.222185920176    -1.616689885544     1.007825032230
         H           -0.319842201393     0.962328079824    -1.625969885544     1.007825032230

  Basis Set: AUG-CC-PVTZ
    Blend: AUG-CC-PVTZ
  Basis Set: (AUG-CC-PVTZ AUX)
    Blend: AUG-CC-PVTZ-JKFIT
	 Reference Energy          =    -131.8353161252467771 [Eh]
	 Singles Energy            =      -0.0000000000000000 [Eh]
	 Same-Spin Energy          =      -0.1509715180814075 [Eh]
	 Opposite-Spin Energy      =      -0.4770876503729338 [Eh]
	 Correlation Energy        =      -0.6280591684543413 [Eh]
	 Total Energy              =    -132.4633752937011195 [Eh]

	 ================> DF-SCS-MP2 Energies <==================
	-----------------------------------------------------------
	 SCS Same-Spin Scale       =       0.3333333333333333 [-]
	 SCS Opposite-Spin Scale   =       1.2000000000000000 [-]
	 SCS Same-Spin Energy      =      -0.0503238393604692 [Eh]
	 SCS Opposite-Spin Energy  =      -0.5725051804475205 [Eh]
	 SCS Correlation Energy    =      -0.6228290198079897 [Eh]
	 SCS Total Energy          =    -132.4581451450547718 [Eh]
	-----------------------------------------------------------

  Dipole Moment: [D]
     X:     0.0002      Y:    -0.0293      Z:    -3.9683     Total:     3.9684

*** Psi4 exiting successfully. Buy a developer a beer!
