                               Psi4 1.3.2 release

  ==> Input File <==

--------------------------------------------------------------------------
#psi4
#
memory 32 gb

molecule  {
0 1
  N       -0.0001600     0.0106870     1.4539870
  C        0.0000110    -0.0087070    -1.1889250
  C       -0.0168843    -0.0169836     0.2742226
  H       -0.6838220    -0.7758470    -1.5576010
  H        1.0038610    -0.2217700    -1.5616520
  H       -0.3198320     0.9627440    -1.5709320
units angstrom
no_reorient  #important for SAPT in psi4, default
symmetry c1  #important for SAPT in psi4, default
}

set PROPERTIES_ORIGIN ["COM"]
properties('MP2/aug-cc-pvtz', properties = ['dipole'])
--------------------------------------------------------------------------

    Molecular point group: c1
  Charge       = 0
  Multiplicity = 1
  Basis Set: AUG-CC-PVTZ
    Blend: AUG-CC-PVTZ
  Basis Set: (AUG-CC-PVTZ AUX)
    Blend: AUG-CC-PVTZ-JKFIT

    Orbital Energies [Eh]
    ---------------------

    Doubly Occupied:

       1A    -15.579677     2A    -11.289131     3A    -11.287997
       4A     -1.209242     5A     -1.041490     6A     -0.702169
       7A     -0.630494     8A     -0.630272     9A     -0.556651
      10A     -0.455673    11A     -0.455500

  @DF-RHF Final Energy:  -131.96946273093235

   => Energetics <=

    Nuclear Repulsion Energy =             57.8912999175121286
    One-Electron Energy =                -292.0449326497173388
    Two-Electron Energy =                 102.1841700012728467
    Total Energy =                       -131.9694627309323778
  Basis Set: (AUG-CC-PVTZ AUX)
    Blend: AUG-CC-PVTZ-RI
    Molecular point group: c1

    Geometry (in Angstrom), charge = 0, multiplicity = 1:

       Center              X                  Y                   Z               Mass
    ------------   -----------------  -----------------  -----------------  -----------------
         N            0.004824856795     0.015410337320     1.340475797724    14.003074004430
         C            0.004995856795    -0.003983662680    -1.302436202276    12.000000000000
         C           -0.011899443205    -0.012260262680     0.160711397724    12.000000000000
         H           -0.678837143205    -0.771123662680    -1.671112202276     1.007825032230
         H            1.008845856795    -0.217046662680    -1.675163202276     1.007825032230
         H           -0.314847143205     0.967467337320    -1.684443202276     1.007825032230

  Basis Set: AUG-CC-PVTZ
    Blend: AUG-CC-PVTZ
  Basis Set: (AUG-CC-PVTZ AUX)
    Blend: AUG-CC-PVTZ-JKFIT
	 Reference Energy          =    -131.9694627309323494 [Eh]
	 Singles Energy            =      -0.0000000000000000 [Eh]
	 Same-Spin Energy          =      -0.1336992955449706 [Eh]
	 Opposite-Spin Energy      =      -0.4456482654198120 [Eh]
	 Correlation Energy        =      -0.5793475609647826 [Eh]
	 Total Energy              =    -132.5488102918971265 [Eh]

	 ================> DF-SCS-MP2 Energies <==================
	-----------------------------------------------------------
	 SCS Same-Spin Scale       =       0.3333333333333333 [-]
	 SCS Opposite-Spin Scale   =       1.2000000000000000 [-]
	 SCS Same-Spin Energy      =      -0.0445664318483235 [Eh]
	 SCS Opposite-Spin Energy  =      -0.5347779185037743 [Eh]
	 SCS Correlation Energy    =      -0.5793443503520979 [Eh]
	 SCS Total Energy          =    -132.5488070812844512 [Eh]
	-----------------------------------------------------------

  Dipole Moment: [D]
     X:    -0.0030      Y:    -0.0328      Z:    -3.9454     Total:     3.9455

*** Psi4 exiting successfully. Buy a developer a beer!
