                               Psi4 1.3.2 release

  ==> Input File <==

--------------------------------------------------------------------------
#psi4
#
memory 32 gb

molecule  {
0 1
  S       -0.0848826    -0.7214779    -0.3456928
  O       -0.2556540    -1.7702980     0.4735910
  C        1.4178950     0.3206530     0.2483930
  C       -1.3599780     0.5918880    -0.1703300
  C        1.6769310     1.6120600    -0.5173330
  C        2.6097720    -0.6313220     0.2113700
  C       -1.5067950     0.9141520     1.3098910
  C       -2.6139080    -0.0830010    -0.7222500
  H        1.1570860     0.5207480     1.2929140
  H       -1.1279560     1.4843500    -0.7624060
  H        2.6215010     2.0509850    -0.1820230
  H        1.7648060     1.4175290    -1.5917240
  H        0.8915690     2.3560060    -0.3630760
  H        2.3687620    -1.5630840     0.7275380
  H        3.4693700    -0.1669570     0.7037260
  H        2.8902180    -0.8648860    -0.8210400
  H       -2.4734110     1.3924490     1.4942360
  H       -1.4657670    -0.0174870     1.8826360
  H       -0.7265980     1.5882150     1.6720380
  H       -2.5077070    -0.3221910    -1.7846410
  H       -3.4761370     0.5791400    -0.6026570
  H       -2.8041960    -1.0106880    -0.1761720
units angstrom
no_reorient  #important for SAPT in psi4, default
symmetry c1  #important for SAPT in psi4, default
}

set PROPERTIES_ORIGIN ["COM"]
properties('MP2/aug-cc-pvtz', properties = ['dipole'])
--------------------------------------------------------------------------

    Molecular point group: c1
  Charge       = 0
  Multiplicity = 1
  Basis Set: AUG-CC-PVTZ
    Blend: AUG-CC-PVTZ
  Basis Set: (AUG-CC-PVTZ AUX)
    Blend: AUG-CC-PVTZ-JKFIT

    Orbital Energies [Eh]
    ---------------------

    Doubly Occupied:

       1A    -92.041890     2A    -20.512973     3A    -11.256591
       4A    -11.256540     5A    -11.233300     6A    -11.224243
       7A    -11.223914     8A    -11.220292     9A     -9.033162
      10A     -6.715948    11A     -6.713895    12A     -6.712698
      13A     -1.437175    14A     -1.101434    15A     -1.070432
      16A     -0.945304    17A     -0.942858    18A     -0.901144
      19A     -0.807444    20A     -0.752530    21A     -0.678400
      22A     -0.637984    23A     -0.633996    24A     -0.624418
      25A     -0.588266    26A     -0.578113    27A     -0.560334
      28A     -0.551650    29A     -0.547325    30A     -0.540785
      31A     -0.532639    32A     -0.501949    33A     -0.499782
      34A     -0.493029    35A     -0.487126    36A     -0.393677
      37A     -0.332105

  @DF-RHF Final Energy:  -707.80729172370684

   => Energetics <=

    Nuclear Repulsion Energy =            516.9535074795606988
    One-Electron Energy =               -1996.9509060625728125
    Two-Electron Energy =                 772.1901068593051605
    Total Energy =                       -707.8072917237068395
  Basis Set: (AUG-CC-PVTZ AUX)
    Blend: AUG-CC-PVTZ-RI
    Molecular point group: c1

    Geometry (in Angstrom), charge = 0, multiplicity = 1:

       Center              X                  Y                   Z               Mass
    ------------   -----------------  -----------------  -----------------  -----------------
         S           -0.058554787838    -0.638037732953    -0.363148710430    31.972071174400
         O           -0.229326187838    -1.686857832953     0.456135089570    15.994914619570
         C            1.444222812162     0.404093167047     0.230937089570    12.000000000000
         C           -1.333650187838     0.675328167047    -0.187785910430    12.000000000000
         C            1.703258812162     1.695500167047    -0.534788910430    12.000000000000
         C            2.636099812162    -0.547881832953     0.193914089570    12.000000000000
         C           -1.480467187838     0.997592167047     1.292435089570    12.000000000000
         C           -2.587580187838     0.000439167047    -0.739705910430    12.000000000000
         H            1.183413812162     0.604188167047     1.275458089570     1.007825032230
         H           -1.101628187838     1.567790167047    -0.779861910430     1.007825032230
         H            2.647828812162     2.134425167047    -0.199478910430     1.007825032230
         H            1.791133812162     1.500969167047    -1.609179910430     1.007825032230
         H            0.917896812162     2.439446167047    -0.380531910430     1.007825032230
         H            2.395089812162    -1.479643832953     0.710082089570     1.007825032230
         H            3.495697812162    -0.083516832953     0.686270089570     1.007825032230
         H            2.916545812162    -0.781445832953    -0.838495910430     1.007825032230
         H           -2.447083187838     1.475889167047     1.476780089570     1.007825032230
         H           -1.439439187838     0.065953167047     1.865180089570     1.007825032230
         H           -0.700270187838     1.671655167047     1.654582089570     1.007825032230
         H           -2.481379187838    -0.238750832953    -1.802096910430     1.007825032230
         H           -3.449809187838     0.662580167047    -0.620112910430     1.007825032230
         H           -2.777868187838    -0.927247832953    -0.193627910430     1.007825032230

  Basis Set: AUG-CC-PVTZ
    Blend: AUG-CC-PVTZ
  Basis Set: (AUG-CC-PVTZ AUX)
    Blend: AUG-CC-PVTZ-JKFIT
	 Reference Energy          =    -707.8072917237068395 [Eh]
	 Singles Energy            =      -0.0000000000000000 [Eh]
	 Same-Spin Energy          =      -0.3851047479536437 [Eh]
	 Opposite-Spin Energy      =      -1.3023840276807392 [Eh]
	 Correlation Energy        =      -1.6874887756343830 [Eh]
	 Total Energy              =    -709.4947804993412319 [Eh]

	 ================> DF-SCS-MP2 Energies <==================
	-----------------------------------------------------------
	 SCS Same-Spin Scale       =       0.3333333333333333 [-]
	 SCS Opposite-Spin Scale   =       1.2000000000000000 [-]
	 SCS Same-Spin Energy      =      -0.1283682493178812 [Eh]
	 SCS Opposite-Spin Energy  =      -1.5628608332168870 [Eh]
	 SCS Correlation Energy    =      -1.6912290825347682 [Eh]
	 SCS Total Energy          =    -709.4985208062415722 [Eh]
	-----------------------------------------------------------

  Dipole Moment: [D]
     X:     0.1597      Y:     2.9957      Z:    -0.3053     Total:     3.0154

*** Psi4 exiting successfully. Buy a developer a beer!
