                               Psi4 1.3.2 release

  ==> Input File <==

--------------------------------------------------------------------------
#psi4
#
memory 32 gb

molecule  {
0 1
  S        0.0075120    -0.6017700    -0.4647820
  O       -0.2729494    -1.8470941     0.5352613
  C        1.4178950     0.3206530     0.2483930
  C       -1.3599780     0.5918880    -0.1703300
  C        1.6769310     1.6120600    -0.5173330
  C        2.6097720    -0.6313220     0.2113700
  C       -1.5067950     0.9141520     1.3098910
  C       -2.6139080    -0.0830010    -0.7222500
  H        1.1570860     0.5207480     1.2929140
  H       -1.1279560     1.4843500    -0.7624060
  H        2.6215010     2.0509850    -0.1820230
  H        1.7648060     1.4175290    -1.5917240
  H        0.8915690     2.3560060    -0.3630760
  H        2.3687620    -1.5630840     0.7275380
  H        3.4693700    -0.1669570     0.7037260
  H        2.8902180    -0.8648860    -0.8210400
  H       -2.4734110     1.3924490     1.4942360
  H       -1.4657670    -0.0174870     1.8826360
  H       -0.7265980     1.5882150     1.6720380
  H       -2.5077070    -0.3221910    -1.7846410
  H       -3.4761370     0.5791400    -0.6026570
  H       -2.8041960    -1.0106880    -0.1761720
units angstrom
no_reorient  #important for SAPT in psi4, default
symmetry c1  #important for SAPT in psi4, default
}

set PROPERTIES_ORIGIN ["COM"]
properties('MP2/aug-cc-pvtz', properties = ['dipole'])
--------------------------------------------------------------------------

    Molecular point group: c1
  Charge       = 0
  Multiplicity = 1
  Basis Set: AUG-CC-PVTZ
    Blend: AUG-CC-PVTZ
  Basis Set: (AUG-CC-PVTZ AUX)
    Blend: AUG-CC-PVTZ-JKFIT

    Orbital Energies [Eh]
    ---------------------

    Doubly Occupied:

       1A    -92.051795     2A    -20.496980     3A    -11.274203
       4A    -11.273330     5A    -11.242904     6A    -11.227382
       7A    -11.227195     8A    -11.226542     9A     -9.040181
      10A     -6.721602    11A     -6.721103    12A     -6.720018
      13A     -1.265120    14A     -1.112300    15A     -1.081415
      16A     -0.953563    17A     -0.946547    18A     -0.929142
      19A     -0.819132    20A     -0.761810    21A     -0.668472
      22A     -0.644743    23A     -0.621580    24A     -0.607745
      25A     -0.579803    26A     -0.573517    27A     -0.557401
      28A     -0.552201    29A     -0.521352    30A     -0.514733
      31A     -0.511770    32A     -0.505636    33A     -0.486773
      34A     -0.483470    35A     -0.472163    36A     -0.396876
      37A     -0.362163

  @DF-RHF Final Energy:  -707.82847609088378

   => Energetics <=

    Nuclear Repulsion Energy =            509.3250264461686925
    One-Electron Energy =               -1982.0016780905718861
    Two-Electron Energy =                 764.8481755535193543
    Total Energy =                       -707.8284760908837825
  Basis Set: (AUG-CC-PVTZ AUX)
    Blend: AUG-CC-PVTZ-RI
    Molecular point group: c1

    Geometry (in Angstrom), charge = 0, multiplicity = 1:

       Center              X                  Y                   Z               Mass
    ------------   -----------------  -----------------  -----------------  -----------------
         S            0.013870559107    -0.537714003436    -0.461196814990    31.972071174400
         O           -0.266590840893    -1.783038103436     0.538846485010    15.994914619570
         C            1.424253559107     0.384708996564     0.251978185010    12.000000000000
         C           -1.353619440893     0.655943996564    -0.166744814990    12.000000000000
         C            1.683289559107     1.676115996564    -0.513747814990    12.000000000000
         C            2.616130559107    -0.567266003436     0.214955185010    12.000000000000
         C           -1.500436440893     0.978207996564     1.313476185010    12.000000000000
         C           -2.607549440893    -0.018945003436    -0.718664814990    12.000000000000
         H            1.163444559107     0.584803996564     1.296499185010     1.007825032230
         H           -1.121597440893     1.548405996564    -0.758820814990     1.007825032230
         H            2.627859559107     2.115040996564    -0.178437814990     1.007825032230
         H            1.771164559107     1.481584996564    -1.588138814990     1.007825032230
         H            0.897927559107     2.420061996564    -0.359490814990     1.007825032230
         H            2.375120559107    -1.499028003436     0.731123185010     1.007825032230
         H            3.475728559107    -0.102901003436     0.707311185010     1.007825032230
         H            2.896576559107    -0.800830003436    -0.817454814990     1.007825032230
         H           -2.467052440893     1.456504996564     1.497821185010     1.007825032230
         H           -1.459408440893     0.046568996564     1.886221185010     1.007825032230
         H           -0.720239440893     1.652270996564     1.675623185010     1.007825032230
         H           -2.501348440893    -0.258135003436    -1.781055814990     1.007825032230
         H           -3.469778440893     0.643195996564    -0.599071814990     1.007825032230
         H           -2.797837440893    -0.946632003436    -0.172586814990     1.007825032230

  Basis Set: AUG-CC-PVTZ
    Blend: AUG-CC-PVTZ
  Basis Set: (AUG-CC-PVTZ AUX)
    Blend: AUG-CC-PVTZ-JKFIT
	 Reference Energy          =    -707.8284760908837825 [Eh]
	 Singles Energy            =      -0.0000000000000000 [Eh]
	 Same-Spin Energy          =      -0.3884837712328780 [Eh]
	 Opposite-Spin Energy      =      -1.3114700704062736 [Eh]
	 Correlation Energy        =      -1.6999538416391515 [Eh]
	 Total Energy              =    -709.5284299325229540 [Eh]

	 ================> DF-SCS-MP2 Energies <==================
	-----------------------------------------------------------
	 SCS Same-Spin Scale       =       0.3333333333333333 [-]
	 SCS Opposite-Spin Scale   =       1.2000000000000000 [-]
	 SCS Same-Spin Energy      =      -0.1294945904109593 [Eh]
	 SCS Opposite-Spin Energy  =      -1.5737640844875282 [Eh]
	 SCS Correlation Energy    =      -1.7032586748984875 [Eh]
	 SCS Total Energy          =    -709.5317347657822893 [Eh]
	-----------------------------------------------------------

  Dipole Moment: [D]
     X:     0.6360      Y:     4.3882      Z:    -0.8711     Total:     4.5188

*** Psi4 exiting successfully. Buy a developer a beer!
