                               Psi4 1.4a3.dev225

  ==> Input File <==

--------------------------------------------------------------------------
#psi4
#
memory 32 gb

molecule  {
0 1
  S        0.0075060    -0.6017520    -0.4647870
  O       -0.2590887    -1.7856615     0.4859048
  C        1.4178840     0.3206660     0.2483950
  C       -1.3599760     0.5918780    -0.1703380
  C        1.6769860     1.6120510    -0.5173440
  C        2.6097490    -0.6313490     0.2114050
  C       -1.5068220     0.9141660     1.3098780
  C       -2.6139150    -0.0830150    -0.7222310
  H        1.1570720     0.5207860     1.2929090
  H       -1.1279920     1.4843500    -0.7624100
  H        2.6214640     2.0510430    -0.1818700
  H        1.7650720     1.4174690    -1.5917100
  H        0.8915570     2.3559690    -0.3632840
  H        2.3687570    -1.5630370     0.7277090
  H        3.4693900    -0.1669130     0.7036130
  H        2.8901120    -0.8650600    -0.8209970
  H       -2.4734430     1.3924660     1.4941730
  H       -1.4657910    -0.0174610     1.8826380
  H       -0.7266330     1.5882370     1.6720420
  H       -2.5077120    -0.3222990    -1.7846030
  H       -3.4761170     0.5791690    -0.6027030
  H       -2.8042390    -1.0106520    -0.1760810
units angstrom
no_reorient  #important for SAPT in psi4, default
symmetry c1  #important for SAPT in psi4, default
}

set PROPERTIES_ORIGIN ["COM"]
properties('MP2/aug-cc-pvtz', properties = ['dipole'])
--------------------------------------------------------------------------

    Molecular point group: c1
  Charge       = 0
  Multiplicity = 1
  Basis Set: AUG-CC-PVTZ
    Blend: AUG-CC-PVTZ
  Basis Set: (AUG-CC-PVTZ AUX)
    Blend: AUG-CC-PVTZ-JKFIT

    Orbital Energies [Eh]
    ---------------------

    Doubly Occupied:

       1A    -92.052298     2A    -20.494853     3A    -11.269207
       4A    -11.268420     5A    -11.240528     6A    -11.226306
       7A    -11.226074     8A    -11.225538     9A     -9.040307
      10A     -6.721776    11A     -6.721497    12A     -6.720294
      13A     -1.303193    14A     -1.110270    15A     -1.079447
      16A     -0.951740    17A     -0.945255    18A     -0.923233
      19A     -0.817553    20A     -0.758420    21A     -0.669107
      22A     -0.643044    23A     -0.621474    24A     -0.610488
      25A     -0.579165    26A     -0.573211    27A     -0.556084
      28A     -0.552483    29A     -0.527894    30A     -0.518575
      31A     -0.512066    32A     -0.504670    33A     -0.491325
      34A     -0.488080    35A     -0.482208    36A     -0.397525
      37A     -0.356711

  @DF-RHF Final Energy:  -707.83948188069110

   => Energetics <=

    Nuclear Repulsion Energy =            512.5107394466033384
    One-Electron Energy =               -1988.3398110714115319
    Two-Electron Energy =                 767.9895897441170973
    Total Energy =                       -707.8394818806910962
  Basis Set: (AUG-CC-PVTZ AUX)
    Blend: AUG-CC-PVTZ-RI
    Molecular point group: c1

    Geometry (in Angstrom), charge = 0, multiplicity = 1:

       Center              X                  Y                   Z               Mass
    ------------   -----------------  -----------------  -----------------  -----------------
         S            0.012213759121    -0.545025594664    -0.455315272248    31.972071174400
         O           -0.254380940879    -1.728935094664     0.495376527752    15.994914619570
         C            1.422591759121     0.377392405336     0.257866727752    12.000000000000
         C           -1.355268240879     0.648604405336    -0.160866272248    12.000000000000
         C            1.681693759121     1.668777405336    -0.507872272248    12.000000000000
         C            2.614456759121    -0.574622594664     0.220876727752    12.000000000000
         C           -1.502114240879     0.970892405336     1.319349727752    12.000000000000
         C           -2.609207240879    -0.026288594664    -0.712759272248    12.000000000000
         H            1.161779759121     0.577512405336     1.302380727752     1.007825032230
         H           -1.123284240879     1.541076405336    -0.752938272248     1.007825032230
         H            2.626171759121     2.107769405336    -0.172398272248     1.007825032230
         H            1.769779759121     1.474195405336    -1.582238272248     1.007825032230
         H            0.896264759121     2.412695405336    -0.353812272248     1.007825032230
         H            2.373464759121    -1.506310594664     0.737180727752     1.007825032230
         H            3.474097759121    -0.110186594664     0.713084727752     1.007825032230
         H            2.894819759121    -0.808333594664    -0.811525272248     1.007825032230
         H           -2.468735240879     1.449192405336     1.503644727752     1.007825032230
         H           -1.461083240879     0.039265405336     1.892109727752     1.007825032230
         H           -0.721925240879     1.644963405336     1.681513727752     1.007825032230
         H           -2.503004240879    -0.265572594664    -1.775131272248     1.007825032230
         H           -3.471409240879     0.635895405336    -0.593231272248     1.007825032230
         H           -2.799531240879    -0.953925594664    -0.166609272248     1.007825032230

  Basis Set: AUG-CC-PVTZ
    Blend: AUG-CC-PVTZ
  Basis Set: (AUG-CC-PVTZ AUX)
    Blend: AUG-CC-PVTZ-JKFIT
	 Reference Energy          =    -707.8394818806910962 [Eh]
	 Singles Energy            =      -0.0000000000000000 [Eh]
	 Same-Spin Energy          =      -0.3880211377866474 [Eh]
	 Opposite-Spin Energy      =      -1.3090249156861911 [Eh]
	 Correlation Energy        =      -1.6970460534728384 [Eh]
	 Total Energy              =    -709.5365279341639280 [Eh]

	 ================> DF-SCS-MP2 Energies <==================
	-----------------------------------------------------------
	 SCS Same-Spin Scale       =       0.3333333333333333 [-]
	 SCS Opposite-Spin Scale   =       1.2000000000000000 [-]
	 SCS Same-Spin Energy      =      -0.1293403792622158 [Eh]
	 SCS Opposite-Spin Energy  =      -1.5708298988234293 [Eh]
	 SCS Correlation Energy    =      -1.7001702780856451 [Eh]
	 SCS Total Energy          =    -709.5396521587767893 [Eh]
	-----------------------------------------------------------

  Dipole Moment: [D]
     X:     0.5625      Y:     3.9869      Z:    -0.6946     Total:     4.0859

*** Psi4 exiting successfully. Buy a developer a beer!
