                               Psi4 1.3.2 release

  ==> Input File <==

--------------------------------------------------------------------------
#psi4
#
memory 32 gb

molecule  {
0 1
  S        0.0214795    -0.5805096    -0.4843514
  O       -0.2556540    -1.7702980     0.4735910
  C        1.4178950     0.3206530     0.2483930
  C       -1.3599780     0.5918880    -0.1703300
  C        1.6769310     1.6120600    -0.5173330
  C        2.6097720    -0.6313220     0.2113700
  C       -1.5067950     0.9141520     1.3098910
  C       -2.6139080    -0.0830010    -0.7222500
  H        1.1570860     0.5207480     1.2929140
  H       -1.1279560     1.4843500    -0.7624060
  H        2.6215010     2.0509850    -0.1820230
  H        1.7648060     1.4175290    -1.5917240
  H        0.8915690     2.3560060    -0.3630760
  H        2.3687620    -1.5630840     0.7275380
  H        3.4693700    -0.1669570     0.7037260
  H        2.8902180    -0.8648860    -0.8210400
  H       -2.4734110     1.3924490     1.4942360
  H       -1.4657670    -0.0174870     1.8826360
  H       -0.7265980     1.5882150     1.6720380
  H       -2.5077070    -0.3221910    -1.7846410
  H       -3.4761370     0.5791400    -0.6026570
  H       -2.8041960    -1.0106880    -0.1761720
units angstrom
no_reorient  #important for SAPT in psi4, default
symmetry c1  #important for SAPT in psi4, default
}

set PROPERTIES_ORIGIN ["COM"]
properties('MP2/aug-cc-pvtz', properties = ['dipole'])
--------------------------------------------------------------------------

    Molecular point group: c1
  Charge       = 0
  Multiplicity = 1
  Basis Set: AUG-CC-PVTZ
    Blend: AUG-CC-PVTZ
  Basis Set: (AUG-CC-PVTZ AUX)
    Blend: AUG-CC-PVTZ-JKFIT

    Orbital Energies [Eh]
    ---------------------

    Doubly Occupied:

       1A    -92.052304     2A    -20.492537     3A    -11.269532
       4A    -11.268181     5A    -11.240559     6A    -11.226307
       7A    -11.226085     8A    -11.225911     9A     -9.040518
      10A     -6.721973    11A     -6.721697    12A     -6.720450
      13A     -1.297162    14A     -1.110966    15A     -1.079785
      16A     -0.952114    17A     -0.945095    18A     -0.924751
      19A     -0.818516    20A     -0.758577    21A     -0.669152
      22A     -0.643301    23A     -0.621703    24A     -0.609733
      25A     -0.579370    26A     -0.572925    27A     -0.556561
      28A     -0.551895    29A     -0.526346    30A     -0.518075
      31A     -0.512111    32A     -0.504704    33A     -0.490309
      34A     -0.486920    35A     -0.480176    36A     -0.396771
      37A     -0.358052

  @DF-RHF Final Energy:  -707.83856534229210

   => Energetics <=

    Nuclear Repulsion Energy =            512.8405451371661457
    One-Electron Energy =               -1989.0159725478995369
    Two-Electron Energy =                 768.3368620684412917
    Total Energy =                       -707.8385653422920996
  Basis Set: (AUG-CC-PVTZ AUX)
    Blend: AUG-CC-PVTZ-RI
    Molecular point group: c1

    Geometry (in Angstrom), charge = 0, multiplicity = 1:

       Center              X                  Y                   Z               Mass
    ------------   -----------------  -----------------  -----------------  -----------------
         S            0.022444062732    -0.530684923382    -0.468742594169    31.972071174400
         O           -0.254689437268    -1.720473323382     0.489199805831    15.994914619570
         C            1.418859562732     0.370477676618     0.264001805831    12.000000000000
         C           -1.359013437268     0.641712676618    -0.154721194169    12.000000000000
         C            1.677895562732     1.661884676618    -0.501724194169    12.000000000000
         C            2.610736562732    -0.581497323382     0.226978805831    12.000000000000
         C           -1.505830437268     0.963976676618     1.325499805831    12.000000000000
         C           -2.612943437268    -0.033176323382    -0.706641194169    12.000000000000
         H            1.158050562732     0.570572676618     1.308522805831     1.007825032230
         H           -1.126991437268     1.534174676618    -0.746797194169     1.007825032230
         H            2.622465562732     2.100809676618    -0.166414194169     1.007825032230
         H            1.765770562732     1.467353676618    -1.576115194169     1.007825032230
         H            0.892533562732     2.405830676618    -0.347467194169     1.007825032230
         H            2.369726562732    -1.513259323382     0.743146805831     1.007825032230
         H            3.470334562732    -0.117132323382     0.719334805831     1.007825032230
         H            2.891182562732    -0.815061323382    -0.805431194169     1.007825032230
         H           -2.472446437268     1.442273676618     1.509844805831     1.007825032230
         H           -1.464802437268     0.032337676618     1.898244805831     1.007825032230
         H           -0.725633437268     1.638039676618     1.687646805831     1.007825032230
         H           -2.506742437268    -0.272366323382    -1.769032194169     1.007825032230
         H           -3.475172437268     0.628964676618    -0.587048194169     1.007825032230
         H           -2.803231437268    -0.960863323382    -0.160563194169     1.007825032230

  Basis Set: AUG-CC-PVTZ
    Blend: AUG-CC-PVTZ
  Basis Set: (AUG-CC-PVTZ AUX)
    Blend: AUG-CC-PVTZ-JKFIT
	 Reference Energy          =    -707.8385653422920996 [Eh]
	 Singles Energy            =      -0.0000000000000000 [Eh]
	 Same-Spin Energy          =      -0.3881603151283799 [Eh]
	 Opposite-Spin Energy      =      -1.3092579373061821 [Eh]
	 Correlation Energy        =      -1.6974182524345620 [Eh]
	 Total Energy              =    -709.5359835947266447 [Eh]

	 ================> DF-SCS-MP2 Energies <==================
	-----------------------------------------------------------
	 SCS Same-Spin Scale       =       0.3333333333333333 [-]
	 SCS Opposite-Spin Scale   =       1.2000000000000000 [-]
	 SCS Same-Spin Energy      =      -0.1293867717094599 [Eh]
	 SCS Opposite-Spin Energy  =      -1.5711095247674185 [Eh]
	 SCS Correlation Energy    =      -1.7004962964768784 [Eh]
	 SCS Total Energy          =    -709.5390616387689988 [Eh]
	-----------------------------------------------------------

  Dipole Moment: [D]
     X:     0.5932      Y:     4.0251      Z:    -0.6997     Total:     4.1283

*** Psi4 exiting successfully. Buy a developer a beer!
