                               Psi4 1.3.2 release

  ==> Input File <==

--------------------------------------------------------------------------
#psi4
#
memory 32 gb

molecule  {
0 1
  S        0.0075120    -0.6017700    -0.4647820
  O       -0.2556540    -1.7702980     0.4735910
  C        1.3981160     0.3446072     0.2558106
  C       -1.3599780     0.5918880    -0.1703300
  C        1.6769310     1.6120600    -0.5173330
  C        2.6097720    -0.6313220     0.2113700
  C       -1.5067950     0.9141520     1.3098910
  C       -2.6139080    -0.0830010    -0.7222500
  H        1.1570860     0.5207480     1.2929140
  H       -1.1279560     1.4843500    -0.7624060
  H        2.6215010     2.0509850    -0.1820230
  H        1.7648060     1.4175290    -1.5917240
  H        0.8915690     2.3560060    -0.3630760
  H        2.3687620    -1.5630840     0.7275380
  H        3.4693700    -0.1669570     0.7037260
  H        2.8902180    -0.8648860    -0.8210400
  H       -2.4734110     1.3924490     1.4942360
  H       -1.4657670    -0.0174870     1.8826360
  H       -0.7265980     1.5882150     1.6720380
  H       -2.5077070    -0.3221910    -1.7846410
  H       -3.4761370     0.5791400    -0.6026570
  H       -2.8041960    -1.0106880    -0.1761720
units angstrom
no_reorient  #important for SAPT in psi4, default
symmetry c1  #important for SAPT in psi4, default
}

set PROPERTIES_ORIGIN ["COM"]
properties('MP2/aug-cc-pvtz', properties = ['dipole'])
--------------------------------------------------------------------------

    Molecular point group: c1
  Charge       = 0
  Multiplicity = 1
  Basis Set: AUG-CC-PVTZ
    Blend: AUG-CC-PVTZ
  Basis Set: (AUG-CC-PVTZ AUX)
    Blend: AUG-CC-PVTZ-JKFIT

    Orbital Energies [Eh]
    ---------------------

    Doubly Occupied:

       1A    -92.052542     2A    -20.495372     3A    -11.267215
       4A    -11.266183     5A    -11.239341     6A    -11.226285
       7A    -11.225968     8A    -11.225414     9A     -9.040488
      10A     -6.721960    11A     -6.721723    12A     -6.720495
      13A     -1.314380    14A     -1.109452    15A     -1.077615
      16A     -0.949265    17A     -0.944753    18A     -0.921604
      19A     -0.818241    20A     -0.759047    21A     -0.669215
      22A     -0.641665    23A     -0.620626    24A     -0.612161
      25A     -0.579294    26A     -0.573259    27A     -0.554996
      28A     -0.552259    29A     -0.530251    30A     -0.520753
      31A     -0.512167    32A     -0.505173    33A     -0.491582
      34A     -0.487748    35A     -0.483658    36A     -0.397153
      37A     -0.356805

  @DF-RHF Final Energy:  -707.84015380700805

   => Energetics <=

    Nuclear Repulsion Energy =            513.3462620106929535
    One-Electron Energy =               -1990.0006194174063694
    Two-Electron Energy =                 768.8142035997053654
    Total Energy =                       -707.8401538070080505
  Basis Set: (AUG-CC-PVTZ AUX)
    Blend: AUG-CC-PVTZ-RI
    Molecular point group: c1

    Geometry (in Angstrom), charge = 0, multiplicity = 1:

       Center              X                  Y                   Z               Mass
    ------------   -----------------  -----------------  -----------------  -----------------
         S            0.013577514198    -0.549019467502    -0.454503623114    31.972071174400
         O           -0.249588485802    -1.717547467502     0.483869376886    15.994914619570
         C            1.404181514198     0.397357732498     0.266088976886    12.000000000000
         C           -1.353912485802     0.644638532498    -0.160051623114    12.000000000000
         C            1.682996514198     1.664810532498    -0.507054623114    12.000000000000
         C            2.615837514198    -0.578571467502     0.221648376886    12.000000000000
         C           -1.500729485802     0.966902532498     1.320169376886    12.000000000000
         C           -2.607842485802    -0.030250467502    -0.711971623114    12.000000000000
         H            1.163151514198     0.573498532498     1.303192376886     1.007825032230
         H           -1.121890485802     1.537100532498    -0.752127623114     1.007825032230
         H            2.627566514198     2.103735532498    -0.171744623114     1.007825032230
         H            1.770871514198     1.470279532498    -1.581445623114     1.007825032230
         H            0.897634514198     2.408756532498    -0.352797623114     1.007825032230
         H            2.374827514198    -1.510333467502     0.737816376886     1.007825032230
         H            3.475435514198    -0.114206467502     0.714004376886     1.007825032230
         H            2.896283514198    -0.812135467502    -0.810761623114     1.007825032230
         H           -2.467345485802     1.445199532498     1.504514376886     1.007825032230
         H           -1.459701485802     0.035263532498     1.892914376886     1.007825032230
         H           -0.720532485802     1.640965532498     1.682316376886     1.007825032230
         H           -2.501641485802    -0.269440467502    -1.774362623114     1.007825032230
         H           -3.470071485802     0.631890532498    -0.592378623114     1.007825032230
         H           -2.798130485802    -0.957937467502    -0.165893623114     1.007825032230

  Basis Set: AUG-CC-PVTZ
    Blend: AUG-CC-PVTZ
  Basis Set: (AUG-CC-PVTZ AUX)
    Blend: AUG-CC-PVTZ-JKFIT
	 Reference Energy          =    -707.8401538070080505 [Eh]
	 Singles Energy            =      -0.0000000000000000 [Eh]
	 Same-Spin Energy          =      -0.3878364936609319 [Eh]
	 Opposite-Spin Energy      =      -1.3084716315811948 [Eh]
	 Correlation Energy        =      -1.6963081252421266 [Eh]
	 Total Energy              =    -709.5364619322501767 [Eh]

	 ================> DF-SCS-MP2 Energies <==================
	-----------------------------------------------------------
	 SCS Same-Spin Scale       =       0.3333333333333333 [-]
	 SCS Opposite-Spin Scale   =       1.2000000000000000 [-]
	 SCS Same-Spin Energy      =      -0.1292788312203106 [Eh]
	 SCS Opposite-Spin Energy  =      -1.5701659578974339 [Eh]
	 SCS Correlation Energy    =      -1.6994447891177444 [Eh]
	 SCS Total Energy          =    -709.5395985961257566 [Eh]
	-----------------------------------------------------------

  Dipole Moment: [D]
     X:     0.5398      Y:     3.8764      Z:    -0.6570     Total:     3.9686

*** Psi4 exiting successfully. Buy a developer a beer!
