                               Psi4 1.4a3.dev225

  ==> Input File <==

--------------------------------------------------------------------------
#psi4
#
memory 32 gb

molecule  {
0 1
  S        0.0075060    -0.6017520    -0.4647870
  O       -0.2556300    -1.7703020     0.4735710
  C        1.4178840     0.3206660     0.2483950
  C       -1.3227934     0.5594226    -0.1783442
  C        1.6769860     1.6120510    -0.5173440
  C        2.6097490    -0.6313490     0.2114050
  C       -1.5068220     0.9141660     1.3098780
  C       -2.6139150    -0.0830150    -0.7222310
  H        1.1570720     0.5207860     1.2929090
  H       -1.1279920     1.4843500    -0.7624100
  H        2.6214640     2.0510430    -0.1818700
  H        1.7650720     1.4174690    -1.5917100
  H        0.8915570     2.3559690    -0.3632840
  H        2.3687570    -1.5630370     0.7277090
  H        3.4693900    -0.1669130     0.7036130
  H        2.8901120    -0.8650600    -0.8209970
  H       -2.4734430     1.3924660     1.4941730
  H       -1.4657910    -0.0174610     1.8826380
  H       -0.7266330     1.5882370     1.6720420
  H       -2.5077120    -0.3222990    -1.7846030
  H       -3.4761170     0.5791690    -0.6027030
  H       -2.8042390    -1.0106520    -0.1760810
units angstrom
no_reorient  #important for SAPT in psi4, default
symmetry c1  #important for SAPT in psi4, default
}

set PROPERTIES_ORIGIN ["COM"]
properties('MP2/aug-cc-pvtz', properties = ['dipole'])
--------------------------------------------------------------------------

    Molecular point group: c1
  Charge       = 0
  Multiplicity = 1
  Basis Set: AUG-CC-PVTZ
    Blend: AUG-CC-PVTZ
  Basis Set: (AUG-CC-PVTZ AUX)
    Blend: AUG-CC-PVTZ-JKFIT

    Orbital Energies [Eh]
    ---------------------

    Doubly Occupied:

       1A    -92.053427     2A    -20.494731     3A    -11.267615
       4A    -11.267359     5A    -11.239926     6A    -11.226552
       7A    -11.226460     8A    -11.225746     9A     -9.041822
      10A     -6.723411    11A     -6.723130    12A     -6.721865
      13A     -1.315831    14A     -1.110882    15A     -1.077044
      16A     -0.951474    17A     -0.942149    18A     -0.926536
      19A     -0.818459    20A     -0.755503    21A     -0.671440
      22A     -0.641348    23A     -0.620411    24A     -0.611178
      25A     -0.578765    26A     -0.573759    27A     -0.556247
      28A     -0.551153    29A     -0.532285    30A     -0.520849
      31A     -0.512660    32A     -0.502478    33A     -0.493841
      34A     -0.484734    35A     -0.480127    36A     -0.402962
      37A     -0.357248

  @DF-RHF Final Energy:  -707.83950207929581

   => Energetics <=

    Nuclear Repulsion Energy =            514.1346181916576370
    One-Electron Energy =               -1991.5454240384583500
    Two-Electron Energy =                 769.5713037675049009
    Total Energy =                       -707.8395020792958121
  Basis Set: (AUG-CC-PVTZ AUX)
    Blend: AUG-CC-PVTZ-RI
    Molecular point group: c1

    Geometry (in Angstrom), charge = 0, multiplicity = 1:

       Center              X                  Y                   Z               Mass
    ------------   -----------------  -----------------  -----------------  -----------------
         S            0.008473262646    -0.543953140729    -0.453127324333    31.972071174400
         O           -0.254662737354    -1.712503140729     0.485230675667    15.994914619570
         C            1.418851262646     0.378464859271     0.260054675667    12.000000000000
         C           -1.321826137354     0.617221459271    -0.166684524333    12.000000000000
         C            1.677953262646     1.669849859271    -0.505684324333    12.000000000000
         C            2.610716262646    -0.573550140729     0.223064675667    12.000000000000
         C           -1.505854737354     0.971964859271     1.321537675667    12.000000000000
         C           -2.612947737354    -0.025216140729    -0.710571324333    12.000000000000
         H            1.158039262646     0.578584859271     1.304568675667     1.007825032230
         H           -1.127024737354     1.542148859271    -0.750750324333     1.007825032230
         H            2.622431262646     2.108841859271    -0.170210324333     1.007825032230
         H            1.766039262646     1.475267859271    -1.580050324333     1.007825032230
         H            0.892524262646     2.413767859271    -0.351624324333     1.007825032230
         H            2.369724262646    -1.505238140729     0.739368675667     1.007825032230
         H            3.470357262646    -0.109114140729     0.715272675667     1.007825032230
         H            2.891079262646    -0.807261140729    -0.809337324333     1.007825032230
         H           -2.472475737354     1.450264859271     1.505832675667     1.007825032230
         H           -1.464823737354     0.040337859271     1.894297675667     1.007825032230
         H           -0.725665737354     1.646035859271     1.683701675667     1.007825032230
         H           -2.506744737354    -0.264500140729    -1.772943324333     1.007825032230
         H           -3.475149737354     0.636967859271    -0.591043324333     1.007825032230
         H           -2.803271737354    -0.952853140729    -0.164421324333     1.007825032230

  Basis Set: AUG-CC-PVTZ
    Blend: AUG-CC-PVTZ
  Basis Set: (AUG-CC-PVTZ AUX)
    Blend: AUG-CC-PVTZ-JKFIT
	 Reference Energy          =    -707.8395020792958121 [Eh]
	 Singles Energy            =      -0.0000000000000000 [Eh]
	 Same-Spin Energy          =      -0.3877450684272376 [Eh]
	 Opposite-Spin Energy      =      -1.3081293793455493 [Eh]
	 Correlation Energy        =      -1.6958744477727870 [Eh]
	 Total Energy              =    -709.5353765270685926 [Eh]

	 ================> DF-SCS-MP2 Energies <==================
	-----------------------------------------------------------
	 SCS Same-Spin Scale       =       0.3333333333333333 [-]
	 SCS Opposite-Spin Scale   =       1.2000000000000000 [-]
	 SCS Same-Spin Energy      =      -0.1292483561424125 [Eh]
	 SCS Opposite-Spin Energy  =      -1.5697552552146592 [Eh]
	 SCS Correlation Energy    =      -1.6990036113570717 [Eh]
	 SCS Total Energy          =    -709.5385056906528689 [Eh]
	-----------------------------------------------------------

  Dipole Moment: [D]
     X:     0.5453      Y:     3.8996      Z:    -0.6541     Total:     3.9915

*** Psi4 exiting successfully. Buy a developer a beer!
