                               Psi4 1.3.2 release

  ==> Input File <==

--------------------------------------------------------------------------
#psi4
#
memory 32 gb

molecule  {
0 1
  S        0.0075120    -0.6017700    -0.4647820
  O       -0.2556540    -1.7702980     0.4735910
  C        1.4178950     0.3206530     0.2483930
  C       -1.2856134     0.5269764    -0.1863424
  C        1.6769310     1.6120600    -0.5173330
  C        2.6097720    -0.6313220     0.2113700
  C       -1.5067950     0.9141520     1.3098910
  C       -2.6139080    -0.0830010    -0.7222500
  H        1.1570860     0.5207480     1.2929140
  H       -1.1279560     1.4843500    -0.7624060
  H        2.6215010     2.0509850    -0.1820230
  H        1.7648060     1.4175290    -1.5917240
  H        0.8915690     2.3560060    -0.3630760
  H        2.3687620    -1.5630840     0.7275380
  H        3.4693700    -0.1669570     0.7037260
  H        2.8902180    -0.8648860    -0.8210400
  H       -2.4734110     1.3924490     1.4942360
  H       -1.4657670    -0.0174870     1.8826360
  H       -0.7265980     1.5882150     1.6720380
  H       -2.5077070    -0.3221910    -1.7846410
  H       -3.4761370     0.5791400    -0.6026570
  H       -2.8041960    -1.0106880    -0.1761720
units angstrom
no_reorient  #important for SAPT in psi4, default
symmetry c1  #important for SAPT in psi4, default
}

set PROPERTIES_ORIGIN ["COM"]
properties('MP2/aug-cc-pvtz', properties = ['dipole'])
--------------------------------------------------------------------------

    Molecular point group: c1
  Charge       = 0
  Multiplicity = 1
  Basis Set: AUG-CC-PVTZ
    Blend: AUG-CC-PVTZ
  Basis Set: (AUG-CC-PVTZ AUX)
    Blend: AUG-CC-PVTZ-JKFIT

    Orbital Energies [Eh]
    ---------------------

    Doubly Occupied:

       1A    -92.054077     2A    -20.494596     3A    -11.268000
       4A    -11.267515     5A    -11.239916     6A    -11.227667
       7A    -11.227533     8A    -11.226044     9A     -9.043026
      10A     -6.724776    11A     -6.724336    12A     -6.723082
      13A     -1.317715    14A     -1.112520    15A     -1.075523
      16A     -0.951613    17A     -0.939704    18A     -0.931656
      19A     -0.819993    20A     -0.753233    21A     -0.673321
      22A     -0.640543    23A     -0.619496    24A     -0.610629
      25A     -0.578533    26A     -0.574422    27A     -0.556759
      28A     -0.550060    29A     -0.535128    30A     -0.521632
      31A     -0.513684    32A     -0.501894    33A     -0.494642
      34A     -0.479324    35A     -0.474521    36A     -0.407487
      37A     -0.358120

  @DF-RHF Final Energy:  -707.83363189997328

   => Energetics <=

    Nuclear Repulsion Energy =            514.9529971480104678
    One-Electron Energy =               -1993.1478209049425914
    Two-Electron Energy =                 770.3611918569589534
    Total Energy =                       -707.8336318999732839
  Basis Set: (AUG-CC-PVTZ AUX)
    Blend: AUG-CC-PVTZ-RI
    Molecular point group: c1

    Geometry (in Angstrom), charge = 0, multiplicity = 1:

       Center              X                  Y                   Z               Mass
    ------------   -----------------  -----------------  -----------------  -----------------
         S            0.005151556670    -0.541065878978    -0.452406611901    31.972071174400
         O           -0.258014443330    -1.709593878978     0.485966388099    15.994914619570
         C            1.415534556670     0.381357121022     0.260768388099    12.000000000000
         C           -1.287973843330     0.587680521022    -0.173967011901    12.000000000000
         C            1.674570556670     1.672764121022    -0.504957611901    12.000000000000
         C            2.607411556670    -0.570617878978     0.223745388099    12.000000000000
         C           -1.509155443330     0.974856121022     1.322266388099    12.000000000000
         C           -2.616268443330    -0.022296878978    -0.709874611901    12.000000000000
         H            1.154725556670     0.581452121022     1.305289388099     1.007825032230
         H           -1.130316443330     1.545054121022    -0.750030611901     1.007825032230
         H            2.619140556670     2.111689121022    -0.169647611901     1.007825032230
         H            1.762445556670     1.478233121022    -1.579348611901     1.007825032230
         H            0.889208556670     2.416710121022    -0.350700611901     1.007825032230
         H            2.366401556670    -1.502379878978     0.739913388099     1.007825032230
         H            3.467009556670    -0.106252878978     0.716101388099     1.007825032230
         H            2.887857556670    -0.804181878978    -0.808664611901     1.007825032230
         H           -2.475771443330     1.453153121022     1.506611388099     1.007825032230
         H           -1.468127443330     0.043217121022     1.895011388099     1.007825032230
         H           -0.728958443330     1.648919121022     1.684413388099     1.007825032230
         H           -2.510067443330    -0.261486878978    -1.772265611901     1.007825032230
         H           -3.478497443330     0.639844121022    -0.590281611901     1.007825032230
         H           -2.806556443330    -0.949983878978    -0.163796611901     1.007825032230

  Basis Set: AUG-CC-PVTZ
    Blend: AUG-CC-PVTZ
  Basis Set: (AUG-CC-PVTZ AUX)
    Blend: AUG-CC-PVTZ-JKFIT
	 Reference Energy          =    -707.8336318999732839 [Eh]
	 Singles Energy            =      -0.0000000000000000 [Eh]
	 Same-Spin Energy          =      -0.3879092484718948 [Eh]
	 Opposite-Spin Energy      =      -1.3083199332965272 [Eh]
	 Correlation Energy        =      -1.6962291817684219 [Eh]
	 Total Energy              =    -709.5298610817417284 [Eh]

	 ================> DF-SCS-MP2 Energies <==================
	-----------------------------------------------------------
	 SCS Same-Spin Scale       =       0.3333333333333333 [-]
	 SCS Opposite-Spin Scale   =       1.2000000000000000 [-]
	 SCS Same-Spin Energy      =      -0.1293030828239649 [Eh]
	 SCS Opposite-Spin Energy  =      -1.5699839199558325 [Eh]
	 SCS Correlation Energy    =      -1.6992870027797975 [Eh]
	 SCS Total Energy          =    -709.5329189027530674 [Eh]
	-----------------------------------------------------------

  Dipole Moment: [D]
     X:     0.5328      Y:     3.9196      Z:    -0.6556     Total:     4.0096

*** Psi4 exiting successfully. Buy a developer a beer!
