                               Psi4 1.3.2 release

  ==> Input File <==

--------------------------------------------------------------------------
#psi4
#
memory 32 gb

molecule  {
0 1
  S        0.0481766    -0.5601357    -0.4377103
  O       -0.2556540    -1.7702980     0.4735910
  C        1.4178950     0.3206530     0.2483930
  C       -1.3599780     0.5918880    -0.1703300
  C        1.6769310     1.6120600    -0.5173330
  C        2.6097720    -0.6313220     0.2113700
  C       -1.5067950     0.9141520     1.3098910
  C       -2.6139080    -0.0830010    -0.7222500
  H        1.1570860     0.5207480     1.2929140
  H       -1.1279560     1.4843500    -0.7624060
  H        2.6215010     2.0509850    -0.1820230
  H        1.7648060     1.4175290    -1.5917240
  H        0.8915690     2.3560060    -0.3630760
  H        2.3687620    -1.5630840     0.7275380
  H        3.4693700    -0.1669570     0.7037260
  H        2.8902180    -0.8648860    -0.8210400
  H       -2.4734110     1.3924490     1.4942360
  H       -1.4657670    -0.0174870     1.8826360
  H       -0.7265980     1.5882150     1.6720380
  H       -2.5077070    -0.3221910    -1.7846410
  H       -3.4761370     0.5791400    -0.6026570
  H       -2.8041960    -1.0106880    -0.1761720
units angstrom
no_reorient  #important for SAPT in psi4, default
symmetry c1  #important for SAPT in psi4, default
}

set PROPERTIES_ORIGIN ["COM"]
properties('MP2/aug-cc-pvtz', properties = ['dipole'])
--------------------------------------------------------------------------

    Molecular point group: c1
  Charge       = 0
  Multiplicity = 1
  Basis Set: AUG-CC-PVTZ
    Blend: AUG-CC-PVTZ
  Basis Set: (AUG-CC-PVTZ AUX)
    Blend: AUG-CC-PVTZ-JKFIT

    Orbital Energies [Eh]
    ---------------------

    Doubly Occupied:

       1A    -92.048812     2A    -20.492745     3A    -11.269393
       4A    -11.266400     5A    -11.242342     6A    -11.227545
       7A    -11.226182     8A    -11.225979     9A     -9.037868
      10A     -6.719463    11A     -6.719177    12A     -6.717900
      13A     -1.301588    14A     -1.116533    15A     -1.081083
      16A     -0.953979    17A     -0.944767    18A     -0.928319
      19A     -0.822037    20A     -0.756731    21A     -0.671902
      22A     -0.644815    23A     -0.622947    24A     -0.610889
      25A     -0.580883    26A     -0.573288    27A     -0.557854
      28A     -0.552142    29A     -0.528112    30A     -0.519878
      31A     -0.513243    32A     -0.505114    33A     -0.492724
      34A     -0.486889    35A     -0.479957    36A     -0.401624
      37A     -0.353337

  @DF-RHF Final Energy:  -707.83803534279912

   => Energetics <=

    Nuclear Repulsion Energy =            514.5108875577191156
    One-Electron Energy =               -1992.3089593082693227
    Two-Electron Energy =                 769.9600364077510903
    Total Energy =                       -707.8380353427991167
  Basis Set: (AUG-CC-PVTZ AUX)
    Blend: AUG-CC-PVTZ-RI
    Molecular point group: c1

    Geometry (in Angstrom), charge = 0, multiplicity = 1:

       Center              X                  Y                   Z               Mass
    ------------   -----------------  -----------------  -----------------  -----------------
         S            0.042774936357    -0.515169410980    -0.433223593611    31.972071174400
         O           -0.261055663643    -1.725331710980     0.478077706389    15.994914619570
         C            1.412493336357     0.365619289020     0.252879706389    12.000000000000
         C           -1.365379663643     0.636854289020    -0.165843293611    12.000000000000
         C            1.671529336357     1.657026289020    -0.512846293611    12.000000000000
         C            2.604370336357    -0.586355710980     0.215856706389    12.000000000000
         C           -1.512196663643     0.959118289020     1.314377706389    12.000000000000
         C           -2.619309663643    -0.038034710980    -0.717763293611    12.000000000000
         H            1.151684336357     0.565714289020     1.297400706389     1.007825032230
         H           -1.133357663643     1.529316289020    -0.757919293611     1.007825032230
         H            2.616099336357     2.095951289020    -0.177536293611     1.007825032230
         H            1.759404336357     1.462495289020    -1.587237293611     1.007825032230
         H            0.886167336357     2.400972289020    -0.358589293611     1.007825032230
         H            2.363360336357    -1.518117710980     0.732024706389     1.007825032230
         H            3.463968336357    -0.121990710980     0.708212706389     1.007825032230
         H            2.884816336357    -0.819919710980    -0.816553293611     1.007825032230
         H           -2.478812663643     1.437415289020     1.498722706389     1.007825032230
         H           -1.471168663643     0.027479289020     1.887122706389     1.007825032230
         H           -0.731999663643     1.633181289020     1.676524706389     1.007825032230
         H           -2.513108663643    -0.277224710980    -1.780154293611     1.007825032230
         H           -3.481538663643     0.624106289020    -0.598170293611     1.007825032230
         H           -2.809597663643    -0.965721710980    -0.171685293611     1.007825032230

  Basis Set: AUG-CC-PVTZ
    Blend: AUG-CC-PVTZ
  Basis Set: (AUG-CC-PVTZ AUX)
    Blend: AUG-CC-PVTZ-JKFIT
	 Reference Energy          =    -707.8380353427991167 [Eh]
	 Singles Energy            =      -0.0000000000000000 [Eh]
	 Same-Spin Energy          =      -0.3883030428412701 [Eh]
	 Opposite-Spin Energy      =      -1.3085802949035952 [Eh]
	 Correlation Energy        =      -1.6968833377448653 [Eh]
	 Total Energy              =    -709.5349186805440240 [Eh]

	 ================> DF-SCS-MP2 Energies <==================
	-----------------------------------------------------------
	 SCS Same-Spin Scale       =       0.3333333333333333 [-]
	 SCS Opposite-Spin Scale   =       1.2000000000000000 [-]
	 SCS Same-Spin Energy      =      -0.1294343476137567 [Eh]
	 SCS Opposite-Spin Energy  =      -1.5702963538843142 [Eh]
	 SCS Correlation Energy    =      -1.6997307014980709 [Eh]
	 SCS Total Energy          =    -709.5377660442972001 [Eh]
	-----------------------------------------------------------

  Dipole Moment: [D]
     X:     0.6869      Y:     4.0798      Z:    -0.6247     Total:     4.1842

*** Psi4 exiting successfully. Buy a developer a beer!
