                               Psi4 1.3.2 release

  ==> Input File <==

--------------------------------------------------------------------------
#psi4
#
memory 32 gb

molecule  {
0 1
  S        0.0075120    -0.6017700    -0.4647820
  O       -0.2118801    -1.7939103     0.4549607
  C        1.4178950     0.3206530     0.2483930
  C       -1.3599780     0.5918880    -0.1703300
  C        1.6769310     1.6120600    -0.5173330
  C        2.6097720    -0.6313220     0.2113700
  C       -1.5067950     0.9141520     1.3098910
  C       -2.6139080    -0.0830010    -0.7222500
  H        1.1570860     0.5207480     1.2929140
  H       -1.1279560     1.4843500    -0.7624060
  H        2.6215010     2.0509850    -0.1820230
  H        1.7648060     1.4175290    -1.5917240
  H        0.8915690     2.3560060    -0.3630760
  H        2.3687620    -1.5630840     0.7275380
  H        3.4693700    -0.1669570     0.7037260
  H        2.8902180    -0.8648860    -0.8210400
  H       -2.4734110     1.3924490     1.4942360
  H       -1.4657670    -0.0174870     1.8826360
  H       -0.7265980     1.5882150     1.6720380
  H       -2.5077070    -0.3221910    -1.7846410
  H       -3.4761370     0.5791400    -0.6026570
  H       -2.8041960    -1.0106880    -0.1761720
units angstrom
no_reorient  #important for SAPT in psi4, default
symmetry c1  #important for SAPT in psi4, default
}

set PROPERTIES_ORIGIN ["COM"]
properties('MP2/aug-cc-pvtz', properties = ['dipole'])
--------------------------------------------------------------------------

    Molecular point group: c1
  Charge       = 0
  Multiplicity = 1
  Basis Set: AUG-CC-PVTZ
    Blend: AUG-CC-PVTZ
  Basis Set: (AUG-CC-PVTZ AUX)
    Blend: AUG-CC-PVTZ-JKFIT

    Orbital Energies [Eh]
    ---------------------

    Doubly Occupied:

       1A    -92.051608     2A    -20.495596     3A    -11.268839
       4A    -11.266655     5A    -11.239376     6A    -11.227140
       7A    -11.226807     8A    -11.224282     9A     -9.039648
      10A     -6.721124    11A     -6.720925    12A     -6.719685
      13A     -1.313982    14A     -1.110119    15A     -1.079258
      16A     -0.950608    17A     -0.945864    18A     -0.921783
      19A     -0.817233    20A     -0.757693    21A     -0.669749
      22A     -0.642557    23A     -0.621920    24A     -0.611198
      25A     -0.578996    26A     -0.573735    27A     -0.555397
      28A     -0.553026    29A     -0.530178    30A     -0.520924
      31A     -0.512519    32A     -0.504412    33A     -0.492951
      34A     -0.489145    35A     -0.484596    36A     -0.398347
      37A     -0.354452

  @DF-RHF Final Energy:  -707.84097467328002

   => Energetics <=

    Nuclear Repulsion Energy =            513.0833805020378122
    One-Electron Energy =               -1989.4640573984011098
    Two-Electron Energy =                 768.5397022230831681
    Total Energy =                       -707.8409746732800158
  Basis Set: (AUG-CC-PVTZ AUX)
    Blend: AUG-CC-PVTZ-RI
    Molecular point group: c1

    Geometry (in Angstrom), charge = 0, multiplicity = 1:

       Center              X                  Y                   Z               Mass
    ------------   -----------------  -----------------  -----------------  -----------------
         S            0.006585181167    -0.544058665701    -0.451617202651    31.972071174400
         O           -0.212806918833    -1.736198965701     0.468125497349    15.994914619570
         C            1.416968181167     0.378364334299     0.261557797349    12.000000000000
         C           -1.360904818833     0.649599334299    -0.157165202651    12.000000000000
         C            1.676004181167     1.669771334299    -0.504168202651    12.000000000000
         C            2.608845181167    -0.573610665701     0.224534797349    12.000000000000
         C           -1.507721818833     0.971863334299     1.323055797349    12.000000000000
         C           -2.614834818833    -0.025289665701    -0.709085202651    12.000000000000
         H            1.156159181167     0.578459334299     1.306078797349     1.007825032230
         H           -1.128882818833     1.542061334299    -0.749241202651     1.007825032230
         H            2.620574181167     2.108696334299    -0.168858202651     1.007825032230
         H            1.763879181167     1.475240334299    -1.578559202651     1.007825032230
         H            0.890642181167     2.413717334299    -0.349911202651     1.007825032230
         H            2.367835181167    -1.505372665701     0.740702797349     1.007825032230
         H            3.468443181167    -0.109245665701     0.716890797349     1.007825032230
         H            2.889291181167    -0.807174665701    -0.807875202651     1.007825032230
         H           -2.474337818833     1.450160334299     1.507400797349     1.007825032230
         H           -1.466693818833     0.040224334299     1.895800797349     1.007825032230
         H           -0.727524818833     1.645926334299     1.685202797349     1.007825032230
         H           -2.508633818833    -0.264479665701    -1.771476202651     1.007825032230
         H           -3.477063818833     0.636851334299    -0.589492202651     1.007825032230
         H           -2.805122818833    -0.952976665701    -0.163007202651     1.007825032230

  Basis Set: AUG-CC-PVTZ
    Blend: AUG-CC-PVTZ
  Basis Set: (AUG-CC-PVTZ AUX)
    Blend: AUG-CC-PVTZ-JKFIT
	 Reference Energy          =    -707.8409746732800158 [Eh]
	 Singles Energy            =      -0.0000000000000000 [Eh]
	 Same-Spin Energy          =      -0.3877682348347286 [Eh]
	 Opposite-Spin Energy      =      -1.3082683044927079 [Eh]
	 Correlation Energy        =      -1.6960365393274364 [Eh]
	 Total Energy              =    -709.5370112126074673 [Eh]

	 ================> DF-SCS-MP2 Energies <==================
	-----------------------------------------------------------
	 SCS Same-Spin Scale       =       0.3333333333333333 [-]
	 SCS Opposite-Spin Scale   =       1.2000000000000000 [-]
	 SCS Same-Spin Energy      =      -0.1292560782782428 [Eh]
	 SCS Opposite-Spin Energy  =      -1.5699219653912495 [Eh]
	 SCS Correlation Energy    =      -1.6991780436694923 [Eh]
	 SCS Total Energy          =    -709.5401527169494784 [Eh]
	-----------------------------------------------------------

  Dipole Moment: [D]
     X:     0.4311      Y:     3.9283      Z:    -0.6059     Total:     3.9981

*** Psi4 exiting successfully. Buy a developer a beer!
