                               Psi4 1.4a3.dev225

  ==> Input File <==

--------------------------------------------------------------------------
#psi4
#
memory 32 gb

molecule  {
0 1
  S        0.0075060    -0.6017520    -0.4647870
  O       -0.2642767    -1.8087007     0.5044056
  C        1.4178840     0.3206660     0.2483950
  C       -1.3599760     0.5918780    -0.1703380
  C        1.6769860     1.6120510    -0.5173440
  C        2.6097490    -0.6313490     0.2114050
  C       -1.5068220     0.9141660     1.3098780
  C       -2.6139150    -0.0830150    -0.7222310
  H        1.1570720     0.5207860     1.2929090
  H       -1.1279920     1.4843500    -0.7624100
  H        2.6214640     2.0510430    -0.1818700
  H        1.7650720     1.4174690    -1.5917100
  H        0.8915570     2.3559690    -0.3632840
  H        2.3687570    -1.5630370     0.7277090
  H        3.4693900    -0.1669130     0.7036130
  H        2.8901120    -0.8650600    -0.8209970
  H       -2.4734430     1.3924660     1.4941730
  H       -1.4657910    -0.0174610     1.8826380
  H       -0.7266330     1.5882370     1.6720420
  H       -2.5077120    -0.3222990    -1.7846030
  H       -3.4761170     0.5791690    -0.6027030
  H       -2.8042390    -1.0106520    -0.1760810
units angstrom
no_reorient  #important for SAPT in psi4, default
symmetry c1  #important for SAPT in psi4, default
}

set PROPERTIES_ORIGIN ["COM"]
properties('MP2/aug-cc-pvtz', properties = ['dipole'])
--------------------------------------------------------------------------

    Molecular point group: c1
  Charge       = 0
  Multiplicity = 1
  Basis Set: AUG-CC-PVTZ
    Blend: AUG-CC-PVTZ
  Basis Set: (AUG-CC-PVTZ AUX)
    Blend: AUG-CC-PVTZ-JKFIT

    Orbital Energies [Eh]
    ---------------------

    Doubly Occupied:

       1A    -92.052437     2A    -20.495404     3A    -11.271210
       4A    -11.270390     5A    -11.241506     6A    -11.226734
       7A    -11.226517     8A    -11.225934     9A     -9.040505
      10A     -6.721966    11A     -6.721584    12A     -6.720439
      13A     -1.287988    14A     -1.111123    15A     -1.080243
      16A     -0.952467    17A     -0.945767    18A     -0.925539
      19A     -0.818192    20A     -0.759754    21A     -0.668787
      22A     -0.643728    23A     -0.621461    24A     -0.609253
      25A     -0.579416    26A     -0.573260    27A     -0.556597
      28A     -0.552330    29A     -0.525180    30A     -0.516578
      31A     -0.511945    32A     -0.505110    33A     -0.488952
      34A     -0.487019    35A     -0.478976    36A     -0.397184
      37A     -0.358757

  @DF-RHF Final Energy:  -707.83602963550356

   => Energetics <=

    Nuclear Repulsion Energy =            511.2892088371169166
    One-Electron Energy =               -1985.9100150601539099
    Two-Electron Energy =                 766.7847765875335426
    Total Energy =                       -707.8360296355035644
  Basis Set: (AUG-CC-PVTZ AUX)
    Blend: AUG-CC-PVTZ-RI
    Molecular point group: c1

    Geometry (in Angstrom), charge = 0, multiplicity = 1:

       Center              X                  Y                   Z               Mass
    ------------   -----------------  -----------------  -----------------  -----------------
         S            0.012832671418    -0.542277089614    -0.457522360264    31.972071174400
         O           -0.258950028582    -1.749225789614     0.511670239736    15.994914619570
         C            1.423210671418     0.380140910386     0.255659639736    12.000000000000
         C           -1.354649328582     0.651352910386    -0.163073360264    12.000000000000
         C            1.682312671418     1.671525910386    -0.510079360264    12.000000000000
         C            2.615075671418    -0.571874089614     0.218669639736    12.000000000000
         C           -1.501495328582     0.973640910386     1.317142639736    12.000000000000
         C           -2.608588328582    -0.023540089614    -0.714966360264    12.000000000000
         H            1.162398671418     0.580260910386     1.300173639736     1.007825032230
         H           -1.122665328582     1.543824910386    -0.755145360264     1.007825032230
         H            2.626790671418     2.110517910386    -0.174605360264     1.007825032230
         H            1.770398671418     1.476943910386    -1.584445360264     1.007825032230
         H            0.896883671418     2.415443910386    -0.356019360264     1.007825032230
         H            2.374083671418    -1.503562089614     0.734973639736     1.007825032230
         H            3.474716671418    -0.107438089614     0.710877639736     1.007825032230
         H            2.895438671418    -0.805585089614    -0.813732360264     1.007825032230
         H           -2.468116328582     1.451940910386     1.501437639736     1.007825032230
         H           -1.460464328582     0.042013910386     1.889902639736     1.007825032230
         H           -0.721306328582     1.647711910386     1.679306639736     1.007825032230
         H           -2.502385328582    -0.262824089614    -1.777338360264     1.007825032230
         H           -3.470790328582     0.638643910386    -0.595438360264     1.007825032230
         H           -2.798912328582    -0.951177089614    -0.168816360264     1.007825032230

  Basis Set: AUG-CC-PVTZ
    Blend: AUG-CC-PVTZ
  Basis Set: (AUG-CC-PVTZ AUX)
    Blend: AUG-CC-PVTZ-JKFIT
	 Reference Energy          =    -707.8360296355035644 [Eh]
	 Singles Energy            =      -0.0000000000000000 [Eh]
	 Same-Spin Energy          =      -0.3882700735928478 [Eh]
	 Opposite-Spin Energy      =      -1.3100384403879763 [Eh]
	 Correlation Energy        =      -1.6983085139808241 [Eh]
	 Total Energy              =    -709.5343381494843698 [Eh]

	 ================> DF-SCS-MP2 Energies <==================
	-----------------------------------------------------------
	 SCS Same-Spin Scale       =       0.3333333333333333 [-]
	 SCS Opposite-Spin Scale   =       1.2000000000000000 [-]
	 SCS Same-Spin Energy      =      -0.1294233578642826 [Eh]
	 SCS Opposite-Spin Energy  =      -1.5720461284655716 [Eh]
	 SCS Correlation Energy    =      -1.7014694863298541 [Eh]
	 SCS Total Energy          =    -709.5374991218334344 [Eh]
	-----------------------------------------------------------

  Dipole Moment: [D]
     X:     0.5903      Y:     4.1382      Z:    -0.7603     Total:     4.2487

*** Psi4 exiting successfully. Buy a developer a beer!
