                               Psi4 1.3.2 release

  ==> Input File <==

--------------------------------------------------------------------------
#psi4
#
memory 32 gb

molecule  {
0 1
  S       -0.0068720    -0.6226668    -0.4451230
  O       -0.2556540    -1.7702980     0.4735910
  C        1.4178950     0.3206530     0.2483930
  C       -1.3599780     0.5918880    -0.1703300
  C        1.6769310     1.6120600    -0.5173330
  C        2.6097720    -0.6313220     0.2113700
  C       -1.5067950     0.9141520     1.3098910
  C       -2.6139080    -0.0830010    -0.7222500
  H        1.1570860     0.5207480     1.2929140
  H       -1.1279560     1.4843500    -0.7624060
  H        2.6215010     2.0509850    -0.1820230
  H        1.7648060     1.4175290    -1.5917240
  H        0.8915690     2.3560060    -0.3630760
  H        2.3687620    -1.5630840     0.7275380
  H        3.4693700    -0.1669570     0.7037260
  H        2.8902180    -0.8648860    -0.8210400
  H       -2.4734110     1.3924490     1.4942360
  H       -1.4657670    -0.0174870     1.8826360
  H       -0.7265980     1.5882150     1.6720380
  H       -2.5077070    -0.3221910    -1.7846410
  H       -3.4761370     0.5791400    -0.6026570
  H       -2.8041960    -1.0106880    -0.1761720
units angstrom
no_reorient  #important for SAPT in psi4, default
symmetry c1  #important for SAPT in psi4, default
}

set PROPERTIES_ORIGIN ["COM"]
properties('MP2/aug-cc-pvtz', properties = ['dipole'])
--------------------------------------------------------------------------

    Molecular point group: c1
  Charge       = 0
  Multiplicity = 1
  Basis Set: AUG-CC-PVTZ
    Blend: AUG-CC-PVTZ
  Basis Set: (AUG-CC-PVTZ AUX)
    Blend: AUG-CC-PVTZ-JKFIT

    Orbital Energies [Eh]
    ---------------------

    Doubly Occupied:

       1A    -92.051236     2A    -20.497082     3A    -11.265978
       4A    -11.265692     5A    -11.238974     6A    -11.225696
       7A    -11.225439     8A    -11.224560     9A     -9.039259
      10A     -6.720711    11A     -6.720646    12A     -6.719334
      13A     -1.331955    14A     -1.108237    15A     -1.077835
      16A     -0.950273    17A     -0.944689    18A     -0.918397
      19A     -0.815614    20A     -0.756434    21A     -0.669846
      22A     -0.641709    23A     -0.621538    24A     -0.613668
      25A     -0.578649    26A     -0.573840    27A     -0.555204
      28A     -0.553182    29A     -0.533603    30A     -0.523259
      31A     -0.512950    32A     -0.503842    33A     -0.496388
      34A     -0.489507    35A     -0.486604    36A     -0.398412
      37A     -0.352281

  @DF-RHF Final Energy:  -707.84204097024201

   => Energetics <=

    Nuclear Repulsion Energy =            513.8733408857284530
    One-Electron Energy =               -1991.0257100709359293
    Two-Electron Energy =                 769.3103282149655797
    Total Energy =                       -707.8420409702420102
  Basis Set: (AUG-CC-PVTZ AUX)
    Blend: AUG-CC-PVTZ-RI
    Molecular point group: c1

    Geometry (in Angstrom), charge = 0, multiplicity = 1:

       Center              X                  Y                   Z               Mass
    ------------   -----------------  -----------------  -----------------  -----------------
         S            0.000853299557    -0.562789260766    -0.438868651198    31.972071174400
         O           -0.247928700443    -1.710420460766     0.479845348802    15.994914619570
         C            1.425620299557     0.380530539234     0.254647348802    12.000000000000
         C           -1.352252700443     0.651765539234    -0.164075651198    12.000000000000
         C            1.684656299557     1.671937539234    -0.511078651198    12.000000000000
         C            2.617497299557    -0.571444460766     0.217624348802    12.000000000000
         C           -1.499069700443     0.974029539234     1.316145348802    12.000000000000
         C           -2.606182700443    -0.023123460766    -0.715995651198    12.000000000000
         H            1.164811299557     0.580625539234     1.299168348802     1.007825032230
         H           -1.120230700443     1.544227539234    -0.756151651198     1.007825032230
         H            2.629226299557     2.110862539234    -0.175768651198     1.007825032230
         H            1.772531299557     1.477406539234    -1.585469651198     1.007825032230
         H            0.899294299557     2.415883539234    -0.356821651198     1.007825032230
         H            2.376487299557    -1.503206460766     0.733792348802     1.007825032230
         H            3.477095299557    -0.107079460766     0.709980348802     1.007825032230
         H            2.897943299557    -0.805008460766    -0.814785651198     1.007825032230
         H           -2.465685700443     1.452326539234     1.500490348802     1.007825032230
         H           -1.458041700443     0.042390539234     1.888890348802     1.007825032230
         H           -0.718872700443     1.648092539234     1.678292348802     1.007825032230
         H           -2.499981700443    -0.262313460766    -1.778386651198     1.007825032230
         H           -3.468411700443     0.639017539234    -0.596402651198     1.007825032230
         H           -2.796470700443    -0.950810460766    -0.169917651198     1.007825032230

  Basis Set: AUG-CC-PVTZ
    Blend: AUG-CC-PVTZ
  Basis Set: (AUG-CC-PVTZ AUX)
    Blend: AUG-CC-PVTZ-JKFIT
	 Reference Energy          =    -707.8420409702420102 [Eh]
	 Singles Energy            =      -0.0000000000000000 [Eh]
	 Same-Spin Energy          =      -0.3874164768237438 [Eh]
	 Opposite-Spin Energy      =      -1.3073050408042308 [Eh]
	 Correlation Energy        =      -1.6947215176279746 [Eh]
	 Total Energy              =    -709.5367624878699644 [Eh]

	 ================> DF-SCS-MP2 Energies <==================
	-----------------------------------------------------------
	 SCS Same-Spin Scale       =       0.3333333333333333 [-]
	 SCS Opposite-Spin Scale   =       1.2000000000000000 [-]
	 SCS Same-Spin Energy      =      -0.1291388256079146 [Eh]
	 SCS Opposite-Spin Energy  =      -1.5687660489650770 [Eh]
	 SCS Correlation Energy    =      -1.6979048745729917 [Eh]
	 SCS Total Energy          =    -709.5399458448149517 [Eh]
	-----------------------------------------------------------

  Dipole Moment: [D]
     X:     0.4904      Y:     3.7427      Z:    -0.5998     Total:     3.8221

*** Psi4 exiting successfully. Buy a developer a beer!
