                               Psi4 1.3.2 release

  ==> Input File <==

--------------------------------------------------------------------------
#psi4
#
memory 32 gb

molecule  {
0 1
  S        0.0075120    -0.6017700    -0.4647820
  O       -0.2774241    -1.7579561     0.4824788
  C        1.4178950     0.3206530     0.2483930
  C       -1.3599780     0.5918880    -0.1703300
  C        1.6769310     1.6120600    -0.5173330
  C        2.6097720    -0.6313220     0.2113700
  C       -1.5067950     0.9141520     1.3098910
  C       -2.6139080    -0.0830010    -0.7222500
  H        1.1570860     0.5207480     1.2929140
  H       -1.1279560     1.4843500    -0.7624060
  H        2.6215010     2.0509850    -0.1820230
  H        1.7648060     1.4175290    -1.5917240
  H        0.8915690     2.3560060    -0.3630760
  H        2.3687620    -1.5630840     0.7275380
  H        3.4693700    -0.1669570     0.7037260
  H        2.8902180    -0.8648860    -0.8210400
  H       -2.4734110     1.3924490     1.4942360
  H       -1.4657670    -0.0174870     1.8826360
  H       -0.7265980     1.5882150     1.6720380
  H       -2.5077070    -0.3221910    -1.7846410
  H       -3.4761370     0.5791400    -0.6026570
  H       -2.8041960    -1.0106880    -0.1761720
units angstrom
no_reorient  #important for SAPT in psi4, default
symmetry c1  #important for SAPT in psi4, default
}

set PROPERTIES_ORIGIN ["COM"]
properties('MP2/aug-cc-pvtz', properties = ['dipole'])
--------------------------------------------------------------------------

    Molecular point group: c1
  Charge       = 0
  Multiplicity = 1
  Basis Set: AUG-CC-PVTZ
    Blend: AUG-CC-PVTZ
  Basis Set: (AUG-CC-PVTZ AUX)
    Blend: AUG-CC-PVTZ-JKFIT

    Orbital Energies [Eh]
    ---------------------

    Doubly Occupied:

       1A    -92.052152     2A    -20.494134     3A    -11.267269
       4A    -11.267204     5A    -11.240039     6A    -11.225741
       7A    -11.225417     8A    -11.225230     9A     -9.040193
      10A     -6.721650    11A     -6.721464    12A     -6.720198
      13A     -1.313953    14A     -1.109413    15A     -1.078644
      16A     -0.951545    17A     -0.944390    18A     -0.921571
      19A     -0.817027    20A     -0.757390    21A     -0.669213
      22A     -0.642577    23A     -0.621351    24A     -0.611633
      25A     -0.578998    26A     -0.573021    27A     -0.555971
      28A     -0.552382    29A     -0.529649    30A     -0.519923
      31A     -0.512181    32A     -0.504289    33A     -0.493325
      34A     -0.487934    35A     -0.483582    36A     -0.397446
      37A     -0.355750

  @DF-RHF Final Energy:  -707.84111673060420

   => Energetics <=

    Nuclear Repulsion Energy =            513.4845217560365427
    One-Electron Energy =               -1990.2835770173039691
    Two-Electron Energy =                 768.9579385306631139
    Total Energy =                       -707.8411167306041989
  Basis Set: (AUG-CC-PVTZ AUX)
    Blend: AUG-CC-PVTZ-RI
    Molecular point group: c1

    Geometry (in Angstrom), charge = 0, multiplicity = 1:

       Center              X                  Y                   Z               Mass
    ------------   -----------------  -----------------  -----------------  -----------------
         S            0.014404376928    -0.548347890164    -0.454900026569    31.972071174400
         O           -0.270531723072    -1.704533990164     0.492360773431    15.994914619570
         C            1.424787376928     0.374075109836     0.258274973431    12.000000000000
         C           -1.353085623072     0.645310109836    -0.160448026569    12.000000000000
         C            1.683823376928     1.665482109836    -0.507451026569    12.000000000000
         C            2.616664376928    -0.577899890164     0.221251973431    12.000000000000
         C           -1.499902623072     0.967574109836     1.319772973431    12.000000000000
         C           -2.607015623072    -0.029578890164    -0.712368026569    12.000000000000
         H            1.163978376928     0.574170109836     1.302795973431     1.007825032230
         H           -1.121063623072     1.537772109836    -0.752524026569     1.007825032230
         H            2.628393376928     2.104407109836    -0.172141026569     1.007825032230
         H            1.771698376928     1.470951109836    -1.581842026569     1.007825032230
         H            0.898461376928     2.409428109836    -0.353194026569     1.007825032230
         H            2.375654376928    -1.509661890164     0.737419973431     1.007825032230
         H            3.476262376928    -0.113534890164     0.713607973431     1.007825032230
         H            2.897110376928    -0.811463890164    -0.811158026569     1.007825032230
         H           -2.466518623072     1.445871109836     1.504117973431     1.007825032230
         H           -1.458874623072     0.035935109836     1.892517973431     1.007825032230
         H           -0.719705623072     1.641637109836     1.681919973431     1.007825032230
         H           -2.500814623072    -0.268768890164    -1.774759026569     1.007825032230
         H           -3.469244623072     0.632562109836    -0.592775026569     1.007825032230
         H           -2.797303623072    -0.957265890164    -0.166290026569     1.007825032230

  Basis Set: AUG-CC-PVTZ
    Blend: AUG-CC-PVTZ
  Basis Set: (AUG-CC-PVTZ AUX)
    Blend: AUG-CC-PVTZ-JKFIT
	 Reference Energy          =    -707.8411167306041989 [Eh]
	 Singles Energy            =      -0.0000000000000000 [Eh]
	 Same-Spin Energy          =      -0.3878433709650955 [Eh]
	 Opposite-Spin Energy      =      -1.3083268880901455 [Eh]
	 Correlation Energy        =      -1.6961702590552410 [Eh]
	 Total Energy              =    -709.5372869896594921 [Eh]

	 ================> DF-SCS-MP2 Energies <==================
	-----------------------------------------------------------
	 SCS Same-Spin Scale       =       0.3333333333333333 [-]
	 SCS Opposite-Spin Scale   =       1.2000000000000000 [-]
	 SCS Same-Spin Energy      =      -0.1292811236550318 [Eh]
	 SCS Opposite-Spin Energy  =      -1.5699922657081746 [Eh]
	 SCS Correlation Energy    =      -1.6992733893632064 [Eh]
	 SCS Total Energy          =    -709.5403901199673555 [Eh]
	-----------------------------------------------------------

  Dipole Moment: [D]
     X:     0.6001      Y:     3.8616      Z:    -0.6723     Total:     3.9653

*** Psi4 exiting successfully. Buy a developer a beer!
