                               Psi4 1.3.2 release

  ==> Input File <==

--------------------------------------------------------------------------
#psi4
#
memory 32 gb

molecule  {
0 1
  S        0.0075120    -0.6017700    -0.4647820
  O       -0.2556540    -1.7702980     0.4735910
  C        1.3779134     0.3682732     0.2630086
  C       -1.3599780     0.5918880    -0.1703300
  C        1.6769310     1.6120600    -0.5173330
  C        2.6097720    -0.6313220     0.2113700
  C       -1.5067950     0.9141520     1.3098910
  C       -2.6139080    -0.0830010    -0.7222500
  H        1.1570860     0.5207480     1.2929140
  H       -1.1279560     1.4843500    -0.7624060
  H        2.6215010     2.0509850    -0.1820230
  H        1.7648060     1.4175290    -1.5917240
  H        0.8915690     2.3560060    -0.3630760
  H        2.3687620    -1.5630840     0.7275380
  H        3.4693700    -0.1669570     0.7037260
  H        2.8902180    -0.8648860    -0.8210400
  H       -2.4734110     1.3924490     1.4942360
  H       -1.4657670    -0.0174870     1.8826360
  H       -0.7265980     1.5882150     1.6720380
  H       -2.5077070    -0.3221910    -1.7846410
  H       -3.4761370     0.5791400    -0.6026570
  H       -2.8041960    -1.0106880    -0.1761720
units angstrom
no_reorient  #important for SAPT in psi4, default
symmetry c1  #important for SAPT in psi4, default
}

set PROPERTIES_ORIGIN ["COM"]
properties('MP2/aug-cc-pvtz', properties = ['dipole'])
--------------------------------------------------------------------------

    Molecular point group: c1
  Charge       = 0
  Multiplicity = 1
  Basis Set: AUG-CC-PVTZ
    Blend: AUG-CC-PVTZ
  Basis Set: (AUG-CC-PVTZ AUX)
    Blend: AUG-CC-PVTZ-JKFIT

    Orbital Energies [Eh]
    ---------------------

    Doubly Occupied:

       1A    -92.053190     2A    -20.496133     3A    -11.266670
       4A    -11.265505     5A    -11.238935     6A    -11.227194
       7A    -11.225937     8A    -11.225075     9A     -9.041032
      10A     -6.722510    11A     -6.722229    12A     -6.721029
      13A     -1.314842    14A     -1.109486    15A     -1.076585
      16A     -0.947445    17A     -0.944582    18A     -0.921496
      19A     -0.819462    20A     -0.760522    21A     -0.669083
      22A     -0.640828    23A     -0.619740    24A     -0.612965
      25A     -0.580413    26A     -0.572946    27A     -0.554268
      28A     -0.551970    29A     -0.530931    30A     -0.521685
      31A     -0.513059    32A     -0.506034    33A     -0.491044
      34A     -0.488961    35A     -0.477685    36A     -0.396405
      37A     -0.358265

  @DF-RHF Final Energy:  -707.83727156199473

   => Energetics <=

    Nuclear Repulsion Energy =            513.3544380051278040
    One-Electron Energy =               -1990.0111366350549815
    Two-Electron Energy =                 768.8194270679324518
    Total Energy =                       -707.8372715619947257
  Basis Set: (AUG-CC-PVTZ AUX)
    Blend: AUG-CC-PVTZ-RI
    Molecular point group: c1

    Geometry (in Angstrom), charge = 0, multiplicity = 1:

       Center              X                  Y                   Z               Mass
    ------------   -----------------  -----------------  -----------------  -----------------
         S            0.015385669501    -0.551137600979    -0.455147852167    31.972071174400
         O           -0.247780330499    -1.719665600979     0.483225147833    15.994914619570
         C            1.385787069501     0.418905599021     0.272642747833    12.000000000000
         C           -1.352104330499     0.642520399021    -0.160695852167    12.000000000000
         C            1.684804669501     1.662692399021    -0.507698852167    12.000000000000
         C            2.617645669501    -0.580689600979     0.221004147833    12.000000000000
         C           -1.498921330499     0.964784399021     1.319525147833    12.000000000000
         C           -2.606034330499    -0.032368600979    -0.712615852167    12.000000000000
         H            1.164959669501     0.571380399021     1.302548147833     1.007825032230
         H           -1.120082330499     1.534982399021    -0.752771852167     1.007825032230
         H            2.629374669501     2.101617399021    -0.172388852167     1.007825032230
         H            1.772679669501     1.468161399021    -1.582089852167     1.007825032230
         H            0.899442669501     2.406638399021    -0.353441852167     1.007825032230
         H            2.376635669501    -1.512451600979     0.737172147833     1.007825032230
         H            3.477243669501    -0.116324600979     0.713360147833     1.007825032230
         H            2.898091669501    -0.814253600979    -0.811405852167     1.007825032230
         H           -2.465537330499     1.443081399021     1.503870147833     1.007825032230
         H           -1.457893330499     0.033145399021     1.892270147833     1.007825032230
         H           -0.718724330499     1.638847399021     1.681672147833     1.007825032230
         H           -2.499833330499    -0.271558600979    -1.775006852167     1.007825032230
         H           -3.468263330499     0.629772399021    -0.593022852167     1.007825032230
         H           -2.796322330499    -0.960055600979    -0.166537852167     1.007825032230

  Basis Set: AUG-CC-PVTZ
    Blend: AUG-CC-PVTZ
  Basis Set: (AUG-CC-PVTZ AUX)
    Blend: AUG-CC-PVTZ-JKFIT
	 Reference Energy          =    -707.8372715619947257 [Eh]
	 Singles Energy            =      -0.0000000000000000 [Eh]
	 Same-Spin Energy          =      -0.3879417689541785 [Eh]
	 Opposite-Spin Energy      =      -1.3087993956001820 [Eh]
	 Correlation Energy        =      -1.6967411645543606 [Eh]
	 Total Energy              =    -709.5340127265491219 [Eh]

	 ================> DF-SCS-MP2 Energies <==================
	-----------------------------------------------------------
	 SCS Same-Spin Scale       =       0.3333333333333333 [-]
	 SCS Opposite-Spin Scale   =       1.2000000000000000 [-]
	 SCS Same-Spin Energy      =      -0.1293139229847262 [Eh]
	 SCS Opposite-Spin Energy  =      -1.5705592747202184 [Eh]
	 SCS Correlation Energy    =      -1.6998731977049446 [Eh]
	 SCS Total Energy          =    -709.5371447596996859 [Eh]
	-----------------------------------------------------------

  Dipole Moment: [D]
     X:     0.5354      Y:     3.8667      Z:    -0.6636     Total:     3.9596

*** Psi4 exiting successfully. Buy a developer a beer!
