                               Psi4 1.3.2 release

  ==> Input File <==

--------------------------------------------------------------------------
#psi4
#
memory 32 gb

molecule  {
0 1
  S        0.1243115    -0.4727090    -0.3826229
  O       -0.2556540    -1.7702980     0.4735910
  C        1.4178950     0.3206530     0.2483930
  C       -1.3599780     0.5918880    -0.1703300
  C        1.6769310     1.6120600    -0.5173330
  C        2.6097720    -0.6313220     0.2113700
  C       -1.5067950     0.9141520     1.3098910
  C       -2.6139080    -0.0830010    -0.7222500
  H        1.1570860     0.5207480     1.2929140
  H       -1.1279560     1.4843500    -0.7624060
  H        2.6215010     2.0509850    -0.1820230
  H        1.7648060     1.4175290    -1.5917240
  H        0.8915690     2.3560060    -0.3630760
  H        2.3687620    -1.5630840     0.7275380
  H        3.4693700    -0.1669570     0.7037260
  H        2.8902180    -0.8648860    -0.8210400
  H       -2.4734110     1.3924490     1.4942360
  H       -1.4657670    -0.0174870     1.8826360
  H       -0.7265980     1.5882150     1.6720380
  H       -2.5077070    -0.3221910    -1.7846410
  H       -3.4761370     0.5791400    -0.6026570
  H       -2.8041960    -1.0106880    -0.1761720
units angstrom
no_reorient  #important for SAPT in psi4, default
symmetry c1  #important for SAPT in psi4, default
}

set PROPERTIES_ORIGIN ["COM"]
properties('MP2/aug-cc-pvtz', properties = ['dipole'])
--------------------------------------------------------------------------

    Molecular point group: c1
  Charge       = 0
  Multiplicity = 1
  Basis Set: AUG-CC-PVTZ
    Blend: AUG-CC-PVTZ
  Basis Set: (AUG-CC-PVTZ AUX)
    Blend: AUG-CC-PVTZ-JKFIT

    Orbital Energies [Eh]
    ---------------------

    Doubly Occupied:

       1A    -92.039731     2A    -20.488921     3A    -11.272578
       4A    -11.264553     5A    -11.247836     6A    -11.232900
       7A    -11.227030     8A    -11.225812     9A     -9.032045
      10A     -6.714041    11A     -6.713277    12A     -6.711943
      13A     -1.277462    14A     -1.134788    15A     -1.083706
      16A     -0.960157    17A     -0.946499    18A     -0.940572
      19A     -0.831243    20A     -0.755760    21A     -0.677868
      22A     -0.649479    23A     -0.626609    24A     -0.611063
      25A     -0.583960    26A     -0.573681    27A     -0.562408
      28A     -0.551255    29A     -0.526529    30A     -0.523478
      31A     -0.516833    32A     -0.505037    33A     -0.495779
      34A     -0.478648    35A     -0.465864    36A     -0.403474
      37A     -0.347253

  @DF-RHF Final Energy:  -707.81277999117572

   => Energetics <=

    Nuclear Repulsion Energy =            516.9720876687537157
    One-Electron Energy =               -1997.1695903007903325
    Two-Electron Energy =                 772.3847226408607867
    Total Energy =                       -707.8127799911757165
  Basis Set: (AUG-CC-PVTZ AUX)
    Blend: AUG-CC-PVTZ-RI
    Molecular point group: c1

    Geometry (in Angstrom), charge = 0, multiplicity = 1:

       Center              X                  Y                   Z               Mass
    ------------   -----------------  -----------------  -----------------  -----------------
         S            0.100754605697    -0.448590599457    -0.391272409111    31.972071174400
         O           -0.279210894303    -1.746179599457     0.464941490889    15.994914619570
         C            1.394338105697     0.344771400543     0.239743490889    12.000000000000
         C           -1.383534894303     0.616006400543    -0.178979509111    12.000000000000
         C            1.653374105697     1.636178400543    -0.525982509111    12.000000000000
         C            2.586215105697    -0.607203599457     0.202720490889    12.000000000000
         C           -1.530351894303     0.938270400543     1.301241490889    12.000000000000
         C           -2.637464894303    -0.058882599457    -0.730899509111    12.000000000000
         H            1.133529105697     0.544866400543     1.284264490889     1.007825032230
         H           -1.151512894303     1.508468400543    -0.771055509111     1.007825032230
         H            2.597944105697     2.075103400543    -0.190672509111     1.007825032230
         H            1.741249105697     1.441647400543    -1.600373509111     1.007825032230
         H            0.868012105697     2.380124400543    -0.371725509111     1.007825032230
         H            2.345205105697    -1.538965599457     0.718888490889     1.007825032230
         H            3.445813105697    -0.142838599457     0.695076490889     1.007825032230
         H            2.866661105697    -0.840767599457    -0.829689509111     1.007825032230
         H           -2.496967894303     1.416567400543     1.485586490889     1.007825032230
         H           -1.489323894303     0.006631400543     1.873986490889     1.007825032230
         H           -0.750154894303     1.612333400543     1.663388490889     1.007825032230
         H           -2.531263894303    -0.298072599457    -1.793290509111     1.007825032230
         H           -3.499693894303     0.603258400543    -0.611306509111     1.007825032230
         H           -2.827752894303    -0.986569599457    -0.184821509111     1.007825032230

  Basis Set: AUG-CC-PVTZ
    Blend: AUG-CC-PVTZ
  Basis Set: (AUG-CC-PVTZ AUX)
    Blend: AUG-CC-PVTZ-JKFIT
	 Reference Energy          =    -707.8127799911757165 [Eh]
	 Singles Energy            =      -0.0000000000000000 [Eh]
	 Same-Spin Energy          =      -0.3899065678735573 [Eh]
	 Opposite-Spin Energy      =      -1.3103537124840725 [Eh]
	 Correlation Energy        =      -1.7002602803576297 [Eh]
	 Total Energy              =    -709.5130402715333275 [Eh]

	 ================> DF-SCS-MP2 Energies <==================
	-----------------------------------------------------------
	 SCS Same-Spin Scale       =       0.3333333333333333 [-]
	 SCS Opposite-Spin Scale   =       1.2000000000000000 [-]
	 SCS Same-Spin Energy      =      -0.1299688559578524 [Eh]
	 SCS Opposite-Spin Energy  =      -1.5724244549808870 [Eh]
	 SCS Correlation Energy    =      -1.7023933109387395 [Eh]
	 SCS Total Energy          =    -709.5151733021144764 [Eh]
	-----------------------------------------------------------

  Dipole Moment: [D]
     X:     0.9797      Y:     4.4883      Z:    -0.5951     Total:     4.6324

*** Psi4 exiting successfully. Buy a developer a beer!
