                               Psi4 1.3.2 release

  ==> Input File <==

--------------------------------------------------------------------------
#psi4
#
memory 32 gb

molecule  {
0 1
  S        0.0075120    -0.6017700    -0.4647820
  O       -0.2556540    -1.7702980     0.4735910
  C        1.4372444     0.2964178     0.2407582
  C       -1.3599780     0.5918880    -0.1703300
  C        1.6769310     1.6120600    -0.5173330
  C        2.6097720    -0.6313220     0.2113700
  C       -1.5067950     0.9141520     1.3098910
  C       -2.6139080    -0.0830010    -0.7222500
  H        1.1570860     0.5207480     1.2929140
  H       -1.1279560     1.4843500    -0.7624060
  H        2.6215010     2.0509850    -0.1820230
  H        1.7648060     1.4175290    -1.5917240
  H        0.8915690     2.3560060    -0.3630760
  H        2.3687620    -1.5630840     0.7275380
  H        3.4693700    -0.1669570     0.7037260
  H        2.8902180    -0.8648860    -0.8210400
  H       -2.4734110     1.3924490     1.4942360
  H       -1.4657670    -0.0174870     1.8826360
  H       -0.7265980     1.5882150     1.6720380
  H       -2.5077070    -0.3221910    -1.7846410
  H       -3.4761370     0.5791400    -0.6026570
  H       -2.8041960    -1.0106880    -0.1761720
units angstrom
no_reorient  #important for SAPT in psi4, default
symmetry c1  #important for SAPT in psi4, default
}

set PROPERTIES_ORIGIN ["COM"]
properties('MP2/aug-cc-pvtz', properties = ['dipole'])
--------------------------------------------------------------------------

    Molecular point group: c1
  Charge       = 0
  Multiplicity = 1
  Basis Set: AUG-CC-PVTZ
    Blend: AUG-CC-PVTZ
  Basis Set: (AUG-CC-PVTZ AUX)
    Blend: AUG-CC-PVTZ-JKFIT

    Orbital Energies [Eh]
    ---------------------

    Doubly Occupied:

       1A    -92.051508     2A    -20.493927     3A    -11.268392
       4A    -11.268013     5A    -11.240369     6A    -11.226129
       7A    -11.226045     8A    -11.224141     9A     -9.039624
      10A     -6.721079    11A     -6.720937    12A     -6.719648
      13A     -1.313548    14A     -1.110117    15A     -1.080388
      16A     -0.953260    17A     -0.945041    18A     -0.921619
      19A     -0.816050    20A     -0.755888    21A     -0.669644
      22A     -0.643536    23A     -0.622511    24A     -0.610928
      25A     -0.579628    26A     -0.572898    27A     -0.556542
      28A     -0.553042    29A     -0.529777    30A     -0.520479
      31A     -0.513134    32A     -0.504489    33A     -0.494888
      34A     -0.489130    35A     -0.480169    36A     -0.398282
      37A     -0.353842

  @DF-RHF Final Energy:  -707.84023273989021

   => Energetics <=

    Nuclear Repulsion Energy =            513.3491817447319363
    One-Electron Energy =               -1990.0015428108872584
    Two-Electron Energy =                 768.8121283262649968
    Total Energy =                       -707.8402327398902116
  Basis Set: (AUG-CC-PVTZ AUX)
    Blend: AUG-CC-PVTZ-RI
    Molecular point group: c1

    Geometry (in Angstrom), charge = 0, multiplicity = 1:

       Center              X                  Y                   Z               Mass
    ------------   -----------------  -----------------  -----------------  -----------------
         S            0.010075478621    -0.544706462287    -0.453156416474    31.972071174400
         O           -0.253090521379    -1.713234462287     0.485216583526    15.994914619570
         C            1.439807878621     0.353481337713     0.252383783526    12.000000000000
         C           -1.357414521379     0.648951537713    -0.158704416474    12.000000000000
         C            1.679494478621     1.669123537713    -0.505707416474    12.000000000000
         C            2.612335478621    -0.574258462287     0.222995583526    12.000000000000
         C           -1.504231521379     0.971215537713     1.321516583526    12.000000000000
         C           -2.611344521379    -0.025937462287    -0.710624416474    12.000000000000
         H            1.159649478621     0.577811537713     1.304539583526     1.007825032230
         H           -1.125392521379     1.541413537713    -0.750780416474     1.007825032230
         H            2.624064478621     2.108048537713    -0.170397416474     1.007825032230
         H            1.767369478621     1.474592537713    -1.580098416474     1.007825032230
         H            0.894132478621     2.413069537713    -0.351450416474     1.007825032230
         H            2.371325478621    -1.506020462287     0.739163583526     1.007825032230
         H            3.471933478621    -0.109893462287     0.715351583526     1.007825032230
         H            2.892781478621    -0.807822462287    -0.809414416474     1.007825032230
         H           -2.470847521379     1.449512537713     1.505861583526     1.007825032230
         H           -1.463203521379     0.039576537713     1.894261583526     1.007825032230
         H           -0.724034521379     1.645278537713     1.683663583526     1.007825032230
         H           -2.505143521379    -0.265127462287    -1.773015416474     1.007825032230
         H           -3.473573521379     0.636203537713    -0.591031416474     1.007825032230
         H           -2.801632521379    -0.953624462287    -0.164546416474     1.007825032230

  Basis Set: AUG-CC-PVTZ
    Blend: AUG-CC-PVTZ
  Basis Set: (AUG-CC-PVTZ AUX)
    Blend: AUG-CC-PVTZ-JKFIT
	 Reference Energy          =    -707.8402327398902116 [Eh]
	 Singles Energy            =      -0.0000000000000000 [Eh]
	 Same-Spin Energy          =      -0.3878693645154054 [Eh]
	 Opposite-Spin Energy      =      -1.3082756239317119 [Eh]
	 Correlation Energy        =      -1.6961449884471174 [Eh]
	 Total Energy              =    -709.5363777283373565 [Eh]

	 ================> DF-SCS-MP2 Energies <==================
	-----------------------------------------------------------
	 SCS Same-Spin Scale       =       0.3333333333333333 [-]
	 SCS Opposite-Spin Scale   =       1.2000000000000000 [-]
	 SCS Same-Spin Energy      =      -0.1292897881718018 [Eh]
	 SCS Opposite-Spin Energy  =      -1.5699307487180543 [Eh]
	 SCS Correlation Energy    =      -1.6992205368898561 [Eh]
	 SCS Total Energy          =    -709.5394532767800229 [Eh]
	-----------------------------------------------------------

  Dipole Moment: [D]
     X:     0.5479      Y:     3.8923      Z:    -0.6452     Total:     3.9832

*** Psi4 exiting successfully. Buy a developer a beer!
