                               Psi4 1.4a3.dev225

  ==> Input File <==

--------------------------------------------------------------------------
#psi4
#
memory 32 gb

molecule  {
0 1
  S        0.0075060    -0.6017520    -0.4647870
  O       -0.2556300    -1.7703020     0.4735710
  C        1.4178840     0.3206660     0.2483950
  C       -1.3451030     0.5788958    -0.1735405
  C        1.6769860     1.6120510    -0.5173440
  C        2.6097490    -0.6313490     0.2114050
  C       -1.5068220     0.9141660     1.3098780
  C       -2.6139150    -0.0830150    -0.7222310
  H        1.1570720     0.5207860     1.2929090
  H       -1.1279920     1.4843500    -0.7624100
  H        2.6214640     2.0510430    -0.1818700
  H        1.7650720     1.4174690    -1.5917100
  H        0.8915570     2.3559690    -0.3632840
  H        2.3687570    -1.5630370     0.7277090
  H        3.4693900    -0.1669130     0.7036130
  H        2.8901120    -0.8650600    -0.8209970
  H       -2.4734430     1.3924660     1.4941730
  H       -1.4657910    -0.0174610     1.8826380
  H       -0.7266330     1.5882370     1.6720420
  H       -2.5077120    -0.3222990    -1.7846030
  H       -3.4761170     0.5791690    -0.6027030
  H       -2.8042390    -1.0106520    -0.1760810
units angstrom
no_reorient  #important for SAPT in psi4, default
symmetry c1  #important for SAPT in psi4, default
}

set PROPERTIES_ORIGIN ["COM"]
properties('MP2/aug-cc-pvtz', properties = ['dipole'])
--------------------------------------------------------------------------

    Molecular point group: c1
  Charge       = 0
  Multiplicity = 1
  Basis Set: AUG-CC-PVTZ
    Blend: AUG-CC-PVTZ
  Basis Set: (AUG-CC-PVTZ AUX)
    Blend: AUG-CC-PVTZ-JKFIT

    Orbital Energies [Eh]
    ---------------------

    Doubly Occupied:

       1A    -92.052653     2A    -20.494702     3A    -11.267539
       4A    -11.267285     5A    -11.239878     6A    -11.226171
       7A    -11.225981     8A    -11.225479     9A     -9.040812
      10A     -6.722321    11A     -6.722103    12A     -6.720840
      13A     -1.314704    14A     -1.110091    15A     -1.078117
      16A     -0.951336    17A     -0.943770    18A     -0.923566
      19A     -0.817618    20A     -0.756736    21A     -0.670232
      22A     -0.642016    23A     -0.621080    24A     -0.611391
      25A     -0.578906    26A     -0.573429    27A     -0.555950
      28A     -0.551996    29A     -0.530754    30A     -0.520474
      31A     -0.512331    32A     -0.503427    33A     -0.493298
      34A     -0.487286    35A     -0.482679    36A     -0.399913
      37A     -0.356232

  @DF-RHF Final Energy:  -707.84098232580982

   => Energetics <=

    Nuclear Repulsion Energy =            513.6573781471062148
    One-Electron Energy =               -1990.6105280464778389
    Two-Electron Energy =                 769.1121675735616918
    Total Energy =                       -707.8409823258098186
  Basis Set: (AUG-CC-PVTZ AUX)
    Blend: AUG-CC-PVTZ-RI
    Molecular point group: c1

    Geometry (in Angstrom), charge = 0, multiplicity = 1:

       Center              X                  Y                   Z               Mass
    ------------   -----------------  -----------------  -----------------  -----------------
         S            0.010469996806    -0.545696013916    -0.453557260857    31.972071174400
         O           -0.252666003194    -1.714246013916     0.484800739143    15.994914619570
         C            1.420847996806     0.376721986084     0.259624739143    12.000000000000
         C           -1.342139003194     0.634951786084    -0.162310760857    12.000000000000
         C            1.679949996806     1.668106986084    -0.506114260857    12.000000000000
         C            2.612712996806    -0.575293013916     0.222634739143    12.000000000000
         C           -1.503858003194     0.970221986084     1.321107739143    12.000000000000
         C           -2.610951003194    -0.026959013916    -0.711001260857    12.000000000000
         H            1.160035996806     0.576841986084     1.304138739143     1.007825032230
         H           -1.125028003194     1.540405986084    -0.751180260857     1.007825032230
         H            2.624427996806     2.107098986084    -0.170640260857     1.007825032230
         H            1.768035996806     1.473524986084    -1.580480260857     1.007825032230
         H            0.894520996806     2.412024986084    -0.352054260857     1.007825032230
         H            2.371720996806    -1.506981013916     0.738938739143     1.007825032230
         H            3.472353996806    -0.110857013916     0.714842739143     1.007825032230
         H            2.893075996806    -0.809004013916    -0.809767260857     1.007825032230
         H           -2.470479003194     1.448521986084     1.505402739143     1.007825032230
         H           -1.462827003194     0.038594986084     1.893867739143     1.007825032230
         H           -0.723669003194     1.644292986084     1.683271739143     1.007825032230
         H           -2.504748003194    -0.266243013916    -1.773373260857     1.007825032230
         H           -3.473153003194     0.635224986084    -0.591473260857     1.007825032230
         H           -2.801275003194    -0.954596013916    -0.164851260857     1.007825032230

  Basis Set: AUG-CC-PVTZ
    Blend: AUG-CC-PVTZ
  Basis Set: (AUG-CC-PVTZ AUX)
    Blend: AUG-CC-PVTZ-JKFIT
	 Reference Energy          =    -707.8409823258098186 [Eh]
	 Singles Energy            =      -0.0000000000000000 [Eh]
	 Same-Spin Energy          =      -0.3877588051903652 [Eh]
	 Opposite-Spin Energy      =      -1.3081887673688324 [Eh]
	 Correlation Energy        =      -1.6959475725591975 [Eh]
	 Total Energy              =    -709.5369298983690669 [Eh]

	 ================> DF-SCS-MP2 Energies <==================
	-----------------------------------------------------------
	 SCS Same-Spin Scale       =       0.3333333333333333 [-]
	 SCS Opposite-Spin Scale   =       1.2000000000000000 [-]
	 SCS Same-Spin Energy      =      -0.1292529350634550 [Eh]
	 SCS Opposite-Spin Energy  =      -1.5698265208425988 [Eh]
	 SCS Correlation Energy    =      -1.6990794559060538 [Eh]
	 SCS Total Energy          =    -709.5400617817158491 [Eh]
	-----------------------------------------------------------

  Dipole Moment: [D]
     X:     0.5460      Y:     3.8903      Z:    -0.6523     Total:     3.9822

*** Psi4 exiting successfully. Buy a developer a beer!
