                               Psi4 1.3.2 release

  ==> Input File <==

--------------------------------------------------------------------------
#psi4
#
memory 32 gb

molecule  {
0 1
  S        0.0075120    -0.6017700    -0.4647820
  O       -0.3848407    -1.6910429     0.5225385
  C        1.4178950     0.3206530     0.2483930
  C       -1.3599780     0.5918880    -0.1703300
  C        1.6769310     1.6120600    -0.5173330
  C        2.6097720    -0.6313220     0.2113700
  C       -1.5067950     0.9141520     1.3098910
  C       -2.6139080    -0.0830010    -0.7222500
  H        1.1570860     0.5207480     1.2929140
  H       -1.1279560     1.4843500    -0.7624060
  H        2.6215010     2.0509850    -0.1820230
  H        1.7648060     1.4175290    -1.5917240
  H        0.8915690     2.3560060    -0.3630760
  H        2.3687620    -1.5630840     0.7275380
  H        3.4693700    -0.1669570     0.7037260
  H        2.8902180    -0.8648860    -0.8210400
  H       -2.4734110     1.3924490     1.4942360
  H       -1.4657670    -0.0174870     1.8826360
  H       -0.7265980     1.5882150     1.6720380
  H       -2.5077070    -0.3221910    -1.7846410
  H       -3.4761370     0.5791400    -0.6026570
  H       -2.8041960    -1.0106880    -0.1761720
units angstrom
no_reorient  #important for SAPT in psi4, default
symmetry c1  #important for SAPT in psi4, default
}

set PROPERTIES_ORIGIN ["COM"]
properties('MP2/aug-cc-pvtz', properties = ['dipole'])
--------------------------------------------------------------------------

    Molecular point group: c1
  Charge       = 0
  Multiplicity = 1
  Basis Set: AUG-CC-PVTZ
    Blend: AUG-CC-PVTZ
  Basis Set: (AUG-CC-PVTZ AUX)
    Blend: AUG-CC-PVTZ-JKFIT

    Orbital Energies [Eh]
    ---------------------

    Doubly Occupied:

       1A    -92.052840     2A    -20.491370     3A    -11.268051
       4A    -11.264707     5A    -11.241030     6A    -11.227995
       7A    -11.222420     8A    -11.222260     9A     -9.040940
      10A     -6.722364    11A     -6.722195    12A     -6.720889
      13A     -1.314229    14A     -1.108371    15A     -1.076944
      16A     -0.953067    17A     -0.941691    18A     -0.921277
      19A     -0.816572    20A     -0.756754    21A     -0.668132
      22A     -0.642761    23A     -0.620296    24A     -0.612415
      25A     -0.579015    26A     -0.571847    27A     -0.557133
      28A     -0.551171    29A     -0.529093    30A     -0.517698
      31A     -0.511903    32A     -0.503952    33A     -0.493739
      34A     -0.485253    35A     -0.480970    36A     -0.395386
      37A     -0.357635

  @DF-RHF Final Energy:  -707.83880999916312

   => Energetics <=

    Nuclear Repulsion Energy =            514.2881197885734537
    One-Electron Energy =               -1991.9251271782500226
    Two-Electron Energy =                 769.7981973905133373
    Total Energy =                       -707.8388099991631179
  Basis Set: (AUG-CC-PVTZ AUX)
    Blend: AUG-CC-PVTZ-RI
    Molecular point group: c1

    Geometry (in Angstrom), charge = 0, multiplicity = 1:

       Center              X                  Y                   Z               Mass
    ------------   -----------------  -----------------  -----------------  -----------------
         S            0.027218843902    -0.556330427235    -0.459679024439    31.972071174400
         O           -0.365133856098    -1.645603327235     0.527641475561    15.994914619570
         C            1.437601843902     0.366092572765     0.253495975561    12.000000000000
         C           -1.340271156098     0.637327572765    -0.165227024439    12.000000000000
         C            1.696637843902     1.657499572765    -0.512230024439    12.000000000000
         C            2.629478843902    -0.585882427235     0.216472975561    12.000000000000
         C           -1.487088156098     0.959591572765     1.314993975561    12.000000000000
         C           -2.594201156098    -0.037561427235    -0.717147024439    12.000000000000
         H            1.176792843902     0.566187572765     1.298016975561     1.007825032230
         H           -1.108249156098     1.529789572765    -0.757303024439     1.007825032230
         H            2.641207843902     2.096424572765    -0.176920024439     1.007825032230
         H            1.784512843902     1.462968572765    -1.586621024439     1.007825032230
         H            0.911275843902     2.401445572765    -0.357973024439     1.007825032230
         H            2.388468843902    -1.517644427235     0.732640975561     1.007825032230
         H            3.489076843902    -0.121517427235     0.708828975561     1.007825032230
         H            2.909924843902    -0.819446427235    -0.815937024439     1.007825032230
         H           -2.453704156098     1.437888572765     1.499338975561     1.007825032230
         H           -1.446060156098     0.027952572765     1.887738975561     1.007825032230
         H           -0.706891156098     1.633654572765     1.677140975561     1.007825032230
         H           -2.488000156098    -0.276751427235    -1.779538024439     1.007825032230
         H           -3.456430156098     0.624579572765    -0.597554024439     1.007825032230
         H           -2.784489156098    -0.965248427235    -0.171069024439     1.007825032230

  Basis Set: AUG-CC-PVTZ
    Blend: AUG-CC-PVTZ
  Basis Set: (AUG-CC-PVTZ AUX)
    Blend: AUG-CC-PVTZ-JKFIT
	 Reference Energy          =    -707.8388099991631179 [Eh]
	 Singles Energy            =      -0.0000000000000000 [Eh]
	 Same-Spin Energy          =      -0.3881071027726457 [Eh]
	 Opposite-Spin Energy      =      -1.3086540376736462 [Eh]
	 Correlation Energy        =      -1.6967611404462919 [Eh]
	 Total Energy              =    -709.5355711396093739 [Eh]

	 ================> DF-SCS-MP2 Energies <==================
	-----------------------------------------------------------
	 SCS Same-Spin Scale       =       0.3333333333333333 [-]
	 SCS Opposite-Spin Scale   =       1.2000000000000000 [-]
	 SCS Same-Spin Energy      =      -0.1293690342575486 [Eh]
	 SCS Opposite-Spin Energy  =      -1.5703848452083753 [Eh]
	 SCS Correlation Energy    =      -1.6997538794659239 [Eh]
	 SCS Total Energy          =    -709.5385638786290201 [Eh]
	-----------------------------------------------------------

  Dipole Moment: [D]
     X:     0.8800      Y:     3.7249      Z:    -0.7696     Total:     3.9041

*** Psi4 exiting successfully. Buy a developer a beer!
