                               Psi4 1.4a3.dev225

  ==> Input File <==

--------------------------------------------------------------------------
#psi4
#
memory 32 gb

molecule  {
0 1
  S        0.0075060    -0.6017520    -0.4647870
  O       -0.2469833    -1.7319033     0.4427364
  C        1.4178840     0.3206660     0.2483950
  C       -1.3599760     0.5918780    -0.1703380
  C        1.6769860     1.6120510    -0.5173440
  C        2.6097490    -0.6313490     0.2114050
  C       -1.5068220     0.9141660     1.3098780
  C       -2.6139150    -0.0830150    -0.7222310
  H        1.1570720     0.5207860     1.2929090
  H       -1.1279920     1.4843500    -0.7624100
  H        2.6214640     2.0510430    -0.1818700
  H        1.7650720     1.4174690    -1.5917100
  H        0.8915570     2.3559690    -0.3632840
  H        2.3687570    -1.5630370     0.7277090
  H        3.4693900    -0.1669130     0.7036130
  H        2.8901120    -0.8650600    -0.8209970
  H       -2.4734430     1.3924660     1.4941730
  H       -1.4657910    -0.0174610     1.8826380
  H       -0.7266330     1.5882370     1.6720420
  H       -2.5077120    -0.3222990    -1.7846030
  H       -3.4761170     0.5791690    -0.6027030
  H       -2.8042390    -1.0106520    -0.1760810
units angstrom
no_reorient  #important for SAPT in psi4, default
symmetry c1  #important for SAPT in psi4, default
}

set PROPERTIES_ORIGIN ["COM"]
properties('MP2/aug-cc-pvtz', properties = ['dipole'])
--------------------------------------------------------------------------

    Molecular point group: c1
  Charge       = 0
  Multiplicity = 1
  Basis Set: AUG-CC-PVTZ
    Blend: AUG-CC-PVTZ
  Basis Set: (AUG-CC-PVTZ AUX)
    Blend: AUG-CC-PVTZ-JKFIT

    Orbital Energies [Eh]
    ---------------------

    Doubly Occupied:

       1A    -92.050397     2A    -20.494565     3A    -11.263978
       4A    -11.263278     5A    -11.237890     6A    -11.225216
       7A    -11.224961     8A    -11.224547     9A     -9.038793
      10A     -6.720330    11A     -6.720194    12A     -6.718839
      13A     -1.342970    14A     -1.107878    15A     -1.077369
      16A     -0.949868    17A     -0.943957    18A     -0.917515
      19A     -0.815918    20A     -0.755115    21A     -0.670565
      22A     -0.641282    23A     -0.622202    24A     -0.614616
      25A     -0.578579    26A     -0.573893    27A     -0.555239
      28A     -0.552885    29A     -0.534738    30A     -0.525637
      31A     -0.513988    32A     -0.503335    33A     -0.497387
      34A     -0.488588    35A     -0.487008    36A     -0.398346
      37A     -0.351762

  @DF-RHF Final Energy:  -707.84277284636789

   => Energetics <=

    Nuclear Repulsion Energy =            515.4980190753842635
    One-Electron Energy =               -1994.2743339278072199
    Two-Electron Energy =                 770.9335420060550632
    Total Energy =                       -707.8427728463678932
  Basis Set: (AUG-CC-PVTZ AUX)
    Blend: AUG-CC-PVTZ-RI
    Molecular point group: c1

    Geometry (in Angstrom), charge = 0, multiplicity = 1:

       Center              X                  Y                   Z               Mass
    ------------   -----------------  -----------------  -----------------  -----------------
         S            0.010769622474    -0.551438781066    -0.450165416117    31.972071174400
         O           -0.243719677526    -1.681590081066     0.457357983883    15.994914619570
         C            1.421147622474     0.370979218934     0.263016583883    12.000000000000
         C           -1.356712377526     0.642191218934    -0.155716416117    12.000000000000
         C            1.680249622474     1.662364218934    -0.502722416117    12.000000000000
         C            2.613012622474    -0.581035781066     0.226026583883    12.000000000000
         C           -1.503558377526     0.964479218934     1.324499583883    12.000000000000
         C           -2.610651377526    -0.032701781066    -0.707609416117    12.000000000000
         H            1.160335622474     0.571099218934     1.307530583883     1.007825032230
         H           -1.124728377526     1.534663218934    -0.747788416117     1.007825032230
         H            2.624727622474     2.101356218934    -0.167248416117     1.007825032230
         H            1.768335622474     1.467782218934    -1.577088416117     1.007825032230
         H            0.894820622474     2.406282218934    -0.348662416117     1.007825032230
         H            2.372020622474    -1.512723781066     0.742330583883     1.007825032230
         H            3.472653622474    -0.116599781066     0.718234583883     1.007825032230
         H            2.893375622474    -0.814746781066    -0.806375416117     1.007825032230
         H           -2.470179377526     1.442779218934     1.508794583883     1.007825032230
         H           -1.462527377526     0.032852218934     1.897259583883     1.007825032230
         H           -0.723369377526     1.638550218934     1.686663583883     1.007825032230
         H           -2.504448377526    -0.271985781066    -1.769981416117     1.007825032230
         H           -3.472853377526     0.629482218934    -0.588081416117     1.007825032230
         H           -2.800975377526    -0.960338781066    -0.161459416117     1.007825032230

  Basis Set: AUG-CC-PVTZ
    Blend: AUG-CC-PVTZ
  Basis Set: (AUG-CC-PVTZ AUX)
    Blend: AUG-CC-PVTZ-JKFIT
	 Reference Energy          =    -707.8427728463678932 [Eh]
	 Singles Energy            =      -0.0000000000000000 [Eh]
	 Same-Spin Energy          =      -0.3871577281554138 [Eh]
	 Opposite-Spin Energy      =      -1.3063225282085926 [Eh]
	 Correlation Energy        =      -1.6934802563640063 [Eh]
	 Total Energy              =    -709.5362531027318482 [Eh]

	 ================> DF-SCS-MP2 Energies <==================
	-----------------------------------------------------------
	 SCS Same-Spin Scale       =       0.3333333333333333 [-]
	 SCS Opposite-Spin Scale   =       1.2000000000000000 [-]
	 SCS Same-Spin Energy      =      -0.1290525760518046 [Eh]
	 SCS Opposite-Spin Energy  =      -1.5675870338503111 [Eh]
	 SCS Correlation Energy    =      -1.6966396099021157 [Eh]
	 SCS Total Energy          =    -709.5394124562700426 [Eh]
	-----------------------------------------------------------

  Dipole Moment: [D]
     X:     0.4956      Y:     3.6258      Z:    -0.5405     Total:     3.6993

*** Psi4 exiting successfully. Buy a developer a beer!
