                               Psi4 1.3.2 release

  ==> Input File <==

--------------------------------------------------------------------------
#psi4
#
memory 32 gb

molecule  {
0 1
  S        0.0075120    -0.6017700    -0.4647820
  O       -0.2210632    -1.6167057     0.3502505
  C        1.4178950     0.3206530     0.2483930
  C       -1.3599780     0.5918880    -0.1703300
  C        1.6769310     1.6120600    -0.5173330
  C        2.6097720    -0.6313220     0.2113700
  C       -1.5067950     0.9141520     1.3098910
  C       -2.6139080    -0.0830010    -0.7222500
  H        1.1570860     0.5207480     1.2929140
  H       -1.1279560     1.4843500    -0.7624060
  H        2.6215010     2.0509850    -0.1820230
  H        1.7648060     1.4175290    -1.5917240
  H        0.8915690     2.3560060    -0.3630760
  H        2.3687620    -1.5630840     0.7275380
  H        3.4693700    -0.1669570     0.7037260
  H        2.8902180    -0.8648860    -0.8210400
  H       -2.4734110     1.3924490     1.4942360
  H       -1.4657670    -0.0174870     1.8826360
  H       -0.7265980     1.5882150     1.6720380
  H       -2.5077070    -0.3221910    -1.7846410
  H       -3.4761370     0.5791400    -0.6026570
  H       -2.8041960    -1.0106880    -0.1761720
units angstrom
no_reorient  #important for SAPT in psi4, default
symmetry c1  #important for SAPT in psi4, default
}

set PROPERTIES_ORIGIN ["COM"]
properties('MP2/aug-cc-pvtz', properties = ['dipole'])
--------------------------------------------------------------------------

    Molecular point group: c1
  Charge       = 0
  Multiplicity = 1
  Basis Set: AUG-CC-PVTZ
    Blend: AUG-CC-PVTZ
  Basis Set: (AUG-CC-PVTZ AUX)
    Blend: AUG-CC-PVTZ-JKFIT

    Orbital Energies [Eh]
    ---------------------

    Doubly Occupied:

       1A    -92.038750     2A    -20.497356     3A    -11.250698
       4A    -11.250215     5A    -11.231001     6A    -11.222649
       7A    -11.222413     8A    -11.222299     9A     -9.031861
      10A     -6.715110    11A     -6.712340    12A     -6.711158
      13A     -1.446798    14A     -1.101311    15A     -1.072339
      16A     -0.945349    17A     -0.940928    18A     -0.904307
      19A     -0.812529    20A     -0.748177    21A     -0.681344
      22A     -0.640033    23A     -0.636584    24A     -0.624959
      25A     -0.587483    26A     -0.577344    27A     -0.559084
      28A     -0.550597    29A     -0.546719    30A     -0.538939
      31A     -0.531911    32A     -0.499439    33A     -0.498656
      34A     -0.489572    35A     -0.485490    36A     -0.397893
      37A     -0.339497

  @DF-RHF Final Energy:  -707.80813882348866

   => Energetics <=

    Nuclear Repulsion Energy =            522.6597799805900877
    One-Electron Energy =               -2008.4095738779155909
    Two-Electron Energy =                 777.9416550738369551
    Total Energy =                       -707.8081388234886617
  Basis Set: (AUG-CC-PVTZ AUX)
    Blend: AUG-CC-PVTZ-RI
    Molecular point group: c1

    Geometry (in Angstrom), charge = 0, multiplicity = 1:

       Center              X                  Y                   Z               Mass
    ------------   -----------------  -----------------  -----------------  -----------------
         S            0.007680696494    -0.565198624463    -0.439125600797    31.972071174400
         O           -0.220894503506    -1.580134324463     0.375906899203    15.994914619570
         C            1.418063696494     0.357224375537     0.274049399203    12.000000000000
         C           -1.359809303506     0.628459375537    -0.144673600797    12.000000000000
         C            1.677099696494     1.648631375537    -0.491676600797    12.000000000000
         C            2.609940696494    -0.594750624463     0.237026399203    12.000000000000
         C           -1.506626303506     0.950723375537     1.335547399203    12.000000000000
         C           -2.613739303506    -0.046429624463    -0.696593600797    12.000000000000
         H            1.157254696494     0.557319375537     1.318570399203     1.007825032230
         H           -1.127787303506     1.520921375537    -0.736749600797     1.007825032230
         H            2.621669696494     2.087556375537    -0.156366600797     1.007825032230
         H            1.764974696494     1.454100375537    -1.566067600797     1.007825032230
         H            0.891737696494     2.392577375537    -0.337419600797     1.007825032230
         H            2.368930696494    -1.526512624463     0.753194399203     1.007825032230
         H            3.469538696494    -0.130385624463     0.729382399203     1.007825032230
         H            2.890386696494    -0.828314624463    -0.795383600797     1.007825032230
         H           -2.473242303506     1.429020375537     1.519892399203     1.007825032230
         H           -1.465598303506     0.019084375537     1.908292399203     1.007825032230
         H           -0.726429303506     1.624786375537     1.697694399203     1.007825032230
         H           -2.507538303506    -0.285619624463    -1.758984600797     1.007825032230
         H           -3.475968303506     0.615711375537    -0.577000600797     1.007825032230
         H           -2.804027303506    -0.974116624463    -0.150515600797     1.007825032230

  Basis Set: AUG-CC-PVTZ
    Blend: AUG-CC-PVTZ
  Basis Set: (AUG-CC-PVTZ AUX)
    Blend: AUG-CC-PVTZ-JKFIT
	 Reference Energy          =    -707.8081388234886617 [Eh]
	 Singles Energy            =      -0.0000000000000000 [Eh]
	 Same-Spin Energy          =      -0.3845020721652835 [Eh]
	 Opposite-Spin Energy      =      -1.2997231287831381 [Eh]
	 Correlation Energy        =      -1.6842252009484215 [Eh]
	 Total Energy              =    -709.4923640244370517 [Eh]

	 ================> DF-SCS-MP2 Energies <==================
	-----------------------------------------------------------
	 SCS Same-Spin Scale       =       0.3333333333333333 [-]
	 SCS Opposite-Spin Scale   =       1.2000000000000000 [-]
	 SCS Same-Spin Energy      =      -0.1281673573884278 [Eh]
	 SCS Opposite-Spin Energy  =      -1.5596677545397657 [Eh]
	 SCS Correlation Energy    =      -1.6878351119281936 [Eh]
	 SCS Total Energy          =    -709.4959739354168278 [Eh]
	-----------------------------------------------------------

  Dipole Moment: [D]
     X:     0.3387      Y:     2.7926      Z:    -0.1930     Total:     2.8197

*** Psi4 exiting successfully. Buy a developer a beer!
