                               Psi4 1.3.2 release

  ==> Input File <==

--------------------------------------------------------------------------
#psi4
#
memory 32 gb

molecule  {
0 1
  S        0.0075120    -0.6017700    -0.4647820
  O       -0.2556540    -1.7702980     0.4735910
  C        1.4178950     0.3206530     0.2483930
  C       -1.5087072     0.7217111    -0.1383052
  C        1.6769310     1.6120600    -0.5173330
  C        2.6097720    -0.6313220     0.2113700
  C       -1.5067950     0.9141520     1.3098910
  C       -2.6139080    -0.0830010    -0.7222500
  H        1.1570860     0.5207480     1.2929140
  H       -1.1279560     1.4843500    -0.7624060
  H        2.6215010     2.0509850    -0.1820230
  H        1.7648060     1.4175290    -1.5917240
  H        0.8915690     2.3560060    -0.3630760
  H        2.3687620    -1.5630840     0.7275380
  H        3.4693700    -0.1669570     0.7037260
  H        2.8902180    -0.8648860    -0.8210400
  H       -2.4734110     1.3924490     1.4942360
  H       -1.4657670    -0.0174870     1.8826360
  H       -0.7265980     1.5882150     1.6720380
  H       -2.5077070    -0.3221910    -1.7846410
  H       -3.4761370     0.5791400    -0.6026570
  H       -2.8041960    -1.0106880    -0.1761720
units angstrom
no_reorient  #important for SAPT in psi4, default
symmetry c1  #important for SAPT in psi4, default
}

set PROPERTIES_ORIGIN ["COM"]
properties('MP2/aug-cc-pvtz', properties = ['dipole'])
--------------------------------------------------------------------------

    Molecular point group: c1
  Charge       = 0
  Multiplicity = 1
  Basis Set: AUG-CC-PVTZ
    Blend: AUG-CC-PVTZ
  Basis Set: (AUG-CC-PVTZ AUX)
    Blend: AUG-CC-PVTZ-JKFIT

    Orbital Energies [Eh]
    ---------------------

    Doubly Occupied:

       1A    -92.039086     2A    -20.492103     3A    -11.277142
       4A    -11.262782     5A    -11.238283     6A    -11.228412
       7A    -11.228064     8A    -11.221567     9A     -9.027193
      10A     -6.708431    11A     -6.708126    12A     -6.707061
      13A     -1.305788    14A     -1.109804    15A     -1.085671
      16A     -0.959106    17A     -0.948155    18A     -0.904825
      19A     -0.814755    20A     -0.761861    21A     -0.660811
      22A     -0.653816    23A     -0.624485    24A     -0.610708
      25A     -0.582006    26A     -0.575652    27A     -0.559152
      28A     -0.552584    29A     -0.529041    30A     -0.523305
      31A     -0.513908    32A     -0.512829    33A     -0.498133
      34A     -0.485043    35A     -0.479870    36A     -0.377255
      37A     -0.334374

  @DF-RHF Final Energy:  -707.81613852455905

   => Energetics <=

    Nuclear Repulsion Energy =            510.3396305392177510
    One-Electron Energy =               -1984.1091683412523707
    Two-Electron Energy =                 765.9533992774755689
    Total Energy =                       -707.8161385245590509
  Basis Set: (AUG-CC-PVTZ AUX)
    Blend: AUG-CC-PVTZ-RI
    Molecular point group: c1

    Geometry (in Angstrom), charge = 0, multiplicity = 1:

       Center              X                  Y                   Z               Mass
    ------------   -----------------  -----------------  -----------------  -----------------
         S            0.025118701369    -0.558494852499    -0.456705995045    31.972071174400
         O           -0.238047298631    -1.727022852499     0.481667004955    15.994914619570
         C            1.435501701369     0.363928147501     0.256469004955    12.000000000000
         C           -1.491100498631     0.764986247501    -0.130229195045    12.000000000000
         C            1.694537701369     1.655335147501    -0.509256995045    12.000000000000
         C            2.627378701369    -0.588046852499     0.219446004955    12.000000000000
         C           -1.489188298631     0.957427147501     1.317967004955    12.000000000000
         C           -2.596301298631    -0.039725852499    -0.714173995045    12.000000000000
         H            1.174692701369     0.564023147501     1.300990004955     1.007825032230
         H           -1.110349298631     1.527625147501    -0.754329995045     1.007825032230
         H            2.639107701369     2.094260147501    -0.173946995045     1.007825032230
         H            1.782412701369     1.460804147501    -1.583647995045     1.007825032230
         H            0.909175701369     2.399281147501    -0.354999995045     1.007825032230
         H            2.386368701369    -1.519808852499     0.735614004955     1.007825032230
         H            3.486976701369    -0.123681852499     0.711802004955     1.007825032230
         H            2.907824701369    -0.821610852499    -0.812963995045     1.007825032230
         H           -2.455804298631     1.435724147501     1.502312004955     1.007825032230
         H           -1.448160298631     0.025788147501     1.890712004955     1.007825032230
         H           -0.708991298631     1.631490147501     1.680114004955     1.007825032230
         H           -2.490100298631    -0.278915852499    -1.776564995045     1.007825032230
         H           -3.458530298631     0.622415147501    -0.594580995045     1.007825032230
         H           -2.786589298631    -0.967412852499    -0.168095995045     1.007825032230

  Basis Set: AUG-CC-PVTZ
    Blend: AUG-CC-PVTZ
  Basis Set: (AUG-CC-PVTZ AUX)
    Blend: AUG-CC-PVTZ-JKFIT
	 Reference Energy          =    -707.8161385245590509 [Eh]
	 Singles Energy            =      -0.0000000000000000 [Eh]
	 Same-Spin Energy          =      -0.3898902709045370 [Eh]
	 Opposite-Spin Energy      =      -1.3118601778258092 [Eh]
	 Correlation Energy        =      -1.7017504487303463 [Eh]
	 Total Energy              =    -709.5178889732893595 [Eh]

	 ================> DF-SCS-MP2 Energies <==================
	-----------------------------------------------------------
	 SCS Same-Spin Scale       =       0.3333333333333333 [-]
	 SCS Opposite-Spin Scale   =       1.2000000000000000 [-]
	 SCS Same-Spin Energy      =      -0.1299634236348456 [Eh]
	 SCS Opposite-Spin Energy  =      -1.5742322133909710 [Eh]
	 SCS Correlation Energy    =      -1.7041956370258167 [Eh]
	 SCS Total Energy          =    -709.5203341615848558 [Eh]
	-----------------------------------------------------------

  Dipole Moment: [D]
     X:     0.4421      Y:     3.8574      Z:    -0.6213     Total:     3.9320

*** Psi4 exiting successfully. Buy a developer a beer!
