                               Psi4 1.3.2 release

  ==> Input File <==

--------------------------------------------------------------------------
#psi4
#
memory 32 gb

molecule  {
0 1
  S        0.0075120    -0.6017700    -0.4647820
  O       -0.2991073    -1.7452621     0.4910780
  C        1.4178950     0.3206530     0.2483930
  C       -1.3599780     0.5918880    -0.1703300
  C        1.6769310     1.6120600    -0.5173330
  C        2.6097720    -0.6313220     0.2113700
  C       -1.5067950     0.9141520     1.3098910
  C       -2.6139080    -0.0830010    -0.7222500
  H        1.1570860     0.5207480     1.2929140
  H       -1.1279560     1.4843500    -0.7624060
  H        2.6215010     2.0509850    -0.1820230
  H        1.7648060     1.4175290    -1.5917240
  H        0.8915690     2.3560060    -0.3630760
  H        2.3687620    -1.5630840     0.7275380
  H        3.4693700    -0.1669570     0.7037260
  H        2.8902180    -0.8648860    -0.8210400
  H       -2.4734110     1.3924490     1.4942360
  H       -1.4657670    -0.0174870     1.8826360
  H       -0.7265980     1.5882150     1.6720380
  H       -2.5077070    -0.3221910    -1.7846410
  H       -3.4761370     0.5791400    -0.6026570
  H       -2.8041960    -1.0106880    -0.1761720
units angstrom
no_reorient  #important for SAPT in psi4, default
symmetry c1  #important for SAPT in psi4, default
}

set PROPERTIES_ORIGIN ["COM"]
properties('MP2/aug-cc-pvtz', properties = ['dipole'])
--------------------------------------------------------------------------

    Molecular point group: c1
  Charge       = 0
  Multiplicity = 1
  Basis Set: AUG-CC-PVTZ
    Blend: AUG-CC-PVTZ
  Basis Set: (AUG-CC-PVTZ AUX)
    Blend: AUG-CC-PVTZ-JKFIT

    Orbital Energies [Eh]
    ---------------------

    Doubly Occupied:

       1A    -92.052313     2A    -20.493616     3A    -11.267380
       4A    -11.266748     5A    -11.240248     6A    -11.226210
       7A    -11.224814     8A    -11.224686     9A     -9.040360
      10A     -6.721810    11A     -6.721628    12A     -6.720353
      13A     -1.313974    14A     -1.109189    15A     -1.078374
      16A     -0.951858    17A     -0.943869    18A     -0.921505
      19A     -0.816947    20A     -0.757276    21A     -0.669017
      22A     -0.642597    23A     -0.621145    24A     -0.611788
      25A     -0.579002    26A     -0.572782    27A     -0.556196
      28A     -0.552138    29A     -0.529503    30A     -0.519533
      31A     -0.512093    32A     -0.504242    33A     -0.493436
      34A     -0.487456    35A     -0.483150    36A     -0.397092
      37A     -0.356158

  @DF-RHF Final Energy:  -707.84091921176480

   => Energetics <=

    Nuclear Repulsion Energy =            513.6315251440224756
    One-Electron Energy =               -1990.5839153887311568
    Two-Electron Energy =                 769.1114710329437685
    Total Energy =                       -707.8409192117647990
  Basis Set: (AUG-CC-PVTZ AUX)
    Blend: AUG-CC-PVTZ-RI
    Molecular point group: c1

    Geometry (in Angstrom), charge = 0, multiplicity = 1:

       Center              X                  Y                   Z               Mass
    ------------   -----------------  -----------------  -----------------  -----------------
         S            0.016991115386    -0.549862244964    -0.455925884438    31.972071174400
         O           -0.289628184614    -1.693354344964     0.499934115562    15.994914619570
         C            1.427374115386     0.372560755036     0.257249115562    12.000000000000
         C           -1.350498884614     0.643795755036    -0.161473884438    12.000000000000
         C            1.686410115386     1.663967755036    -0.508476884438    12.000000000000
         C            2.619251115386    -0.579414244964     0.220226115562    12.000000000000
         C           -1.497315884614     0.966059755036     1.318747115562    12.000000000000
         C           -2.604428884614    -0.031093244964    -0.713393884438    12.000000000000
         H            1.166565115386     0.572655755036     1.301770115562     1.007825032230
         H           -1.118476884614     1.536257755036    -0.753549884438     1.007825032230
         H            2.630980115386     2.102892755036    -0.173166884438     1.007825032230
         H            1.774285115386     1.469436755036    -1.582867884438     1.007825032230
         H            0.901048115386     2.407913755036    -0.354219884438     1.007825032230
         H            2.378241115386    -1.511176244964     0.736394115562     1.007825032230
         H            3.478849115386    -0.115049244964     0.712582115562     1.007825032230
         H            2.899697115386    -0.812978244964    -0.812183884438     1.007825032230
         H           -2.463931884614     1.444356755036     1.503092115562     1.007825032230
         H           -1.456287884614     0.034420755036     1.891492115562     1.007825032230
         H           -0.717118884614     1.640122755036     1.680894115562     1.007825032230
         H           -2.498227884614    -0.270283244964    -1.775784884438     1.007825032230
         H           -3.466657884614     0.631047755036    -0.593800884438     1.007825032230
         H           -2.794716884614    -0.958780244964    -0.167315884438     1.007825032230

  Basis Set: AUG-CC-PVTZ
    Blend: AUG-CC-PVTZ
  Basis Set: (AUG-CC-PVTZ AUX)
    Blend: AUG-CC-PVTZ-JKFIT
	 Reference Energy          =    -707.8409192117647990 [Eh]
	 Singles Energy            =      -0.0000000000000000 [Eh]
	 Same-Spin Energy          =      -0.3878818770444903 [Eh]
	 Opposite-Spin Energy      =      -1.3083688030980269 [Eh]
	 Correlation Energy        =      -1.6962506801425172 [Eh]
	 Total Energy              =    -709.5371698919072969 [Eh]

	 ================> DF-SCS-MP2 Energies <==================
	-----------------------------------------------------------
	 SCS Same-Spin Scale       =       0.3333333333333333 [-]
	 SCS Opposite-Spin Scale   =       1.2000000000000000 [-]
	 SCS Same-Spin Energy      =      -0.1292939590148301 [Eh]
	 SCS Opposite-Spin Energy  =      -1.5700425637176323 [Eh]
	 SCS Correlation Energy    =      -1.6993365227324624 [Eh]
	 SCS Total Energy          =    -709.5402557344972365 [Eh]
	-----------------------------------------------------------

  Dipole Moment: [D]
     X:     0.6564      Y:     3.8368      Z:    -0.6931     Total:     3.9537

*** Psi4 exiting successfully. Buy a developer a beer!
