                               Psi4 1.3.2 release

  ==> Input File <==

--------------------------------------------------------------------------
#psi4
#
memory 32 gb

molecule  {
0 1
  S        0.0075120    -0.6017700    -0.4647820
  O       -0.2556540    -1.7702980     0.4735910
  C        1.2929920     0.4599115     0.2895630
  C       -1.3599780     0.5918880    -0.1703300
  C        1.6769310     1.6120600    -0.5173330
  C        2.6097720    -0.6313220     0.2113700
  C       -1.5067950     0.9141520     1.3098910
  C       -2.6139080    -0.0830010    -0.7222500
  H        1.1570860     0.5207480     1.2929140
  H       -1.1279560     1.4843500    -0.7624060
  H        2.6215010     2.0509850    -0.1820230
  H        1.7648060     1.4175290    -1.5917240
  H        0.8915690     2.3560060    -0.3630760
  H        2.3687620    -1.5630840     0.7275380
  H        3.4693700    -0.1669570     0.7037260
  H        2.8902180    -0.8648860    -0.8210400
  H       -2.4734110     1.3924490     1.4942360
  H       -1.4657670    -0.0174870     1.8826360
  H       -0.7265980     1.5882150     1.6720380
  H       -2.5077070    -0.3221910    -1.7846410
  H       -3.4761370     0.5791400    -0.6026570
  H       -2.8041960    -1.0106880    -0.1761720
units angstrom
no_reorient  #important for SAPT in psi4, default
symmetry c1  #important for SAPT in psi4, default
}

set PROPERTIES_ORIGIN ["COM"]
properties('MP2/aug-cc-pvtz', properties = ['dipole'])
--------------------------------------------------------------------------

    Molecular point group: c1
  Charge       = 0
  Multiplicity = 1
  Basis Set: AUG-CC-PVTZ
    Blend: AUG-CC-PVTZ
  Basis Set: (AUG-CC-PVTZ AUX)
    Blend: AUG-CC-PVTZ-JKFIT

    Orbital Energies [Eh]
    ---------------------

    Doubly Occupied:

       1A    -92.056641     2A    -20.499425     3A    -11.264846
       4A    -11.264760     5A    -11.238270     6A    -11.229542
       7A    -11.225926     8A    -11.223875     9A     -9.043944
      10A     -6.725439    11A     -6.725004    12A     -6.723898
      13A     -1.316997    14A     -1.111165    15A     -1.074323
      16A     -0.944783    17A     -0.941412    18A     -0.920054
      19A     -0.824947    20A     -0.765524    21A     -0.669040
      22A     -0.637941    23A     -0.617580    24A     -0.616534
      25A     -0.589034    26A     -0.571353    27A     -0.551991
      28A     -0.551302    29A     -0.534960    30A     -0.527750
      31A     -0.517751    32A     -0.506313    33A     -0.491066
      34A     -0.490697    35A     -0.445754    36A     -0.391434
      37A     -0.363697

  @DF-RHF Final Energy:  -707.81032241074854

   => Energetics <=

    Nuclear Repulsion Energy =            513.4299202308168333
    One-Electron Energy =               -1990.0905509301906022
    Two-Electron Energy =                 768.8503082886252287
    Total Energy =                       -707.8103224107485403
  Basis Set: (AUG-CC-PVTZ AUX)
    Blend: AUG-CC-PVTZ-RI
    Molecular point group: c1

    Geometry (in Angstrom), charge = 0, multiplicity = 1:

       Center              X                  Y                   Z               Mass
    ------------   -----------------  -----------------  -----------------  -----------------
         S            0.022986229812    -0.559339331355    -0.457524500677    31.972071174400
         O           -0.240179770188    -1.727867331355     0.480848499323    15.994914619570
         C            1.308466229812     0.502342168645     0.296820499323    12.000000000000
         C           -1.344503770188     0.634318668645    -0.163072500677    12.000000000000
         C            1.692405229812     1.654490668645    -0.510075500677    12.000000000000
         C            2.625246229812    -0.588891331355     0.218627499323    12.000000000000
         C           -1.491320770188     0.956582668645     1.317148499323    12.000000000000
         C           -2.598433770188    -0.040570331355    -0.714992500677    12.000000000000
         H            1.172560229812     0.563178668645     1.300171499323     1.007825032230
         H           -1.112481770188     1.526780668645    -0.755148500677     1.007825032230
         H            2.636975229812     2.093415668645    -0.174765500677     1.007825032230
         H            1.780280229812     1.459959668645    -1.584466500677     1.007825032230
         H            0.907043229812     2.398436668645    -0.355818500677     1.007825032230
         H            2.384236229812    -1.520653331355     0.734795499323     1.007825032230
         H            3.484844229812    -0.124526331355     0.710983499323     1.007825032230
         H            2.905692229812    -0.822455331355    -0.813782500677     1.007825032230
         H           -2.457936770188     1.434879668645     1.501493499323     1.007825032230
         H           -1.450292770188     0.024943668645     1.889893499323     1.007825032230
         H           -0.711123770188     1.630645668645     1.679295499323     1.007825032230
         H           -2.492232770188    -0.279760331355    -1.777383500677     1.007825032230
         H           -3.460662770188     0.621570668645    -0.595399500677     1.007825032230
         H           -2.788721770188    -0.968257331355    -0.168914500677     1.007825032230

  Basis Set: AUG-CC-PVTZ
    Blend: AUG-CC-PVTZ
  Basis Set: (AUG-CC-PVTZ AUX)
    Blend: AUG-CC-PVTZ-JKFIT
	 Reference Energy          =    -707.8103224107485403 [Eh]
	 Singles Energy            =      -0.0000000000000000 [Eh]
	 Same-Spin Energy          =      -0.3891273411894568 [Eh]
	 Opposite-Spin Energy      =      -1.3115887183409372 [Eh]
	 Correlation Energy        =      -1.7007160595303938 [Eh]
	 Total Energy              =    -709.5110384702788906 [Eh]

	 ================> DF-SCS-MP2 Energies <==================
	-----------------------------------------------------------
	 SCS Same-Spin Scale       =       0.3333333333333333 [-]
	 SCS Opposite-Spin Scale   =       1.2000000000000000 [-]
	 SCS Same-Spin Energy      =      -0.1297091137298189 [Eh]
	 SCS Opposite-Spin Energy  =      -1.5739064620091245 [Eh]
	 SCS Correlation Energy    =      -1.7036155757389435 [Eh]
	 SCS Total Energy          =    -709.5139379864874627 [Eh]
	-----------------------------------------------------------

  Dipole Moment: [D]
     X:     0.5110      Y:     3.8221      Z:    -0.6924     Total:     3.9178

*** Psi4 exiting successfully. Buy a developer a beer!
