                               Psi4 1.3.2 release

  ==> Input File <==

--------------------------------------------------------------------------
#psi4
#
memory 32 gb

molecule  {
0 1
  S        0.0280557    -0.5811315    -0.4512889
  O       -0.2556540    -1.7702980     0.4735910
  C        1.4178950     0.3206530     0.2483930
  C       -1.3599780     0.5918880    -0.1703300
  C        1.6769310     1.6120600    -0.5173330
  C        2.6097720    -0.6313220     0.2113700
  C       -1.5067950     0.9141520     1.3098910
  C       -2.6139080    -0.0830010    -0.7222500
  H        1.1570860     0.5207480     1.2929140
  H       -1.1279560     1.4843500    -0.7624060
  H        2.6215010     2.0509850    -0.1820230
  H        1.7648060     1.4175290    -1.5917240
  H        0.8915690     2.3560060    -0.3630760
  H        2.3687620    -1.5630840     0.7275380
  H        3.4693700    -0.1669570     0.7037260
  H        2.8902180    -0.8648860    -0.8210400
  H       -2.4734110     1.3924490     1.4942360
  H       -1.4657670    -0.0174870     1.8826360
  H       -0.7265980     1.5882150     1.6720380
  H       -2.5077070    -0.3221910    -1.7846410
  H       -3.4761370     0.5791400    -0.6026570
  H       -2.8041960    -1.0106880    -0.1761720
units angstrom
no_reorient  #important for SAPT in psi4, default
symmetry c1  #important for SAPT in psi4, default
}

set PROPERTIES_ORIGIN ["COM"]
properties('MP2/aug-cc-pvtz', properties = ['dipole'])
--------------------------------------------------------------------------

    Molecular point group: c1
  Charge       = 0
  Multiplicity = 1
  Basis Set: AUG-CC-PVTZ
    Blend: AUG-CC-PVTZ
  Basis Set: (AUG-CC-PVTZ AUX)
    Blend: AUG-CC-PVTZ-JKFIT

    Orbital Energies [Eh]
    ---------------------

    Doubly Occupied:

       1A    -92.050497     2A    -20.493698     3A    -11.268588
       4A    -11.266733     5A    -11.241062     6A    -11.226372
       7A    -11.225998     8A    -11.225969     9A     -9.038999
      10A     -6.720524    11A     -6.720294    12A     -6.719030
      13A     -1.307824    14A     -1.112855    15A     -1.080066
      16A     -0.952572    17A     -0.944813    18A     -0.924947
      19A     -0.819582    20A     -0.757094    21A     -0.670610
      22A     -0.643679    23A     -0.622220    24A     -0.611157
      25A     -0.579938    26A     -0.573264    27A     -0.556779
      28A     -0.552389    29A     -0.528927    30A     -0.519900
      31A     -0.512666    32A     -0.504794    33A     -0.492793
      34A     -0.487836    35A     -0.482223    36A     -0.399926
      37A     -0.354439

  @DF-RHF Final Energy:  -707.84030044371730

   => Energetics <=

    Nuclear Repulsion Energy =            513.9233548948665202
    One-Electron Energy =               -1991.1451954494186793
    Two-Electron Energy =                 769.3815401108349761
    Total Energy =                       -707.8403004437172967
  Basis Set: (AUG-CC-PVTZ AUX)
    Blend: AUG-CC-PVTZ-RI
    Molecular point group: c1

    Geometry (in Angstrom), charge = 0, multiplicity = 1:

       Center              X                  Y                   Z               Mass
    ------------   -----------------  -----------------  -----------------  -----------------
         S            0.027452093235    -0.531158524272    -0.443564222390    31.972071174400
         O           -0.256257606765    -1.720325024272     0.481315677610    15.994914619570
         C            1.417291393235     0.370625975728     0.256117677610    12.000000000000
         C           -1.360581606765     0.641860975728    -0.162605322390    12.000000000000
         C            1.676327393235     1.662032975728    -0.509608322390    12.000000000000
         C            2.609168393235    -0.581349024272     0.219094677610    12.000000000000
         C           -1.507398606765     0.964124975728     1.317615677610    12.000000000000
         C           -2.614511606765    -0.033028024272    -0.714525322390    12.000000000000
         H            1.156482393235     0.570720975728     1.300638677610     1.007825032230
         H           -1.128559606765     1.534322975728    -0.754681322390     1.007825032230
         H            2.620897393235     2.100957975728    -0.174298322390     1.007825032230
         H            1.764202393235     1.467501975728    -1.583999322390     1.007825032230
         H            0.890965393235     2.405978975728    -0.355351322390     1.007825032230
         H            2.368158393235    -1.513111024272     0.735262677610     1.007825032230
         H            3.468766393235    -0.116984024272     0.711450677610     1.007825032230
         H            2.889614393235    -0.814913024272    -0.813315322390     1.007825032230
         H           -2.474014606765     1.442421975728     1.501960677610     1.007825032230
         H           -1.466370606765     0.032485975728     1.890360677610     1.007825032230
         H           -0.727201606765     1.638187975728     1.679762677610     1.007825032230
         H           -2.508310606765    -0.272218024272    -1.776916322390     1.007825032230
         H           -3.476740606765     0.629112975728    -0.594932322390     1.007825032230
         H           -2.804799606765    -0.960715024272    -0.168447322390     1.007825032230

  Basis Set: AUG-CC-PVTZ
    Blend: AUG-CC-PVTZ
  Basis Set: (AUG-CC-PVTZ AUX)
    Blend: AUG-CC-PVTZ-JKFIT
	 Reference Energy          =    -707.8403004437172967 [Eh]
	 Singles Energy            =      -0.0000000000000000 [Eh]
	 Same-Spin Energy          =      -0.3880305425313050 [Eh]
	 Opposite-Spin Energy      =      -1.3083869010763776 [Eh]
	 Correlation Energy        =      -1.6964174436076827 [Eh]
	 Total Energy              =    -709.5367178873249259 [Eh]

	 ================> DF-SCS-MP2 Energies <==================
	-----------------------------------------------------------
	 SCS Same-Spin Scale       =       0.3333333333333333 [-]
	 SCS Opposite-Spin Scale   =       1.2000000000000000 [-]
	 SCS Same-Spin Energy      =      -0.1293435141771017 [Eh]
	 SCS Opposite-Spin Energy  =      -1.5700642812916530 [Eh]
	 SCS Correlation Energy    =      -1.6994077954687548 [Eh]
	 SCS Total Energy          =    -709.5397082391860977 [Eh]
	-----------------------------------------------------------

  Dipole Moment: [D]
     X:     0.6152      Y:     3.9816      Z:    -0.6369     Total:     4.0789

*** Psi4 exiting successfully. Buy a developer a beer!
