                               Psi4 1.4a3.dev225

  ==> Input File <==

--------------------------------------------------------------------------
#psi4
#
memory 32 gb

molecule  {
0 1
  S        0.0075060    -0.6017520    -0.4647870
  O       -0.2521713    -1.7549425     0.4612372
  C        1.4178840     0.3206660     0.2483950
  C       -1.3599760     0.5918780    -0.1703380
  C        1.6769860     1.6120510    -0.5173440
  C        2.6097490    -0.6313490     0.2114050
  C       -1.5068220     0.9141660     1.3098780
  C       -2.6139150    -0.0830150    -0.7222310
  H        1.1570720     0.5207860     1.2929090
  H       -1.1279920     1.4843500    -0.7624100
  H        2.6214640     2.0510430    -0.1818700
  H        1.7650720     1.4174690    -1.5917100
  H        0.8915570     2.3559690    -0.3632840
  H        2.3687570    -1.5630370     0.7277090
  H        3.4693900    -0.1669130     0.7036130
  H        2.8901120    -0.8650600    -0.8209970
  H       -2.4734430     1.3924660     1.4941730
  H       -1.4657910    -0.0174610     1.8826380
  H       -0.7266330     1.5882370     1.6720420
  H       -2.5077120    -0.3222990    -1.7846030
  H       -3.4761170     0.5791690    -0.6027030
  H       -2.8042390    -1.0106520    -0.1760810
units angstrom
no_reorient  #important for SAPT in psi4, default
symmetry c1  #important for SAPT in psi4, default
}

set PROPERTIES_ORIGIN ["COM"]
properties('MP2/aug-cc-pvtz', properties = ['dipole'])
--------------------------------------------------------------------------

    Molecular point group: c1
  Charge       = 0
  Multiplicity = 1
  Basis Set: AUG-CC-PVTZ
    Blend: AUG-CC-PVTZ
  Basis Set: (AUG-CC-PVTZ AUX)
    Blend: AUG-CC-PVTZ-JKFIT

    Orbital Energies [Eh]
    ---------------------

    Doubly Occupied:

       1A    -92.051484     2A    -20.494531     3A    -11.266309
       4A    -11.265570     5A    -11.239078     6A    -11.225697
       7A    -11.225449     8A    -11.224981     9A     -9.039613
      10A     -6.721062    11A     -6.720980    12A     -6.719650
      13A     -1.325193    14A     -1.108969    15A     -1.078293
      16A     -0.950697    17A     -0.944528    18A     -0.920017
      19A     -0.816637    20A     -0.756555    21A     -0.669787
      22A     -0.642059    23A     -0.621711    24A     -0.612628
      25A     -0.578825    26A     -0.573407    27A     -0.555464
      28A     -0.552757    29A     -0.531777    30A     -0.522274
      31A     -0.512715    32A     -0.503955    33A     -0.495042
      34A     -0.488516    35A     -0.485419    36A     -0.398022
      37A     -0.353926

  @DF-RHF Final Energy:  -707.84233009855996

   => Energetics <=

    Nuclear Repulsion Energy =            514.1932425112978535
    One-Electron Energy =               -1991.6839944932623894
    Two-Electron Energy =                 769.6484218834044668
    Total Energy =                       -707.8423300985599553
  Basis Set: (AUG-CC-PVTZ AUX)
    Blend: AUG-CC-PVTZ-RI
    Molecular point group: c1

    Geometry (in Angstrom), charge = 0, multiplicity = 1:

       Center              X                  Y                   Z               Mass
    ------------   -----------------  -----------------  -----------------  -----------------
         S            0.011388534771    -0.548690276017    -0.452372504133    31.972071174400
         O           -0.248288765229    -1.701880776017     0.473651695867    15.994914619570
         C            1.421766534771     0.373727723983     0.260809495867    12.000000000000
         C           -1.356093465229     0.644939723983    -0.157923504133    12.000000000000
         C            1.680868534771     1.665112723983    -0.504929504133    12.000000000000
         C            2.613631534771    -0.578287276017     0.223819495867    12.000000000000
         C           -1.502939465229     0.967227723983     1.322292495867    12.000000000000
         C           -2.610032465229    -0.029953276017    -0.709816504133    12.000000000000
         H            1.160954534771     0.573847723983     1.305323495867     1.007825032230
         H           -1.124109465229     1.537411723983    -0.749995504133     1.007825032230
         H            2.625346534771     2.104104723983    -0.169455504133     1.007825032230
         H            1.768954534771     1.470530723983    -1.579295504133     1.007825032230
         H            0.895439534771     2.409030723983    -0.350869504133     1.007825032230
         H            2.372639534771    -1.509975276017     0.740123495867     1.007825032230
         H            3.473272534771    -0.113851276017     0.716027495867     1.007825032230
         H            2.893994534771    -0.811998276017    -0.808582504133     1.007825032230
         H           -2.469560465229     1.445527723983     1.506587495867     1.007825032230
         H           -1.461908465229     0.035600723983     1.895052495867     1.007825032230
         H           -0.722750465229     1.641298723983     1.684456495867     1.007825032230
         H           -2.503829465229    -0.269237276017    -1.772188504133     1.007825032230
         H           -3.472234465229     0.632230723983    -0.590288504133     1.007825032230
         H           -2.800356465229    -0.957590276017    -0.163666504133     1.007825032230

  Basis Set: AUG-CC-PVTZ
    Blend: AUG-CC-PVTZ
  Basis Set: (AUG-CC-PVTZ AUX)
    Blend: AUG-CC-PVTZ-JKFIT
	 Reference Energy          =    -707.8423300985599553 [Eh]
	 Singles Energy            =      -0.0000000000000000 [Eh]
	 Same-Spin Energy          =      -0.3875704723339425 [Eh]
	 Opposite-Spin Energy      =      -1.3075296839937824 [Eh]
	 Correlation Energy        =      -1.6951001563277250 [Eh]
	 Total Energy              =    -709.5374302548876813 [Eh]

	 ================> DF-SCS-MP2 Energies <==================
	-----------------------------------------------------------
	 SCS Same-Spin Scale       =       0.3333333333333333 [-]
	 SCS Opposite-Spin Scale   =       1.2000000000000000 [-]
	 SCS Same-Spin Energy      =      -0.1291901574446475 [Eh]
	 SCS Opposite-Spin Energy  =      -1.5690356207925389 [Eh]
	 SCS Correlation Energy    =      -1.6982257782371863 [Eh]
	 SCS Total Energy          =    -709.5405558767971570 [Eh]
	-----------------------------------------------------------

  Dipole Moment: [D]
     X:     0.5247      Y:     3.7823      Z:    -0.6069     Total:     3.8665

*** Psi4 exiting successfully. Buy a developer a beer!
