                               Psi4 1.3.2 release

  ==> Input File <==

--------------------------------------------------------------------------
#psi4
#
memory 32 gb

molecule  {
0 1
  S        0.0075120    -0.6017700    -0.4647820
  O       -0.2383586    -1.6935019     0.4119207
  C        1.4178950     0.3206530     0.2483930
  C       -1.3599780     0.5918880    -0.1703300
  C        1.6769310     1.6120600    -0.5173330
  C        2.6097720    -0.6313220     0.2113700
  C       -1.5067950     0.9141520     1.3098910
  C       -2.6139080    -0.0830010    -0.7222500
  H        1.1570860     0.5207480     1.2929140
  H       -1.1279560     1.4843500    -0.7624060
  H        2.6215010     2.0509850    -0.1820230
  H        1.7648060     1.4175290    -1.5917240
  H        0.8915690     2.3560060    -0.3630760
  H        2.3687620    -1.5630840     0.7275380
  H        3.4693700    -0.1669570     0.7037260
  H        2.8902180    -0.8648860    -0.8210400
  H       -2.4734110     1.3924490     1.4942360
  H       -1.4657670    -0.0174870     1.8826360
  H       -0.7265980     1.5882150     1.6720380
  H       -2.5077070    -0.3221910    -1.7846410
  H       -3.4761370     0.5791400    -0.6026570
  H       -2.8041960    -1.0106880    -0.1761720
units angstrom
no_reorient  #important for SAPT in psi4, default
symmetry c1  #important for SAPT in psi4, default
}

set PROPERTIES_ORIGIN ["COM"]
properties('MP2/aug-cc-pvtz', properties = ['dipole'])
--------------------------------------------------------------------------

    Molecular point group: c1
  Charge       = 0
  Multiplicity = 1
  Basis Set: AUG-CC-PVTZ
    Blend: AUG-CC-PVTZ
  Basis Set: (AUG-CC-PVTZ AUX)
    Blend: AUG-CC-PVTZ-JKFIT

    Orbital Energies [Eh]
    ---------------------

    Doubly Occupied:

       1A    -92.047667     2A    -20.495069     3A    -11.259827
       4A    -11.259192     5A    -11.235748     6A    -11.224381
       7A    -11.224121     8A    -11.223803     9A     -9.036926
      10A     -6.718845    11A     -6.718173    12A     -6.716900
      13A     -1.374944    14A     -1.105866    15A     -1.075745
      16A     -0.948417    17A     -0.942969    18A     -0.913207
      19A     -0.814700    20A     -0.752690    21A     -0.672604
      22A     -0.639965    23A     -0.624410    24A     -0.618277
      25A     -0.578267    26A     -0.575835    27A     -0.555948
      28A     -0.552433    29A     -0.539478    30A     -0.531389
      31A     -0.518365    32A     -0.502173    33A     -0.499483
      34A     -0.489226    35A     -0.487540    36A     -0.398643
      37A     -0.347960

  @DF-RHF Final Energy:  -707.83923138641671

   => Energetics <=

    Nuclear Repulsion Energy =            517.7609733763366648
    One-Electron Energy =               -1998.7580408376211381
    Two-Electron Energy =                 773.1578360748678733
    Total Energy =                       -707.8392313864167136
  Basis Set: (AUG-CC-PVTZ AUX)
    Blend: AUG-CC-PVTZ-RI
    Molecular point group: c1

    Geometry (in Angstrom), charge = 0, multiplicity = 1:

       Center              X                  Y                   Z               Mass
    ------------   -----------------  -----------------  -----------------  -----------------
         S            0.009743984032    -0.556037076167    -0.446482664241    31.972071174400
         O           -0.236126615968    -1.647768976167     0.430220035759    15.994914619570
         C            1.420126984032     0.366385923833     0.266692335759    12.000000000000
         C           -1.357746015968     0.637620923833    -0.152030664241    12.000000000000
         C            1.679162984032     1.657792923833    -0.499033664241    12.000000000000
         C            2.612003984032    -0.585589076167     0.229669335759    12.000000000000
         C           -1.504563015968     0.959884923833     1.328190335759    12.000000000000
         C           -2.611676015968    -0.037268076167    -0.703950664241    12.000000000000
         H            1.159317984032     0.566480923833     1.311213335759     1.007825032230
         H           -1.125724015968     1.530082923833    -0.744106664241     1.007825032230
         H            2.623732984032     2.096717923833    -0.163723664241     1.007825032230
         H            1.767037984032     1.463261923833    -1.573424664241     1.007825032230
         H            0.893800984032     2.401738923833    -0.344776664241     1.007825032230
         H            2.370993984032    -1.517351076167     0.745837335759     1.007825032230
         H            3.471601984032    -0.121224076167     0.722025335759     1.007825032230
         H            2.892449984032    -0.819153076167    -0.802740664241     1.007825032230
         H           -2.471179015968     1.438181923833     1.512535335759     1.007825032230
         H           -1.463535015968     0.028245923833     1.900935335759     1.007825032230
         H           -0.724366015968     1.633947923833     1.690337335759     1.007825032230
         H           -2.505475015968    -0.276458076167    -1.766341664241     1.007825032230
         H           -3.473905015968     0.624872923833    -0.584357664241     1.007825032230
         H           -2.801964015968    -0.964955076167    -0.157872664241     1.007825032230

  Basis Set: AUG-CC-PVTZ
    Blend: AUG-CC-PVTZ
  Basis Set: (AUG-CC-PVTZ AUX)
    Blend: AUG-CC-PVTZ-JKFIT
	 Reference Energy          =    -707.8392313864167136 [Eh]
	 Singles Energy            =      -0.0000000000000000 [Eh]
	 Same-Spin Energy          =      -0.3863593536845298 [Eh]
	 Opposite-Spin Energy      =      -1.3041947183183926 [Eh]
	 Correlation Energy        =      -1.6905540720029224 [Eh]
	 Total Energy              =    -709.5297854584196102 [Eh]

	 ================> DF-SCS-MP2 Energies <==================
	-----------------------------------------------------------
	 SCS Same-Spin Scale       =       0.3333333333333333 [-]
	 SCS Opposite-Spin Scale   =       1.2000000000000000 [-]
	 SCS Same-Spin Energy      =      -0.1287864512281766 [Eh]
	 SCS Opposite-Spin Energy  =      -1.5650336619820711 [Eh]
	 SCS Correlation Energy    =      -1.6938201132102477 [Eh]
	 SCS Total Energy          =    -709.5330514996269358 [Eh]
	-----------------------------------------------------------

  Dipole Moment: [D]
     X:     0.4456      Y:     3.3579      Z:    -0.4280     Total:     3.4142

*** Psi4 exiting successfully. Buy a developer a beer!
