                               Psi4 1.3.2 release

  ==> Input File <==

--------------------------------------------------------------------------
#psi4
#
memory 32 gb

molecule  {
0 1
  S        0.0075120    -0.6017700    -0.4647820
  O       -0.2556540    -1.7702980     0.4735910
  C        1.4561583     0.2719090     0.2329085
  C       -1.3599780     0.5918880    -0.1703300
  C        1.6769310     1.6120600    -0.5173330
  C        2.6097720    -0.6313220     0.2113700
  C       -1.5067950     0.9141520     1.3098910
  C       -2.6139080    -0.0830010    -0.7222500
  H        1.1570860     0.5207480     1.2929140
  H       -1.1279560     1.4843500    -0.7624060
  H        2.6215010     2.0509850    -0.1820230
  H        1.7648060     1.4175290    -1.5917240
  H        0.8915690     2.3560060    -0.3630760
  H        2.3687620    -1.5630840     0.7275380
  H        3.4693700    -0.1669570     0.7037260
  H        2.8902180    -0.8648860    -0.8210400
  H       -2.4734110     1.3924490     1.4942360
  H       -1.4657670    -0.0174870     1.8826360
  H       -0.7265980     1.5882150     1.6720380
  H       -2.5077070    -0.3221910    -1.7846410
  H       -3.4761370     0.5791400    -0.6026570
  H       -2.8041960    -1.0106880    -0.1761720
units angstrom
no_reorient  #important for SAPT in psi4, default
symmetry c1  #important for SAPT in psi4, default
}

set PROPERTIES_ORIGIN ["COM"]
properties('MP2/aug-cc-pvtz', properties = ['dipole'])
--------------------------------------------------------------------------

    Molecular point group: c1
  Charge       = 0
  Multiplicity = 1
  Basis Set: AUG-CC-PVTZ
    Blend: AUG-CC-PVTZ
  Basis Set: (AUG-CC-PVTZ AUX)
    Blend: AUG-CC-PVTZ-JKFIT

    Orbital Energies [Eh]
    ---------------------

    Doubly Occupied:

       1A    -92.051123     2A    -20.493243     3A    -11.269130
       4A    -11.269016     5A    -11.240964     6A    -11.226502
       7A    -11.226084     8A    -11.222934     9A     -9.039303
      10A     -6.720748    11A     -6.720656    12A     -6.719334
      13A     -1.313179    14A     -1.110961    15A     -1.082119
      16A     -0.955288    17A     -0.945185    18A     -0.921553
      19A     -0.815089    20A     -0.754230    21A     -0.669952
      22A     -0.644603    23A     -0.623511    24A     -0.610495
      25A     -0.581060    26A     -0.572366    27A     -0.557342
      28A     -0.553532    29A     -0.530515    30A     -0.521505
      31A     -0.513879    32A     -0.505385    33A     -0.495300
      34A     -0.489240    35A     -0.474825    36A     -0.398693
      37A     -0.352342

  @DF-RHF Final Energy:  -707.83713858511157

   => Energetics <=

    Nuclear Repulsion Energy =            513.3620131401719391
    One-Electron Energy =               -1990.0159346697487308
    Two-Electron Energy =                 768.8167829444652170
    Total Energy =                       -707.8371385851115747
  Basis Set: (AUG-CC-PVTZ AUX)
    Blend: AUG-CC-PVTZ-RI
    Molecular point group: c1

    Geometry (in Angstrom), charge = 0, multiplicity = 1:

       Center              X                  Y                   Z               Mass
    ------------   -----------------  -----------------  -----------------  -----------------
         S            0.008382663410    -0.542512897266    -0.452453859541    31.972071174400
         O           -0.254783336590    -1.711040897266     0.485919140459    15.994914619570
         C            1.457028963410     0.331166102734     0.245236640459    12.000000000000
         C           -1.359107336590     0.651145102734    -0.158001859541    12.000000000000
         C            1.677801663410     1.671317102734    -0.505004859541    12.000000000000
         C            2.610642663410    -0.572064897266     0.223698140459    12.000000000000
         C           -1.505924336590     0.973409102734     1.322219140459    12.000000000000
         C           -2.613037336590    -0.023743897266    -0.709921859541    12.000000000000
         H            1.157956663410     0.580005102734     1.305242140459     1.007825032230
         H           -1.127085336590     1.543607102734    -0.750077859541     1.007825032230
         H            2.622371663410     2.110242102734    -0.169694859541     1.007825032230
         H            1.765676663410     1.476786102734    -1.579395859541     1.007825032230
         H            0.892439663410     2.415263102734    -0.350747859541     1.007825032230
         H            2.369632663410    -1.503826897266     0.739866140459     1.007825032230
         H            3.470240663410    -0.107699897266     0.716054140459     1.007825032230
         H            2.891088663410    -0.805628897266    -0.808711859541     1.007825032230
         H           -2.472540336590     1.451706102734     1.506564140459     1.007825032230
         H           -1.464896336590     0.041770102734     1.894964140459     1.007825032230
         H           -0.725727336590     1.647472102734     1.684366140459     1.007825032230
         H           -2.506836336590    -0.262933897266    -1.772312859541     1.007825032230
         H           -3.475266336590     0.638397102734    -0.590328859541     1.007825032230
         H           -2.803325336590    -0.951430897266    -0.163843859541     1.007825032230

  Basis Set: AUG-CC-PVTZ
    Blend: AUG-CC-PVTZ
  Basis Set: (AUG-CC-PVTZ AUX)
    Blend: AUG-CC-PVTZ-JKFIT
	 Reference Energy          =    -707.8371385851115747 [Eh]
	 Singles Energy            =      -0.0000000000000000 [Eh]
	 Same-Spin Energy          =      -0.3880115886696500 [Eh]
	 Opposite-Spin Energy      =      -1.3084118890271603 [Eh]
	 Correlation Energy        =      -1.6964234776968103 [Eh]
	 Total Energy              =    -709.5335620628084143 [Eh]

	 ================> DF-SCS-MP2 Energies <==================
	-----------------------------------------------------------
	 SCS Same-Spin Scale       =       0.3333333333333333 [-]
	 SCS Opposite-Spin Scale   =       1.2000000000000000 [-]
	 SCS Same-Spin Energy      =      -0.1293371962232167 [Eh]
	 SCS Opposite-Spin Energy  =      -1.5700942668325923 [Eh]
	 SCS Correlation Energy    =      -1.6994314630558089 [Eh]
	 SCS Total Energy          =    -709.5365700481673912 [Eh]
	-----------------------------------------------------------

  Dipole Moment: [D]
     X:     0.5523      Y:     3.8977      Z:    -0.6402     Total:     3.9883

*** Psi4 exiting successfully. Buy a developer a beer!
