                               Psi4 1.4a3.dev225

  ==> Input File <==

--------------------------------------------------------------------------
#psi4
#
memory 32 gb

molecule  {
0 1
  S        0.0075060    -0.6017520    -0.4647870
  O       -0.2556300    -1.7703020     0.4735710
  C        1.4178840     0.3206660     0.2483950
  C       -1.3971586     0.6243334    -0.1623318
  C        1.6769860     1.6120510    -0.5173440
  C        2.6097490    -0.6313490     0.2114050
  C       -1.5068220     0.9141660     1.3098780
  C       -2.6139150    -0.0830150    -0.7222310
  H        1.1570720     0.5207860     1.2929090
  H       -1.1279920     1.4843500    -0.7624100
  H        2.6214640     2.0510430    -0.1818700
  H        1.7650720     1.4174690    -1.5917100
  H        0.8915570     2.3559690    -0.3632840
  H        2.3687570    -1.5630370     0.7277090
  H        3.4693900    -0.1669130     0.7036130
  H        2.8901120    -0.8650600    -0.8209970
  H       -2.4734430     1.3924660     1.4941730
  H       -1.4657910    -0.0174610     1.8826380
  H       -0.7266330     1.5882370     1.6720420
  H       -2.5077120    -0.3222990    -1.7846030
  H       -3.4761170     0.5791690    -0.6027030
  H       -2.8042390    -1.0106520    -0.1760810
units angstrom
no_reorient  #important for SAPT in psi4, default
symmetry c1  #important for SAPT in psi4, default
}

set PROPERTIES_ORIGIN ["COM"]
properties('MP2/aug-cc-pvtz', properties = ['dipole'])
--------------------------------------------------------------------------

    Molecular point group: c1
  Charge       = 0
  Multiplicity = 1
  Basis Set: AUG-CC-PVTZ
    Blend: AUG-CC-PVTZ
  Basis Set: (AUG-CC-PVTZ AUX)
    Blend: AUG-CC-PVTZ-JKFIT

    Orbital Energies [Eh]
    ---------------------

    Doubly Occupied:

       1A    -92.049775     2A    -20.494317     3A    -11.268918
       4A    -11.266238     5A    -11.239606     6A    -11.225918
       7A    -11.225590     8A    -11.224599     9A     -9.037628
      10A     -6.719008    11A     -6.718831    12A     -6.717608
      13A     -1.312024    14A     -1.108812    15A     -1.080884
      16A     -0.951020    17A     -0.947747    18A     -0.917045
      19A     -0.816010    20A     -0.759171    21A     -0.667274
      22A     -0.644344    23A     -0.622704    24A     -0.611556
      25A     -0.579202    26A     -0.573111    27A     -0.555406
      28A     -0.554133    29A     -0.527737    30A     -0.520241
      31A     -0.512883    32A     -0.507081    33A     -0.494974
      34A     -0.487889    35A     -0.485823    36A     -0.392236
      37A     -0.352206

  @DF-RHF Final Energy:  -707.83922285397841

   => Energetics <=

    Nuclear Repulsion Energy =            512.5749320886910709
    One-Electron Energy =               -1988.4892119967482813
    Two-Electron Energy =                 768.0750570540789113
    Total Energy =                       -707.8392228539784128
  Basis Set: (AUG-CC-PVTZ AUX)
    Blend: AUG-CC-PVTZ-RI
    Molecular point group: c1

    Geometry (in Angstrom), charge = 0, multiplicity = 1:

       Center              X                  Y                   Z               Mass
    ------------   -----------------  -----------------  -----------------  -----------------
         S            0.015129031246    -0.549762729952    -0.454560452048    31.972071174400
         O           -0.248006968754    -1.718312729952     0.483797547952    15.994914619570
         C            1.425507031246     0.372655270048     0.258621547952    12.000000000000
         C           -1.389535568754     0.676322670048    -0.152105252048    12.000000000000
         C            1.684609031246     1.664040270048    -0.507117452048    12.000000000000
         C            2.617372031246    -0.579359729952     0.221631547952    12.000000000000
         C           -1.499198968754     0.966155270048     1.320104547952    12.000000000000
         C           -2.606291968754    -0.031025729952    -0.712004452048    12.000000000000
         H            1.164695031246     0.572775270048     1.303135547952     1.007825032230
         H           -1.120368968754     1.536339270048    -0.752183452048     1.007825032230
         H            2.629087031246     2.103032270048    -0.171643452048     1.007825032230
         H            1.772695031246     1.469458270048    -1.581483452048     1.007825032230
         H            0.899180031246     2.407958270048    -0.353057452048     1.007825032230
         H            2.376380031246    -1.511047729952     0.737935547952     1.007825032230
         H            3.477013031246    -0.114923729952     0.713839547952     1.007825032230
         H            2.897735031246    -0.813070729952    -0.810770452048     1.007825032230
         H           -2.465819968754     1.444455270048     1.504399547952     1.007825032230
         H           -1.458167968754     0.034528270048     1.892864547952     1.007825032230
         H           -0.719009968754     1.640226270048     1.682268547952     1.007825032230
         H           -2.500088968754    -0.270309729952    -1.774376452048     1.007825032230
         H           -3.468493968754     0.631158270048    -0.592476452048     1.007825032230
         H           -2.796615968754    -0.958662729952    -0.165854452048     1.007825032230

  Basis Set: AUG-CC-PVTZ
    Blend: AUG-CC-PVTZ
  Basis Set: (AUG-CC-PVTZ AUX)
    Blend: AUG-CC-PVTZ-JKFIT
	 Reference Energy          =    -707.8392228539784128 [Eh]
	 Singles Energy            =      -0.0000000000000000 [Eh]
	 Same-Spin Energy          =      -0.3880834949606682 [Eh]
	 Opposite-Spin Energy      =      -1.3087830015656712 [Eh]
	 Correlation Energy        =      -1.6968664965263394 [Eh]
	 Total Energy              =    -709.5360893505047670 [Eh]

	 ================> DF-SCS-MP2 Energies <==================
	-----------------------------------------------------------
	 SCS Same-Spin Scale       =       0.3333333333333333 [-]
	 SCS Opposite-Spin Scale   =       1.2000000000000000 [-]
	 SCS Same-Spin Energy      =      -0.1293611649868894 [Eh]
	 SCS Opposite-Spin Energy  =      -1.5705396018788054 [Eh]
	 SCS Correlation Energy    =      -1.6999007668656947 [Eh]
	 SCS Total Energy          =    -709.5391236208440660 [Eh]
	-----------------------------------------------------------

  Dipole Moment: [D]
     X:     0.5296      Y:     3.8754      Z:    -0.6456     Total:     3.9644

*** Psi4 exiting successfully. Buy a developer a beer!
