                               Psi4 1.3.2 release

  ==> Input File <==

--------------------------------------------------------------------------
#psi4
#
memory 32 gb

molecule  {
0 1
  S        0.0075120    -0.6017700    -0.4647820
  O       -0.1678388    -1.8160701     0.4352098
  C        1.4178950     0.3206530     0.2483930
  C       -1.3599780     0.5918880    -0.1703300
  C        1.6769310     1.6120600    -0.5173330
  C        2.6097720    -0.6313220     0.2113700
  C       -1.5067950     0.9141520     1.3098910
  C       -2.6139080    -0.0830010    -0.7222500
  H        1.1570860     0.5207480     1.2929140
  H       -1.1279560     1.4843500    -0.7624060
  H        2.6215010     2.0509850    -0.1820230
  H        1.7648060     1.4175290    -1.5917240
  H        0.8915690     2.3560060    -0.3630760
  H        2.3687620    -1.5630840     0.7275380
  H        3.4693700    -0.1669570     0.7037260
  H        2.8902180    -0.8648860    -0.8210400
  H       -2.4734110     1.3924490     1.4942360
  H       -1.4657670    -0.0174870     1.8826360
  H       -0.7265980     1.5882150     1.6720380
  H       -2.5077070    -0.3221910    -1.7846410
  H       -3.4761370     0.5791400    -0.6026570
  H       -2.8041960    -1.0106880    -0.1761720
units angstrom
no_reorient  #important for SAPT in psi4, default
symmetry c1  #important for SAPT in psi4, default
}

set PROPERTIES_ORIGIN ["COM"]
properties('MP2/aug-cc-pvtz', properties = ['dipole'])
--------------------------------------------------------------------------

    Molecular point group: c1
  Charge       = 0
  Multiplicity = 1
  Basis Set: AUG-CC-PVTZ
    Blend: AUG-CC-PVTZ
  Basis Set: (AUG-CC-PVTZ AUX)
    Blend: AUG-CC-PVTZ-JKFIT

    Orbital Energies [Eh]
    ---------------------

    Doubly Occupied:

       1A    -92.051196     2A    -20.496501     3A    -11.269887
       4A    -11.266272     5A    -11.238909     6A    -11.228216
       7A    -11.227809     8A    -11.223267     9A     -9.039248
      10A     -6.720737    11A     -6.720529    12A     -6.719306
      13A     -1.314068    14A     -1.110613    15A     -1.079511
      16A     -0.950035    17A     -0.946720    18A     -0.921933
      19A     -0.817340    20A     -0.757860    21A     -0.670064
      22A     -0.642576    23A     -0.622250    24A     -0.610938
      25A     -0.579010    26A     -0.574193    27A     -0.555243
      28A     -0.553235    29A     -0.530599    30A     -0.521452
      31A     -0.512791    32A     -0.504510    33A     -0.492697
      34A     -0.489743    35A     -0.485024    36A     -0.398820
      37A     -0.353529

  @DF-RHF Final Energy:  -707.84029649310071

   => Energetics <=

    Nuclear Repulsion Energy =            512.8484264364876708
    One-Electron Energy =               -1988.9841785512239767
    Two-Electron Energy =                 768.2954556216355968
    Total Energy =                       -707.8402964931007091
  Basis Set: (AUG-CC-PVTZ AUX)
    Blend: AUG-CC-PVTZ-RI
    Molecular point group: c1

    Geometry (in Angstrom), charge = 0, multiplicity = 1:

       Center              X                  Y                   Z               Mass
    ------------   -----------------  -----------------  -----------------  -----------------
         S            0.001331190775    -0.541415070342    -0.449260981585    31.972071174400
         O           -0.174019609225    -1.755715170342     0.450730818415    15.994914619570
         C            1.411714190775     0.381007929658     0.263914018415    12.000000000000
         C           -1.366158809225     0.652242929658    -0.154808981585    12.000000000000
         C            1.670750190775     1.672414929658    -0.501811981585    12.000000000000
         C            2.603591190775    -0.570967070342     0.226891018415    12.000000000000
         C           -1.512975809225     0.974506929658     1.325412018415    12.000000000000
         C           -2.620088809225    -0.022646070342    -0.706728981585    12.000000000000
         H            1.150905190775     0.581102929658     1.308435018415     1.007825032230
         H           -1.134136809225     1.544704929658    -0.746884981585     1.007825032230
         H            2.615320190775     2.111339929658    -0.166501981585     1.007825032230
         H            1.758625190775     1.477883929658    -1.576202981585     1.007825032230
         H            0.885388190775     2.416360929658    -0.347554981585     1.007825032230
         H            2.362581190775    -1.502729070342     0.743059018415     1.007825032230
         H            3.463189190775    -0.106602070342     0.719247018415     1.007825032230
         H            2.884037190775    -0.804531070342    -0.805518981585     1.007825032230
         H           -2.479591809225     1.452803929658     1.509757018415     1.007825032230
         H           -1.471947809225     0.042867929658     1.898157018415     1.007825032230
         H           -0.732778809225     1.648569929658     1.687559018415     1.007825032230
         H           -2.513887809225    -0.261836070342    -1.769119981585     1.007825032230
         H           -3.482317809225     0.639494929658    -0.587135981585     1.007825032230
         H           -2.810376809225    -0.950333070342    -0.160650981585     1.007825032230

  Basis Set: AUG-CC-PVTZ
    Blend: AUG-CC-PVTZ
  Basis Set: (AUG-CC-PVTZ AUX)
    Blend: AUG-CC-PVTZ-JKFIT
	 Reference Energy          =    -707.8402964931007091 [Eh]
	 Singles Energy            =      -0.0000000000000000 [Eh]
	 Same-Spin Energy          =      -0.3877505453348732 [Eh]
	 Opposite-Spin Energy      =      -1.3082836414621564 [Eh]
	 Correlation Energy        =      -1.6960341867970294 [Eh]
	 Total Energy              =    -709.5363306798977874 [Eh]

	 ================> DF-SCS-MP2 Energies <==================
	-----------------------------------------------------------
	 SCS Same-Spin Scale       =       0.3333333333333333 [-]
	 SCS Opposite-Spin Scale   =       1.2000000000000000 [-]
	 SCS Same-Spin Energy      =      -0.1292501817782911 [Eh]
	 SCS Opposite-Spin Energy  =      -1.5699403697545875 [Eh]
	 SCS Correlation Energy    =      -1.6991905515328787 [Eh]
	 SCS Total Energy          =    -709.5394870446335744 [Eh]
	-----------------------------------------------------------

  Dipole Moment: [D]
     X:     0.3185      Y:     3.9664      Z:    -0.5587     Total:     4.0182

*** Psi4 exiting successfully. Buy a developer a beer!
