                               Psi4 1.3.2 release

  ==> Input File <==

--------------------------------------------------------------------------
#psi4
#
memory 32 gb

molecule  {
0 1
  S        0.0075120    -0.6017700    -0.4647820
  O       -0.2556540    -1.7702980     0.4735910
  C        1.4178950     0.3206530     0.2483930
  C       -1.2112488     0.4620649    -0.2023548
  C        1.6769310     1.6120600    -0.5173330
  C        2.6097720    -0.6313220     0.2113700
  C       -1.5067950     0.9141520     1.3098910
  C       -2.6139080    -0.0830010    -0.7222500
  H        1.1570860     0.5207480     1.2929140
  H       -1.1279560     1.4843500    -0.7624060
  H        2.6215010     2.0509850    -0.1820230
  H        1.7648060     1.4175290    -1.5917240
  H        0.8915690     2.3560060    -0.3630760
  H        2.3687620    -1.5630840     0.7275380
  H        3.4693700    -0.1669570     0.7037260
  H        2.8902180    -0.8648860    -0.8210400
  H       -2.4734110     1.3924490     1.4942360
  H       -1.4657670    -0.0174870     1.8826360
  H       -0.7265980     1.5882150     1.6720380
  H       -2.5077070    -0.3221910    -1.7846410
  H       -3.4761370     0.5791400    -0.6026570
  H       -2.8041960    -1.0106880    -0.1761720
units angstrom
no_reorient  #important for SAPT in psi4, default
symmetry c1  #important for SAPT in psi4, default
}

set PROPERTIES_ORIGIN ["COM"]
properties('MP2/aug-cc-pvtz', properties = ['dipole'])
--------------------------------------------------------------------------

    Molecular point group: c1
  Charge       = 0
  Multiplicity = 1
  Basis Set: AUG-CC-PVTZ
    Blend: AUG-CC-PVTZ
  Basis Set: (AUG-CC-PVTZ AUX)
    Blend: AUG-CC-PVTZ-JKFIT

    Orbital Energies [Eh]
    ---------------------

    Doubly Occupied:

       1A    -92.052866     2A    -20.493616     3A    -11.268985
       4A    -11.268131     5A    -11.239565     6A    -11.231573
       7A    -11.230682     8A    -11.226082     9A     -9.043627
      10A     -6.725814    11A     -6.724838    12A     -6.723635
      13A     -1.321691    14A     -1.117271    15A     -1.073827
      16A     -0.951487    17A     -0.942908    18A     -0.935118
      19A     -0.823183    20A     -0.748010    21A     -0.676390
      22A     -0.639616    23A     -0.618703    24A     -0.609024
      25A     -0.578470    26A     -0.575571    27A     -0.558277
      28A     -0.549468    29A     -0.540915    30A     -0.523612
      31A     -0.516256    32A     -0.502028    33A     -0.495309
      34A     -0.466425    35A     -0.460842    36A     -0.413992
      37A     -0.356994

  @DF-RHF Final Energy:  -707.80696390368439

   => Energetics <=

    Nuclear Repulsion Energy =            516.6997563108910754
    One-Electron Energy =               -1996.5638334639459117
    Two-Electron Energy =                 772.0571132493705591
    Total Energy =                       -707.8069639036843910
  Basis Set: (AUG-CC-PVTZ AUX)
    Blend: AUG-CC-PVTZ-RI
    Molecular point group: c1

    Geometry (in Angstrom), charge = 0, multiplicity = 1:

       Center              X                  Y                   Z               Mass
    ------------   -----------------  -----------------  -----------------  -----------------
         S           -0.001504158230    -0.535256227104    -0.450973484186    31.972071174400
         O           -0.264670158230    -1.703784227104     0.487399515814    15.994914619570
         C            1.408878841770     0.387166772896     0.262201515814    12.000000000000
         C           -1.220264958230     0.528578672896    -0.188546284186    12.000000000000
         C            1.667914841770     1.678573772896    -0.503524484186    12.000000000000
         C            2.600755841770    -0.564808227104     0.225178515814    12.000000000000
         C           -1.515811158230     0.980665772896     1.323699515814    12.000000000000
         C           -2.622924158230    -0.016487227104    -0.708441484186    12.000000000000
         H            1.148069841770     0.587261772896     1.306722515814     1.007825032230
         H           -1.136972158230     1.550863772896    -0.748597484186     1.007825032230
         H            2.612484841770     2.117498772896    -0.168214484186     1.007825032230
         H            1.755789841770     1.484042772896    -1.577915484186     1.007825032230
         H            0.882552841770     2.422519772896    -0.349267484186     1.007825032230
         H            2.359745841770    -1.496570227104     0.741346515814     1.007825032230
         H            3.460353841770    -0.100443227104     0.717534515814     1.007825032230
         H            2.881201841770    -0.798372227104    -0.807231484186     1.007825032230
         H           -2.482427158230     1.458962772896     1.508044515814     1.007825032230
         H           -1.474783158230     0.049026772896     1.896444515814     1.007825032230
         H           -0.735614158230     1.654728772896     1.685846515814     1.007825032230
         H           -2.516723158230    -0.255677227104    -1.770832484186     1.007825032230
         H           -3.485153158230     0.645653772896    -0.588848484186     1.007825032230
         H           -2.813212158230    -0.944174227104    -0.162363484186     1.007825032230

  Basis Set: AUG-CC-PVTZ
    Blend: AUG-CC-PVTZ
  Basis Set: (AUG-CC-PVTZ AUX)
    Blend: AUG-CC-PVTZ-JKFIT
	 Reference Energy          =    -707.8069639036843910 [Eh]
	 Singles Energy            =      -0.0000000000000000 [Eh]
	 Same-Spin Energy          =      -0.3890299977362705 [Eh]
	 Opposite-Spin Energy      =      -1.3099391601855424 [Eh]
	 Correlation Energy        =      -1.6989691579218129 [Eh]
	 Total Energy              =    -709.5059330616062425 [Eh]

	 ================> DF-SCS-MP2 Energies <==================
	-----------------------------------------------------------
	 SCS Same-Spin Scale       =       0.3333333333333333 [-]
	 SCS Opposite-Spin Scale   =       1.2000000000000000 [-]
	 SCS Same-Spin Energy      =      -0.1296766659120901 [Eh]
	 SCS Opposite-Spin Energy  =      -1.5719269922226509 [Eh]
	 SCS Correlation Energy    =      -1.7016036581347409 [Eh]
	 SCS Total Energy          =    -709.5085675618191772 [Eh]
	-----------------------------------------------------------

  Dipole Moment: [D]
     X:     0.4620      Y:     3.9784      Z:    -0.6539     Total:     4.0581

*** Psi4 exiting successfully. Buy a developer a beer!
