                               Psi4 1.3.2 release

  ==> Input File <==

--------------------------------------------------------------------------
#psi4
#
memory 32 gb

molecule  {
0 1
  S       -0.0348187    -0.6419500    -0.4914950
  O       -0.2556540    -1.7702980     0.4735910
  C        1.4178950     0.3206530     0.2483930
  C       -1.3599780     0.5918880    -0.1703300
  C        1.6769310     1.6120600    -0.5173330
  C        2.6097720    -0.6313220     0.2113700
  C       -1.5067950     0.9141520     1.3098910
  C       -2.6139080    -0.0830010    -0.7222500
  H        1.1570860     0.5207480     1.2929140
  H       -1.1279560     1.4843500    -0.7624060
  H        2.6215010     2.0509850    -0.1820230
  H        1.7648060     1.4175290    -1.5917240
  H        0.8915690     2.3560060    -0.3630760
  H        2.3687620    -1.5630840     0.7275380
  H        3.4693700    -0.1669570     0.7037260
  H        2.8902180    -0.8648860    -0.8210400
  H       -2.4734110     1.3924490     1.4942360
  H       -1.4657670    -0.0174870     1.8826360
  H       -0.7265980     1.5882150     1.6720380
  H       -2.5077070    -0.3221910    -1.7846410
  H       -3.4761370     0.5791400    -0.6026570
  H       -2.8041960    -1.0106880    -0.1761720
units angstrom
no_reorient  #important for SAPT in psi4, default
symmetry c1  #important for SAPT in psi4, default
}

set PROPERTIES_ORIGIN ["COM"]
properties('MP2/aug-cc-pvtz', properties = ['dipole'])
--------------------------------------------------------------------------

    Molecular point group: c1
  Charge       = 0
  Multiplicity = 1
  Basis Set: AUG-CC-PVTZ
    Blend: AUG-CC-PVTZ
  Basis Set: (AUG-CC-PVTZ AUX)
    Blend: AUG-CC-PVTZ-JKFIT

    Orbital Energies [Eh]
    ---------------------

    Doubly Occupied:

       1A    -92.054416     2A    -20.496435     3A    -11.267519
       4A    -11.266245     5A    -11.237477     6A    -11.226014
       7A    -11.225384     8A    -11.223238     9A     -9.041762
      10A     -6.723124    11A     -6.722979    12A     -6.721711
      13A     -1.325575    14A     -1.104636    15A     -1.076031
      16A     -0.948809    17A     -0.945095    18A     -0.915314
      19A     -0.812150    20A     -0.758423    21A     -0.667243
      22A     -0.640404    23A     -0.620347    24A     -0.612194
      25A     -0.577291    26A     -0.573247    27A     -0.554241
      28A     -0.552637    29A     -0.531599    30A     -0.521915
      31A     -0.512081    32A     -0.503116    33A     -0.494381
      34A     -0.488780    35A     -0.486163    36A     -0.392429
      37A     -0.356280

  @DF-RHF Final Energy:  -707.83927267634022

   => Energetics <=

    Nuclear Repulsion Energy =            512.2054373392485331
    One-Electron Energy =               -1987.7360502040662595
    Two-Electron Energy =                 767.6913401884773975
    Total Energy =                       -707.8392726763402152
  Basis Set: (AUG-CC-PVTZ AUX)
    Blend: AUG-CC-PVTZ-RI
    Molecular point group: c1

    Geometry (in Angstrom), charge = 0, multiplicity = 1:

       Center              X                  Y                   Z               Mass
    ------------   -----------------  -----------------  -----------------  -----------------
         S           -0.020429192771    -0.577474162957    -0.474182721705    31.972071174400
         O           -0.241264492771    -1.705822162957     0.490903278295    15.994914619570
         C            1.432284507229     0.385128837043     0.265705278295    12.000000000000
         C           -1.345588492771     0.656363837043    -0.153017721705    12.000000000000
         C            1.691320507229     1.676535837043    -0.500020721705    12.000000000000
         C            2.624161507229    -0.566846162957     0.228682278295    12.000000000000
         C           -1.492405492771     0.978627837043     1.327203278295    12.000000000000
         C           -2.599518492771    -0.018525162957    -0.704937721705    12.000000000000
         H            1.171475507229     0.585223837043     1.310226278295     1.007825032230
         H           -1.113566492771     1.548825837043    -0.745093721705     1.007825032230
         H            2.635890507229     2.115460837043    -0.164710721705     1.007825032230
         H            1.779195507229     1.482004837043    -1.574411721705     1.007825032230
         H            0.905958507229     2.420481837043    -0.345763721705     1.007825032230
         H            2.383151507229    -1.498608162957     0.744850278295     1.007825032230
         H            3.483759507229    -0.102481162957     0.721038278295     1.007825032230
         H            2.904607507229    -0.800410162957    -0.803727721705     1.007825032230
         H           -2.459021492771     1.456924837043     1.511548278295     1.007825032230
         H           -1.451377492771     0.046988837043     1.899948278295     1.007825032230
         H           -0.712208492771     1.652690837043     1.689350278295     1.007825032230
         H           -2.493317492771    -0.257715162957    -1.767328721705     1.007825032230
         H           -3.461747492771     0.643615837043    -0.585344721705     1.007825032230
         H           -2.789806492771    -0.946212162957    -0.158859721705     1.007825032230

  Basis Set: AUG-CC-PVTZ
    Blend: AUG-CC-PVTZ
  Basis Set: (AUG-CC-PVTZ AUX)
    Blend: AUG-CC-PVTZ-JKFIT
	 Reference Energy          =    -707.8392726763402152 [Eh]
	 Singles Energy            =      -0.0000000000000000 [Eh]
	 Same-Spin Energy          =      -0.3875385430593854 [Eh]
	 Opposite-Spin Energy      =      -1.3084291794501195 [Eh]
	 Correlation Energy        =      -1.6959677225095049 [Eh]
	 Total Energy              =    -709.5352403988497372 [Eh]

	 ================> DF-SCS-MP2 Energies <==================
	-----------------------------------------------------------
	 SCS Same-Spin Scale       =       0.3333333333333333 [-]
	 SCS Opposite-Spin Scale   =       1.2000000000000000 [-]
	 SCS Same-Spin Energy      =      -0.1291795143531285 [Eh]
	 SCS Opposite-Spin Energy  =      -1.5701150153401433 [Eh]
	 SCS Correlation Energy    =      -1.6992945296932718 [Eh]
	 SCS Total Energy          =    -709.5385672060334628 [Eh]
	-----------------------------------------------------------

  Dipole Moment: [D]
     X:     0.4022      Y:     3.6981      Z:    -0.6827     Total:     3.7820

*** Psi4 exiting successfully. Buy a developer a beer!
