                               Psi4 1.3.2 release

  ==> Input File <==

--------------------------------------------------------------------------
#psi4
#
memory 32 gb

molecule  {
0 1
  S        0.0075120    -0.6017700    -0.4647820
  O       -0.3421871    -1.7188330     0.5074005
  C        1.4178950     0.3206530     0.2483930
  C       -1.3599780     0.5918880    -0.1703300
  C        1.6769310     1.6120600    -0.5173330
  C        2.6097720    -0.6313220     0.2113700
  C       -1.5067950     0.9141520     1.3098910
  C       -2.6139080    -0.0830010    -0.7222500
  H        1.1570860     0.5207480     1.2929140
  H       -1.1279560     1.4843500    -0.7624060
  H        2.6215010     2.0509850    -0.1820230
  H        1.7648060     1.4175290    -1.5917240
  H        0.8915690     2.3560060    -0.3630760
  H        2.3687620    -1.5630840     0.7275380
  H        3.4693700    -0.1669570     0.7037260
  H        2.8902180    -0.8648860    -0.8210400
  H       -2.4734110     1.3924490     1.4942360
  H       -1.4657670    -0.0174870     1.8826360
  H       -0.7265980     1.5882150     1.6720380
  H       -2.5077070    -0.3221910    -1.7846410
  H       -3.4761370     0.5791400    -0.6026570
  H       -2.8041960    -1.0106880    -0.1761720
units angstrom
no_reorient  #important for SAPT in psi4, default
symmetry c1  #important for SAPT in psi4, default
}

set PROPERTIES_ORIGIN ["COM"]
properties('MP2/aug-cc-pvtz', properties = ['dipole'])
--------------------------------------------------------------------------

    Molecular point group: c1
  Charge       = 0
  Multiplicity = 1
  Basis Set: AUG-CC-PVTZ
    Blend: AUG-CC-PVTZ
  Basis Set: (AUG-CC-PVTZ AUX)
    Blend: AUG-CC-PVTZ-JKFIT

    Orbital Energies [Eh]
    ---------------------

    Doubly Occupied:

       1A    -92.052600     2A    -20.492529     3A    -11.267722
       4A    -11.265718     5A    -11.240651     6A    -11.227121
       7A    -11.223575     8A    -11.223560     9A     -9.040667
      10A     -6.722105    11A     -6.721930    12A     -6.720639
      13A     -1.314064    14A     -1.108764    15A     -1.077730
      16A     -0.952473    17A     -0.942796    18A     -0.921383
      19A     -0.816770    20A     -0.757027    21A     -0.668595
      22A     -0.642663    23A     -0.620719    24A     -0.612104
      25A     -0.579010    26A     -0.572307    27A     -0.556663
      28A     -0.551647    29A     -0.529262    30A     -0.518669
      31A     -0.511964    32A     -0.504122    33A     -0.493621
      34A     -0.486407    35A     -0.482151    36A     -0.396299
      37A     -0.356929

  @DF-RHF Final Energy:  -707.84013642396644

   => Energetics <=

    Nuclear Repulsion Energy =            513.9459418055704418
    One-Electron Energy =               -1991.2262425213350525
    Two-Electron Energy =                 769.4401642917980553
    Total Energy =                       -707.8401364239664417
  Basis Set: (AUG-CC-PVTZ AUX)
    Blend: AUG-CC-PVTZ-RI
    Molecular point group: c1

    Geometry (in Angstrom), charge = 0, multiplicity = 1:

       Center              X                  Y                   Z               Mass
    ------------   -----------------  -----------------  -----------------  -----------------
         S            0.022130401813    -0.553015154561    -0.457873108026    31.972071174400
         O           -0.327568698187    -1.670078154561     0.514309391974    15.994914619570
         C            1.432513401813     0.369407845439     0.255301891974    12.000000000000
         C           -1.345359598187     0.640642845439    -0.163421108026    12.000000000000
         C            1.691549401813     1.660814845439    -0.510424108026    12.000000000000
         C            2.624390401813    -0.582567154561     0.218278891974    12.000000000000
         C           -1.492176598187     0.962906845439     1.316799891974    12.000000000000
         C           -2.599289598187    -0.034246154561    -0.715341108026    12.000000000000
         H            1.171704401813     0.569502845439     1.299822891974     1.007825032230
         H           -1.113337598187     1.533104845439    -0.755497108026     1.007825032230
         H            2.636119401813     2.099739845439    -0.175114108026     1.007825032230
         H            1.779424401813     1.466283845439    -1.584815108026     1.007825032230
         H            0.906187401813     2.404760845439    -0.356167108026     1.007825032230
         H            2.383380401813    -1.514329154561     0.734446891974     1.007825032230
         H            3.483988401813    -0.118202154561     0.710634891974     1.007825032230
         H            2.904836401813    -0.816131154561    -0.814131108026     1.007825032230
         H           -2.458792598187     1.441203845439     1.501144891974     1.007825032230
         H           -1.451148598187     0.031267845439     1.889544891974     1.007825032230
         H           -0.711979598187     1.636969845439     1.678946891974     1.007825032230
         H           -2.493088598187    -0.273436154561    -1.777732108026     1.007825032230
         H           -3.461518598187     0.627894845439    -0.595748108026     1.007825032230
         H           -2.789577598187    -0.961933154561    -0.169263108026     1.007825032230

  Basis Set: AUG-CC-PVTZ
    Blend: AUG-CC-PVTZ
  Basis Set: (AUG-CC-PVTZ AUX)
    Blend: AUG-CC-PVTZ-JKFIT
	 Reference Energy          =    -707.8401364239664417 [Eh]
	 Singles Energy            =      -0.0000000000000000 [Eh]
	 Same-Spin Energy          =      -0.3879799309992243 [Eh]
	 Opposite-Spin Energy      =      -1.3084874160081599 [Eh]
	 Correlation Energy        =      -1.6964673470073843 [Eh]
	 Total Energy              =    -709.5366037709737839 [Eh]

	 ================> DF-SCS-MP2 Energies <==================
	-----------------------------------------------------------
	 SCS Same-Spin Scale       =       0.3333333333333333 [-]
	 SCS Opposite-Spin Scale   =       1.2000000000000000 [-]
	 SCS Same-Spin Energy      =      -0.1293266436664081 [Eh]
	 SCS Opposite-Spin Energy  =      -1.5701848992097918 [Eh]
	 SCS Correlation Energy    =      -1.6995115428761998 [Eh]
	 SCS Total Energy          =    -709.5396479668426082 [Eh]
	-----------------------------------------------------------

  Dipole Moment: [D]
     X:     0.7685      Y:     3.7834      Z:    -0.7328     Total:     3.9296

*** Psi4 exiting successfully. Buy a developer a beer!
