                               Psi4 1.3.2 release

  ==> Input File <==

--------------------------------------------------------------------------
#psi4
#
memory 32 gb

molecule  {
0 1
  S        0.0075120    -0.6017700    -0.4647820
  O       -0.2902448    -1.9238903     0.5969315
  C        1.4178950     0.3206530     0.2483930
  C       -1.3599780     0.5918880    -0.1703300
  C        1.6769310     1.6120600    -0.5173330
  C        2.6097720    -0.6313220     0.2113700
  C       -1.5067950     0.9141520     1.3098910
  C       -2.6139080    -0.0830010    -0.7222500
  H        1.1570860     0.5207480     1.2929140
  H       -1.1279560     1.4843500    -0.7624060
  H        2.6215010     2.0509850    -0.1820230
  H        1.7648060     1.4175290    -1.5917240
  H        0.8915690     2.3560060    -0.3630760
  H        2.3687620    -1.5630840     0.7275380
  H        3.4693700    -0.1669570     0.7037260
  H        2.8902180    -0.8648860    -0.8210400
  H       -2.4734110     1.3924490     1.4942360
  H       -1.4657670    -0.0174870     1.8826360
  H       -0.7265980     1.5882150     1.6720380
  H       -2.5077070    -0.3221910    -1.7846410
  H       -3.4761370     0.5791400    -0.6026570
  H       -2.8041960    -1.0106880    -0.1761720
units angstrom
no_reorient  #important for SAPT in psi4, default
symmetry c1  #important for SAPT in psi4, default
}

set PROPERTIES_ORIGIN ["COM"]
properties('MP2/aug-cc-pvtz', properties = ['dipole'])
--------------------------------------------------------------------------

    Molecular point group: c1
  Charge       = 0
  Multiplicity = 1
  Basis Set: AUG-CC-PVTZ
    Blend: AUG-CC-PVTZ
  Basis Set: (AUG-CC-PVTZ AUX)
    Blend: AUG-CC-PVTZ-JKFIT

    Orbital Energies [Eh]
    ---------------------

    Doubly Occupied:

       1A    -92.047450     2A    -20.502914     3A    -11.278776
       4A    -11.277824     5A    -11.244745     6A    -11.228381
       7A    -11.228264     8A    -11.227505     9A     -9.037036
      10A     -6.718326    11A     -6.717696    12A     -6.716701
      13A     -1.228414    14A     -1.113845    15A     -1.083086
      16A     -0.955239    17A     -0.947757    18A     -0.935274
      19A     -0.820427    20A     -0.765109    21A     -0.668127
      22A     -0.646190    23A     -0.621874    24A     -0.605926
      25A     -0.580317    26A     -0.574101    27A     -0.558556
      28A     -0.552202    29A     -0.517009    30A     -0.514237
      31A     -0.510833    32A     -0.505890    33A     -0.481703
      34A     -0.477359    35A     -0.455996    36A     -0.398284
      37A     -0.369422

  @DF-RHF Final Energy:  -707.80958949334820

   => Energetics <=

    Nuclear Repulsion Energy =            505.6388782654377678
    One-Electron Energy =               -1974.6713466536339183
    Two-Electron Energy =                 761.2228788948478950
    Total Energy =                       -707.8095894933481986
  Basis Set: (AUG-CC-PVTZ AUX)
    Blend: AUG-CC-PVTZ-RI
    Molecular point group: c1

    Geometry (in Angstrom), charge = 0, multiplicity = 1:

       Center              X                  Y                   Z               Mass
    ------------   -----------------  -----------------  -----------------  -----------------
         S            0.015933846644    -0.528552455140    -0.468553878434    31.972071174400
         O           -0.281822953356    -1.850672755140     0.593159621566    15.994914619570
         C            1.426316846644     0.393870544860     0.244621121566    12.000000000000
         C           -1.351556153356     0.665105544860    -0.174101878434    12.000000000000
         C            1.685352846644     1.685277544860    -0.521104878434    12.000000000000
         C            2.618193846644    -0.558104455140     0.207598121566    12.000000000000
         C           -1.498373153356     0.987369544860     1.306119121566    12.000000000000
         C           -2.605486153356    -0.009783455140    -0.726021878434    12.000000000000
         H            1.165507846644     0.593965544860     1.289142121566     1.007825032230
         H           -1.119534153356     1.557567544860    -0.766177878434     1.007825032230
         H            2.629922846644     2.124202544860    -0.185794878434     1.007825032230
         H            1.773227846644     1.490746544860    -1.595495878434     1.007825032230
         H            0.899990846644     2.429223544860    -0.366847878434     1.007825032230
         H            2.377183846644    -1.489866455140     0.723766121566     1.007825032230
         H            3.477791846644    -0.093739455140     0.699954121566     1.007825032230
         H            2.898639846644    -0.791668455140    -0.824811878434     1.007825032230
         H           -2.464989153356     1.465666544860     1.490464121566     1.007825032230
         H           -1.457345153356     0.055730544860     1.878864121566     1.007825032230
         H           -0.718176153356     1.661432544860     1.668266121566     1.007825032230
         H           -2.499285153356    -0.248973455140    -1.788412878434     1.007825032230
         H           -3.467715153356     0.652357544860    -0.606428878434     1.007825032230
         H           -2.795774153356    -0.937470455140    -0.179943878434     1.007825032230

  Basis Set: AUG-CC-PVTZ
    Blend: AUG-CC-PVTZ
  Basis Set: (AUG-CC-PVTZ AUX)
    Blend: AUG-CC-PVTZ-JKFIT
	 Reference Energy          =    -707.8095894933481986 [Eh]
	 Singles Energy            =      -0.0000000000000000 [Eh]
	 Same-Spin Energy          =      -0.3880097026074851 [Eh]
	 Opposite-Spin Energy      =      -1.3130817813325217 [Eh]
	 Correlation Energy        =      -1.7010914839400069 [Eh]
	 Total Energy              =    -709.5106809772881888 [Eh]

	 ================> DF-SCS-MP2 Energies <==================
	-----------------------------------------------------------
	 SCS Same-Spin Scale       =       0.3333333333333333 [-]
	 SCS Opposite-Spin Scale   =       1.2000000000000000 [-]
	 SCS Same-Spin Energy      =      -0.1293365675358283 [Eh]
	 SCS Opposite-Spin Energy  =      -1.5756981375990260 [Eh]
	 SCS Correlation Energy    =      -1.7050347051348544 [Eh]
	 SCS Total Energy          =    -709.5146241984830340 [Eh]
	-----------------------------------------------------------

  Dipole Moment: [D]
     X:     0.7265      Y:     4.8887      Z:    -1.1027     Total:     5.0640

*** Psi4 exiting successfully. Buy a developer a beer!
