                               Psi4 1.3.2 release

  ==> Input File <==

--------------------------------------------------------------------------
#psi4
#
memory 32 gb

molecule  {
0 1
  S        0.0849241    -0.4689842    -0.5806452
  O       -0.2556540    -1.7702980     0.4735910
  C        1.4178950     0.3206530     0.2483930
  C       -1.3599780     0.5918880    -0.1703300
  C        1.6769310     1.6120600    -0.5173330
  C        2.6097720    -0.6313220     0.2113700
  C       -1.5067950     0.9141520     1.3098910
  C       -2.6139080    -0.0830010    -0.7222500
  H        1.1570860     0.5207480     1.2929140
  H       -1.1279560     1.4843500    -0.7624060
  H        2.6215010     2.0509850    -0.1820230
  H        1.7648060     1.4175290    -1.5917240
  H        0.8915690     2.3560060    -0.3630760
  H        2.3687620    -1.5630840     0.7275380
  H        3.4693700    -0.1669570     0.7037260
  H        2.8902180    -0.8648860    -0.8210400
  H       -2.4734110     1.3924490     1.4942360
  H       -1.4657670    -0.0174870     1.8826360
  H       -0.7265980     1.5882150     1.6720380
  H       -2.5077070    -0.3221910    -1.7846410
  H       -3.4761370     0.5791400    -0.6026570
  H       -2.8041960    -1.0106880    -0.1761720
units angstrom
no_reorient  #important for SAPT in psi4, default
symmetry c1  #important for SAPT in psi4, default
}

set PROPERTIES_ORIGIN ["COM"]
properties('MP2/aug-cc-pvtz', properties = ['dipole'])
--------------------------------------------------------------------------

    Molecular point group: c1
  Charge       = 0
  Multiplicity = 1
  Basis Set: AUG-CC-PVTZ
    Blend: AUG-CC-PVTZ
  Basis Set: (AUG-CC-PVTZ AUX)
    Blend: AUG-CC-PVTZ-JKFIT

    Orbital Energies [Eh]
    ---------------------

    Doubly Occupied:

       1A    -92.047555     2A    -20.488693     3A    -11.276533
       4A    -11.271254     5A    -11.242349     6A    -11.228208
       7A    -11.227523     8A    -11.227394     9A     -9.038287
      10A     -6.719521    11A     -6.719111    12A     -6.717729
      13A     -1.233089    14A     -1.115116    15A     -1.082306
      16A     -0.955389    17A     -0.945975    18A     -0.937355
      19A     -0.824209    20A     -0.763307    21A     -0.669169
      22A     -0.645232    23A     -0.622694    24A     -0.605009
      25A     -0.580961    26A     -0.572342    27A     -0.560040
      28A     -0.549201    29A     -0.517969    30A     -0.514830
      31A     -0.511936    32A     -0.505016    33A     -0.484432
      34A     -0.473960    35A     -0.449599    36A     -0.391338
      37A     -0.368612

  @DF-RHF Final Energy:  -707.80740233928736

   => Energetics <=

    Nuclear Repulsion Energy =            510.6451948640048499
    One-Electron Energy =               -1984.7387070830977791
    Two-Electron Energy =                 766.2861098798055082
    Total Energy =                       -707.8074023392873642
  Basis Set: (AUG-CC-PVTZ AUX)
    Blend: AUG-CC-PVTZ-RI
    Molecular point group: c1

    Geometry (in Angstrom), charge = 0, multiplicity = 1:

       Center              X                  Y                   Z               Mass
    ------------   -----------------  -----------------  -----------------  -----------------
         S            0.070759578079    -0.445754020275    -0.542074045100    31.972071174400
         O           -0.269818521921    -1.747067820275     0.512162154900    15.994914619570
         C            1.403730478079     0.343883179725     0.286964154900    12.000000000000
         C           -1.374142521921     0.615118179725    -0.131758845100    12.000000000000
         C            1.662766478079     1.635290179725    -0.478761845100    12.000000000000
         C            2.595607478079    -0.608091820275     0.249941154900    12.000000000000
         C           -1.520959521921     0.937382179725     1.348462154900    12.000000000000
         C           -2.628072521921    -0.059770820275    -0.683678845100    12.000000000000
         H            1.142921478079     0.543978179725     1.331485154900     1.007825032230
         H           -1.142120521921     1.507580179725    -0.723834845100     1.007825032230
         H            2.607336478079     2.074215179725    -0.143451845100     1.007825032230
         H            1.750641478079     1.440759179725    -1.553152845100     1.007825032230
         H            0.877404478079     2.379236179725    -0.324504845100     1.007825032230
         H            2.354597478079    -1.539853820275     0.766109154900     1.007825032230
         H            3.455205478079    -0.143726820275     0.742297154900     1.007825032230
         H            2.876053478079    -0.841655820275    -0.782468845100     1.007825032230
         H           -2.487575521921     1.415679179725     1.532807154900     1.007825032230
         H           -1.479931521921     0.005743179725     1.921207154900     1.007825032230
         H           -0.740762521921     1.611445179725     1.710609154900     1.007825032230
         H           -2.521871521921    -0.298960820275    -1.746069845100     1.007825032230
         H           -3.490301521921     0.602370179725    -0.564085845100     1.007825032230
         H           -2.818360521921    -0.987457820275    -0.137600845100     1.007825032230

  Basis Set: AUG-CC-PVTZ
    Blend: AUG-CC-PVTZ
  Basis Set: (AUG-CC-PVTZ AUX)
    Blend: AUG-CC-PVTZ-JKFIT
	 Reference Energy          =    -707.8074023392873642 [Eh]
	 Singles Energy            =      -0.0000000000000000 [Eh]
	 Same-Spin Energy          =      -0.3889268924795961 [Eh]
	 Opposite-Spin Energy      =      -1.3132041749897365 [Eh]
	 Correlation Energy        =      -1.7021310674693326 [Eh]
	 Total Energy              =    -709.5095334067566455 [Eh]

	 ================> DF-SCS-MP2 Energies <==================
	-----------------------------------------------------------
	 SCS Same-Spin Scale       =       0.3333333333333333 [-]
	 SCS Opposite-Spin Scale   =       1.2000000000000000 [-]
	 SCS Same-Spin Energy      =      -0.1296422974931987 [Eh]
	 SCS Opposite-Spin Energy  =      -1.5758450099876837 [Eh]
	 SCS Correlation Energy    =      -1.7054873074808825 [Eh]
	 SCS Total Energy          =    -709.5128896467682580 [Eh]
	-----------------------------------------------------------

  Dipole Moment: [D]
     X:     0.7890      Y:     4.6906      Z:    -0.9238     Total:     4.8454

*** Psi4 exiting successfully. Buy a developer a beer!
