                               Psi4 1.3.2 release

  ==> Input File <==

--------------------------------------------------------------------------
#psi4
#
memory 32 gb

molecule  {
0 1
  S       -0.0134483    -0.6220449    -0.4781854
  O       -0.2556540    -1.7702980     0.4735910
  C        1.4178950     0.3206530     0.2483930
  C       -1.3599780     0.5918880    -0.1703300
  C        1.6769310     1.6120600    -0.5173330
  C        2.6097720    -0.6313220     0.2113700
  C       -1.5067950     0.9141520     1.3098910
  C       -2.6139080    -0.0830010    -0.7222500
  H        1.1570860     0.5207480     1.2929140
  H       -1.1279560     1.4843500    -0.7624060
  H        2.6215010     2.0509850    -0.1820230
  H        1.7648060     1.4175290    -1.5917240
  H        0.8915690     2.3560060    -0.3630760
  H        2.3687620    -1.5630840     0.7275380
  H        3.4693700    -0.1669570     0.7037260
  H        2.8902180    -0.8648860    -0.8210400
  H       -2.4734110     1.3924490     1.4942360
  H       -1.4657670    -0.0174870     1.8826360
  H       -0.7265980     1.5882150     1.6720380
  H       -2.5077070    -0.3221910    -1.7846410
  H       -3.4761370     0.5791400    -0.6026570
  H       -2.8041960    -1.0106880    -0.1761720
units angstrom
no_reorient  #important for SAPT in psi4, default
symmetry c1  #important for SAPT in psi4, default
}

set PROPERTIES_ORIGIN ["COM"]
properties('MP2/aug-cc-pvtz', properties = ['dipole'])
--------------------------------------------------------------------------

    Molecular point group: c1
  Charge       = 0
  Multiplicity = 1
  Basis Set: AUG-CC-PVTZ
    Blend: AUG-CC-PVTZ
  Basis Set: (AUG-CC-PVTZ AUX)
    Blend: AUG-CC-PVTZ-JKFIT

    Orbital Energies [Eh]
    ---------------------

    Doubly Occupied:

       1A    -92.053282     2A    -20.495552     3A    -11.267284
       4A    -11.267008     5A    -11.238627     6A    -11.226011
       7A    -11.225569     8A    -11.224219     9A     -9.040937
      10A     -6.722347    11A     -6.722183    12A     -6.720925
      13A     -1.319888    14A     -1.106906    15A     -1.077530
      16A     -0.949966    17A     -0.945003    18A     -0.918423
      19A     -0.814617    20A     -0.757941    21A     -0.668278
      22A     -0.641470    23A     -0.620927    24A     -0.611837
      25A     -0.578098    26A     -0.573265    27A     -0.554845
      28A     -0.552766    29A     -0.530715    30A     -0.520981
      31A     -0.512094    32A     -0.503757    33A     -0.493788
      34A     -0.488650    35A     -0.485252    36A     -0.395237
      37A     -0.355965

  @DF-RHF Final Energy:  -707.84081255140745

   => Energetics <=

    Nuclear Repulsion Energy =            512.7720499101881160
    One-Electron Energy =               -1988.8614413357738613
    Two-Electron Energy =                 768.2485788741782926
    Total Energy =                       -707.8408125514074527
  Basis Set: (AUG-CC-PVTZ AUX)
    Blend: AUG-CC-PVTZ-RI
    Molecular point group: c1

    Geometry (in Angstrom), charge = 0, multiplicity = 1:

       Center              X                  Y                   Z               Mass
    ------------   -----------------  -----------------  -----------------  -----------------
         S           -0.004154807100    -0.562315659876    -0.464046946823    31.972071174400
         O           -0.246360507100    -1.710568759876     0.487729453177    15.994914619570
         C            1.427188492900     0.380382240124     0.262531453177    12.000000000000
         C           -1.350684507100     0.651617240124    -0.156191546823    12.000000000000
         C            1.686224492900     1.671789240124    -0.503194546823    12.000000000000
         C            2.619065492900    -0.571592759876     0.225508453177    12.000000000000
         C           -1.497501507100     0.973881240124     1.324029453177    12.000000000000
         C           -2.604614507100    -0.023271759876    -0.708111546823    12.000000000000
         H            1.166379492900     0.580477240124     1.307052453177     1.007825032230
         H           -1.118662507100     1.544079240124    -0.748267546823     1.007825032230
         H            2.630794492900     2.110714240124    -0.167884546823     1.007825032230
         H            1.774099492900     1.477258240124    -1.577585546823     1.007825032230
         H            0.900862492900     2.415735240124    -0.348937546823     1.007825032230
         H            2.378055492900    -1.503354759876     0.741676453177     1.007825032230
         H            3.478663492900    -0.107227759876     0.717864453177     1.007825032230
         H            2.899511492900    -0.805156759876    -0.806901546823     1.007825032230
         H           -2.464117507100     1.452178240124     1.508374453177     1.007825032230
         H           -1.456473507100     0.042242240124     1.896774453177     1.007825032230
         H           -0.717304507100     1.647944240124     1.686176453177     1.007825032230
         H           -2.498413507100    -0.262461759876    -1.770502546823     1.007825032230
         H           -3.466843507100     0.638869240124    -0.588518546823     1.007825032230
         H           -2.794902507100    -0.950958759876    -0.162033546823     1.007825032230

  Basis Set: AUG-CC-PVTZ
    Blend: AUG-CC-PVTZ
  Basis Set: (AUG-CC-PVTZ AUX)
    Blend: AUG-CC-PVTZ-JKFIT
	 Reference Energy          =    -707.8408125514074527 [Eh]
	 Singles Energy            =      -0.0000000000000000 [Eh]
	 Same-Spin Energy          =      -0.3876474192687048 [Eh]
	 Opposite-Spin Energy      =      -1.3083099104382858 [Eh]
	 Correlation Energy        =      -1.6959573297069905 [Eh]
	 Total Energy              =    -709.5367698811144237 [Eh]

	 ================> DF-SCS-MP2 Energies <==================
	-----------------------------------------------------------
	 SCS Same-Spin Scale       =       0.3333333333333333 [-]
	 SCS Opposite-Spin Scale   =       1.2000000000000000 [-]
	 SCS Same-Spin Energy      =      -0.1292158064229016 [Eh]
	 SCS Opposite-Spin Energy  =      -1.5699718925259429 [Eh]
	 SCS Correlation Energy    =      -1.6991876989488446 [Eh]
	 SCS Total Energy          =    -709.5400002503563428 [Eh]
	-----------------------------------------------------------

  Dipole Moment: [D]
     X:     0.4728      Y:     3.7905      Z:    -0.6661     Total:     3.8775

*** Psi4 exiting successfully. Buy a developer a beer!
