                               Psi4 1.3.2 release

  ==> Input File <==

--------------------------------------------------------------------------
#psi4
#
memory 32 gb

molecule  {
0 1
  S        0.0075120    -0.6017700    -0.4647820
  O       -0.2556540    -1.7702980     0.4735910
  C        1.4178950     0.3206530     0.2483930
  C       -1.3599780     0.5918880    -0.1703300
  C        1.6769310     1.6120600    -0.5173330
  C        2.6097720    -0.6313220     0.2113700
  C       -1.5067950     0.9141520     1.3098910
  C       -2.6139080    -0.0830010    -0.7222500
  H        1.1570860     0.5207480     1.2929140
  H       -1.1279560     1.4843500    -0.7624060
  H        2.6215010     2.0509850    -0.1820230
  H        1.7648060     1.4175290    -1.5917240
  H        0.8915690     2.3560060    -0.3630760
  H        2.3687620    -1.5630840     0.7275380
  H        3.4693700    -0.1669570     0.7037260
  H        2.8902180    -0.8648860    -0.8210400
  H       -2.4734110     1.3924490     1.4942360
  H       -1.4657670    -0.0174870     1.8826360
  H       -0.7265980     1.5882150     1.6720380
  H       -2.5077070    -0.3221910    -1.7846410
  H       -3.4761370     0.5791400    -0.6026570
  H       -2.8041960    -1.0106880    -0.1761720
units angstrom
no_reorient  #important for SAPT in psi4, default
symmetry c1  #important for SAPT in psi4, default
}

set PROPERTIES_ORIGIN ["COM"]
properties('MP2/aug-cc-pvtz', properties = ['dipole'])
--------------------------------------------------------------------------

    Molecular point group: c1
  Charge       = 0
  Multiplicity = 1
  Basis Set: AUG-CC-PVTZ
    Blend: AUG-CC-PVTZ
  Basis Set: (AUG-CC-PVTZ AUX)
    Blend: AUG-CC-PVTZ-JKFIT

    Orbital Energies [Eh]
    ---------------------

    Doubly Occupied:

       1A    -92.051981     2A    -20.494636     3A    -11.267791
       4A    -11.267025     5A    -11.239823     6A    -11.226006
       7A    -11.225766     8A    -11.225264     9A     -9.040019
      10A     -6.721483    11A     -6.721292    12A     -6.720035
      13A     -1.313949    14A     -1.109642    15A     -1.078881
      16A     -0.951230    17A     -0.944898    18A     -0.921640
      19A     -0.817102    20A     -0.757498    21A     -0.669401
      22A     -0.642563    23A     -0.621550    24A     -0.611483
      25A     -0.578996    26A     -0.573261    27A     -0.555756
      28A     -0.552617    29A     -0.529810    30A     -0.520285
      31A     -0.512282    32A     -0.504331    33A     -0.493205
      34A     -0.488377    35A     -0.483967    36A     -0.397773
      37A     -0.355330

  @DF-RHF Final Energy:  -707.84118973781756

   => Energetics <=

    Nuclear Repulsion Energy =            513.3442141250050099
    One-Electron Energy =               -1989.9969185824668330
    Two-Electron Energy =                 768.8115147196442649
    Total Energy =                       -707.8411897378175581
  Basis Set: (AUG-CC-PVTZ AUX)
    Blend: AUG-CC-PVTZ-RI
    Molecular point group: c1

    Geometry (in Angstrom), charge = 0, multiplicity = 1:

       Center              X                  Y                   Z               Mass
    ------------   -----------------  -----------------  -----------------  -----------------
         S            0.011807271569    -0.546875539801    -0.453839739615    31.972071174400
         O           -0.251358728431    -1.715403539801     0.484533260385    15.994914619570
         C            1.422190271569     0.375547460199     0.259335260385    12.000000000000
         C           -1.355682728431     0.646782460199    -0.159387739615    12.000000000000
         C            1.681226271569     1.666954460199    -0.506390739615    12.000000000000
         C            2.614067271569    -0.576427539801     0.222312260385    12.000000000000
         C           -1.502499728431     0.969046460199     1.320833260385    12.000000000000
         C           -2.609612728431    -0.028106539801    -0.711307739615    12.000000000000
         H            1.161381271569     0.575642460199     1.303856260385     1.007825032230
         H           -1.123660728431     1.539244460199    -0.751463739615     1.007825032230
         H            2.625796271569     2.105879460199    -0.171080739615     1.007825032230
         H            1.769101271569     1.472423460199    -1.580781739615     1.007825032230
         H            0.895864271569     2.410900460199    -0.352133739615     1.007825032230
         H            2.373057271569    -1.508189539801     0.738480260385     1.007825032230
         H            3.473665271569    -0.112062539801     0.714668260385     1.007825032230
         H            2.894513271569    -0.809991539801    -0.810097739615     1.007825032230
         H           -2.469115728431     1.447343460199     1.505178260385     1.007825032230
         H           -1.461471728431     0.037407460199     1.893578260385     1.007825032230
         H           -0.722302728431     1.643109460199     1.682980260385     1.007825032230
         H           -2.503411728431    -0.267296539801    -1.773698739615     1.007825032230
         H           -3.471841728431     0.634034460199    -0.591714739615     1.007825032230
         H           -2.799900728431    -0.955793539801    -0.165229739615     1.007825032230

  Basis Set: AUG-CC-PVTZ
    Blend: AUG-CC-PVTZ
  Basis Set: (AUG-CC-PVTZ AUX)
    Blend: AUG-CC-PVTZ-JKFIT
	 Reference Energy          =    -707.8411897378175581 [Eh]
	 Singles Energy            =      -0.0000000000000000 [Eh]
	 Same-Spin Energy          =      -0.3878116838458623 [Eh]
	 Opposite-Spin Energy      =      -1.3082962853075442 [Eh]
	 Correlation Energy        =      -1.6961079691534064 [Eh]
	 Total Energy              =    -709.5372977069710032 [Eh]

	 ================> DF-SCS-MP2 Energies <==================
	-----------------------------------------------------------
	 SCS Same-Spin Scale       =       0.3333333333333333 [-]
	 SCS Opposite-Spin Scale   =       1.2000000000000000 [-]
	 SCS Same-Spin Energy      =      -0.1292705612819541 [Eh]
	 SCS Opposite-Spin Energy  =      -1.5699555423690530 [Eh]
	 SCS Correlation Energy    =      -1.6992261036510070 [Eh]
	 SCS Total Energy          =    -709.5404158414685298 [Eh]
	-----------------------------------------------------------

  Dipole Moment: [D]
     X:     0.5438      Y:     3.8851      Z:    -0.6508     Total:     3.9766

*** Psi4 exiting successfully. Buy a developer a beer!
