                               Psi4 1.3.2 release

  ==> Input File <==

--------------------------------------------------------------------------
#psi4
#
memory 32 gb

molecule  {
0 1
  S       -0.0216682    -0.6431936    -0.4253802
  O       -0.2556540    -1.7702980     0.4735910
  C        1.4178950     0.3206530     0.2483930
  C       -1.3599780     0.5918880    -0.1703300
  C        1.6769310     1.6120600    -0.5173330
  C        2.6097720    -0.6313220     0.2113700
  C       -1.5067950     0.9141520     1.3098910
  C       -2.6139080    -0.0830010    -0.7222500
  H        1.1570860     0.5207480     1.2929140
  H       -1.1279560     1.4843500    -0.7624060
  H        2.6215010     2.0509850    -0.1820230
  H        1.7648060     1.4175290    -1.5917240
  H        0.8915690     2.3560060    -0.3630760
  H        2.3687620    -1.5630840     0.7275380
  H        3.4693700    -0.1669570     0.7037260
  H        2.8902180    -0.8648860    -0.8210400
  H       -2.4734110     1.3924490     1.4942360
  H       -1.4657670    -0.0174870     1.8826360
  H       -0.7265980     1.5882150     1.6720380
  H       -2.5077070    -0.3221910    -1.7846410
  H       -3.4761370     0.5791400    -0.6026570
  H       -2.8041960    -1.0106880    -0.1761720
units angstrom
no_reorient  #important for SAPT in psi4, default
symmetry c1  #important for SAPT in psi4, default
}

set PROPERTIES_ORIGIN ["COM"]
properties('MP2/aug-cc-pvtz', properties = ['dipole'])
--------------------------------------------------------------------------

    Molecular point group: c1
  Charge       = 0
  Multiplicity = 1
  Basis Set: AUG-CC-PVTZ
    Blend: AUG-CC-PVTZ
  Basis Set: (AUG-CC-PVTZ AUX)
    Blend: AUG-CC-PVTZ-JKFIT

    Orbital Energies [Eh]
    ---------------------

    Doubly Occupied:

       1A    -92.050083     2A    -20.499828     3A    -11.264188
       4A    -11.264114     5A    -11.238018     6A    -11.225384
       7A    -11.225113     8A    -11.223802     9A     -9.038277
      10A     -6.719834    11A     -6.719672    12A     -6.718373
      13A     -1.351107    14A     -1.106793    15A     -1.076645
      16A     -0.949253    17A     -0.944466    18A     -0.915048
      19A     -0.814064    20A     -0.755419    21A     -0.670561
      22A     -0.640749    23A     -0.621834    24A     -0.616269
      25A     -0.578354    26A     -0.574835    27A     -0.555564
      28A     -0.552964    29A     -0.537459    30A     -0.526890
      31A     -0.514611    32A     -0.503270    33A     -0.499089
      34A     -0.490773    35A     -0.487924    36A     -0.398578
      37A     -0.348890

  @DF-RHF Final Energy:  -707.84080420154714

   => Energetics <=

    Nuclear Repulsion Energy =            514.4295331374712532
    One-Electron Energy =               -1992.1044829059544554
    Two-Electron Energy =                 769.8341455669360585
    Total Energy =                       -707.8408042015471437
  Basis Set: (AUG-CC-PVTZ AUX)
    Blend: AUG-CC-PVTZ-RI
    Molecular point group: c1

    Geometry (in Angstrom), charge = 0, multiplicity = 1:

       Center              X                  Y                   Z               Mass
    ------------   -----------------  -----------------  -----------------  -----------------
         S           -0.010414578689    -0.578421212428    -0.423833745841    31.972071174400
         O           -0.244400378689    -1.705525612428     0.475137454159    15.994914619570
         C            1.429148621311     0.385425387572     0.249939454159    12.000000000000
         C           -1.348724378689     0.656660387572    -0.168783545841    12.000000000000
         C            1.688184621311     1.676832387572    -0.515786545841    12.000000000000
         C            2.621025621311    -0.566549612428     0.212916454159    12.000000000000
         C           -1.495541378689     0.978924387572     1.311437454159    12.000000000000
         C           -2.602654378689    -0.018228612428    -0.720703545841    12.000000000000
         H            1.168339621311     0.585520387572     1.294460454159     1.007825032230
         H           -1.116702378689     1.549122387572    -0.760859545841     1.007825032230
         H            2.632754621311     2.115757387572    -0.180476545841     1.007825032230
         H            1.776059621311     1.482301387572    -1.590177545841     1.007825032230
         H            0.902822621311     2.420778387572    -0.361529545841     1.007825032230
         H            2.380015621311    -1.498311612428     0.729084454159     1.007825032230
         H            3.480623621311    -0.102184612428     0.705272454159     1.007825032230
         H            2.901471621311    -0.800113612428    -0.819493545841     1.007825032230
         H           -2.462157378689     1.457221387572     1.495782454159     1.007825032230
         H           -1.454513378689     0.047285387572     1.884182454159     1.007825032230
         H           -0.715344378689     1.652987387572     1.673584454159     1.007825032230
         H           -2.496453378689    -0.257418612428    -1.783094545841     1.007825032230
         H           -3.464883378689     0.643912387572    -0.601110545841     1.007825032230
         H           -2.792942378689    -0.945915612428    -0.174625545841     1.007825032230

  Basis Set: AUG-CC-PVTZ
    Blend: AUG-CC-PVTZ
  Basis Set: (AUG-CC-PVTZ AUX)
    Blend: AUG-CC-PVTZ-JKFIT
	 Reference Energy          =    -707.8408042015471437 [Eh]
	 Singles Energy            =      -0.0000000000000000 [Eh]
	 Same-Spin Energy          =      -0.3869849854445322 [Eh]
	 Opposite-Spin Energy      =      -1.3062979374484889 [Eh]
	 Correlation Energy        =      -1.6932829228930211 [Eh]
	 Total Energy              =    -709.5340871244401342 [Eh]

	 ================> DF-SCS-MP2 Energies <==================
	-----------------------------------------------------------
	 SCS Same-Spin Scale       =       0.3333333333333333 [-]
	 SCS Opposite-Spin Scale   =       1.2000000000000000 [-]
	 SCS Same-Spin Energy      =      -0.1289949951481774 [Eh]
	 SCS Opposite-Spin Energy  =      -1.5675575249381866 [Eh]
	 SCS Correlation Energy    =      -1.6965525200863640 [Eh]
	 SCS Total Energy          =    -709.5373567216335005 [Eh]
	-----------------------------------------------------------

  Dipole Moment: [D]
     X:     0.4328      Y:     3.5980      Z:    -0.5464     Total:     3.6649

*** Psi4 exiting successfully. Buy a developer a beer!
