                               Psi4 1.3.2 release

  ==> Input File <==

--------------------------------------------------------------------------
#psi4
#
memory 32 gb

molecule  {
0 1
  S        0.0075120    -0.6017700    -0.4647820
  O       -0.1235840    -1.8367505     0.4143625
  C        1.4178950     0.3206530     0.2483930
  C       -1.3599780     0.5918880    -0.1703300
  C        1.6769310     1.6120600    -0.5173330
  C        2.6097720    -0.6313220     0.2113700
  C       -1.5067950     0.9141520     1.3098910
  C       -2.6139080    -0.0830010    -0.7222500
  H        1.1570860     0.5207480     1.2929140
  H       -1.1279560     1.4843500    -0.7624060
  H        2.6215010     2.0509850    -0.1820230
  H        1.7648060     1.4175290    -1.5917240
  H        0.8915690     2.3560060    -0.3630760
  H        2.3687620    -1.5630840     0.7275380
  H        3.4693700    -0.1669570     0.7037260
  H        2.8902180    -0.8648860    -0.8210400
  H       -2.4734110     1.3924490     1.4942360
  H       -1.4657670    -0.0174870     1.8826360
  H       -0.7265980     1.5882150     1.6720380
  H       -2.5077070    -0.3221910    -1.7846410
  H       -3.4761370     0.5791400    -0.6026570
  H       -2.8041960    -1.0106880    -0.1761720
units angstrom
no_reorient  #important for SAPT in psi4, default
symmetry c1  #important for SAPT in psi4, default
}

set PROPERTIES_ORIGIN ["COM"]
properties('MP2/aug-cc-pvtz', properties = ['dipole'])
--------------------------------------------------------------------------

    Molecular point group: c1
  Charge       = 0
  Multiplicity = 1
  Basis Set: AUG-CC-PVTZ
    Blend: AUG-CC-PVTZ
  Basis Set: (AUG-CC-PVTZ AUX)
    Blend: AUG-CC-PVTZ-JKFIT

    Orbital Energies [Eh]
    ---------------------

    Doubly Occupied:

       1A    -92.050746     2A    -20.497355     3A    -11.270930
       4A    -11.265874     5A    -11.238422     6A    -11.229236
       7A    -11.228771     8A    -11.222221     9A     -9.038821
      10A     -6.720322    11A     -6.720105    12A     -6.718899
      13A     -1.314201    14A     -1.111121    15A     -1.079650
      16A     -0.949660    17A     -0.947319    18A     -0.922086
      19A     -0.817423    20A     -0.757999    21A     -0.670347
      22A     -0.642619    23A     -0.622534    24A     -0.610705
      25A     -0.579044    26A     -0.574624    27A     -0.555417
      28A     -0.553123    29A     -0.531061    30A     -0.521878
      31A     -0.513087    32A     -0.504644    33A     -0.492470
      34A     -0.490160    35A     -0.485236    36A     -0.399196
      37A     -0.352565

  @DF-RHF Final Energy:  -707.83917388806663

   => Energetics <=

    Nuclear Repulsion Energy =            512.6387632354028483
    One-Electron Energy =               -1988.5561302879279992
    Two-Electron Energy =                 768.0781931644585256
    Total Energy =                       -707.8391738880666253
  Basis Set: (AUG-CC-PVTZ AUX)
    Blend: AUG-CC-PVTZ-RI
    Molecular point group: c1

    Geometry (in Angstrom), charge = 0, multiplicity = 1:

       Center              X                  Y                   Z               Mass
    ------------   -----------------  -----------------  -----------------  -----------------
         S           -0.003948269504    -0.538947962811    -0.446773963402    31.972071174400
         O           -0.135044269504    -1.773928462811     0.432370536598    15.994914619570
         C            1.406434730496     0.383475037189     0.266401036598    12.000000000000
         C           -1.371438269504     0.654710037189    -0.152321963402    12.000000000000
         C            1.665470730496     1.674882037189    -0.499324963402    12.000000000000
         C            2.598311730496    -0.568499962811     0.229378036598    12.000000000000
         C           -1.518255269504     0.976974037189     1.327899036598    12.000000000000
         C           -2.625368269504    -0.020178962811    -0.704241963402    12.000000000000
         H            1.145625730496     0.583570037189     1.310922036598     1.007825032230
         H           -1.139416269504     1.547172037189    -0.744397963402     1.007825032230
         H            2.610040730496     2.113807037189    -0.164014963402     1.007825032230
         H            1.753345730496     1.480351037189    -1.573715963402     1.007825032230
         H            0.880108730496     2.418828037189    -0.345067963402     1.007825032230
         H            2.357301730496    -1.500261962811     0.745546036598     1.007825032230
         H            3.457909730496    -0.104134962811     0.721734036598     1.007825032230
         H            2.878757730496    -0.802063962811    -0.803031963402     1.007825032230
         H           -2.484871269504     1.455271037189     1.512244036598     1.007825032230
         H           -1.477227269504     0.045335037189     1.900644036598     1.007825032230
         H           -0.738058269504     1.651037037189     1.690046036598     1.007825032230
         H           -2.519167269504    -0.259368962811    -1.766632963402     1.007825032230
         H           -3.487597269504     0.641962037189    -0.584648963402     1.007825032230
         H           -2.815656269504    -0.947865962811    -0.158163963402     1.007825032230

  Basis Set: AUG-CC-PVTZ
    Blend: AUG-CC-PVTZ
  Basis Set: (AUG-CC-PVTZ AUX)
    Blend: AUG-CC-PVTZ-JKFIT
	 Reference Energy          =    -707.8391738880666253 [Eh]
	 Singles Energy            =      -0.0000000000000000 [Eh]
	 Same-Spin Energy          =      -0.3877577575569151 [Eh]
	 Opposite-Spin Energy      =      -1.3083414151148278 [Eh]
	 Correlation Energy        =      -1.6960991726717429 [Eh]
	 Total Energy              =    -709.5352730607384046 [Eh]

	 ================> DF-SCS-MP2 Energies <==================
	-----------------------------------------------------------
	 SCS Same-Spin Scale       =       0.3333333333333333 [-]
	 SCS Opposite-Spin Scale   =       1.2000000000000000 [-]
	 SCS Same-Spin Energy      =      -0.1292525858523050 [Eh]
	 SCS Opposite-Spin Energy  =      -1.5700096981377933 [Eh]
	 SCS Correlation Energy    =      -1.6992622839900984 [Eh]
	 SCS Total Energy          =    -709.5384361720567767 [Eh]
	-----------------------------------------------------------

  Dipole Moment: [D]
     X:     0.2063      Y:     3.9994      Z:    -0.5092     Total:     4.0369

*** Psi4 exiting successfully. Buy a developer a beer!
