                               Psi4 1.3.2 release

  ==> Input File <==

--------------------------------------------------------------------------
#psi4
#
memory 32 gb

molecule  {
0 1
  S        0.0350261    -0.5588921    -0.5038251
  O       -0.2556540    -1.7702980     0.4735910
  C        1.4178950     0.3206530     0.2483930
  C       -1.3599780     0.5918880    -0.1703300
  C        1.6769310     1.6120600    -0.5173330
  C        2.6097720    -0.6313220     0.2113700
  C       -1.5067950     0.9141520     1.3098910
  C       -2.6139080    -0.0830010    -0.7222500
  H        1.1570860     0.5207480     1.2929140
  H       -1.1279560     1.4843500    -0.7624060
  H        2.6215010     2.0509850    -0.1820230
  H        1.7648060     1.4175290    -1.5917240
  H        0.8915690     2.3560060    -0.3630760
  H        2.3687620    -1.5630840     0.7275380
  H        3.4693700    -0.1669570     0.7037260
  H        2.8902180    -0.8648860    -0.8210400
  H       -2.4734110     1.3924490     1.4942360
  H       -1.4657670    -0.0174870     1.8826360
  H       -0.7265980     1.5882150     1.6720380
  H       -2.5077070    -0.3221910    -1.7846410
  H       -3.4761370     0.5791400    -0.6026570
  H       -2.8041960    -1.0106880    -0.1761720
units angstrom
no_reorient  #important for SAPT in psi4, default
symmetry c1  #important for SAPT in psi4, default
}

set PROPERTIES_ORIGIN ["COM"]
properties('MP2/aug-cc-pvtz', properties = ['dipole'])
--------------------------------------------------------------------------

    Molecular point group: c1
  Charge       = 0
  Multiplicity = 1
  Basis Set: AUG-CC-PVTZ
    Blend: AUG-CC-PVTZ
  Basis Set: (AUG-CC-PVTZ AUX)
    Blend: AUG-CC-PVTZ-JKFIT

    Orbital Energies [Eh]
    ---------------------

    Doubly Occupied:

       1A    -92.052196     2A    -20.490830     3A    -11.271183
       4A    -11.269158     5A    -11.241174     6A    -11.226594
       7A    -11.226499     8A    -11.226392     9A     -9.040724
      10A     -6.722152    11A     -6.721823    12A     -6.720559
      13A     -1.281656    14A     -1.112164    15A     -1.080550
      16A     -0.952919    17A     -0.945280    18A     -0.927705
      19A     -0.819847    20A     -0.759642    21A     -0.669042
      22A     -0.643918    23A     -0.621921    24A     -0.608352
      25A     -0.579750    26A     -0.572729    27A     -0.557378
      28A     -0.551224    29A     -0.523448    30A     -0.516554
      31A     -0.512125    32A     -0.504953    33A     -0.488306
      34A     -0.484710    35A     -0.475384    36A     -0.395545
      37A     -0.360487

  @DF-RHF Final Energy:  -707.83444563699129

   => Energetics <=

    Nuclear Repulsion Energy =            512.3606814309264337
    One-Electron Energy =               -1988.0805078858936668
    Two-Electron Energy =                 767.8853808179759426
    Total Energy =                       -707.8344456369912905
  Basis Set: (AUG-CC-PVTZ AUX)
    Blend: AUG-CC-PVTZ-RI
    Molecular point group: c1

    Geometry (in Angstrom), charge = 0, multiplicity = 1:

       Center              X                  Y                   Z               Mass
    ------------   -----------------  -----------------  -----------------  -----------------
         S            0.032760322275    -0.514222361509    -0.483572569474    31.972071174400
         O           -0.257919777725    -1.725628261509     0.493843530526    15.994914619570
         C            1.415629222275     0.365322738491     0.268645530526    12.000000000000
         C           -1.362243777725     0.636557738491    -0.150077469474    12.000000000000
         C            1.674665222275     1.656729738491    -0.497080469474    12.000000000000
         C            2.607506222275    -0.586652261509     0.231622530526    12.000000000000
         C           -1.509060777725     0.958821738491     1.330143530526    12.000000000000
         C           -2.616173777725    -0.038331261509    -0.701997469474    12.000000000000
         H            1.154820222275     0.565417738491     1.313166530526     1.007825032230
         H           -1.130221777725     1.529019738491    -0.742153469474     1.007825032230
         H            2.619235222275     2.095654738491    -0.161770469474     1.007825032230
         H            1.762540222275     1.462198738491    -1.571471469474     1.007825032230
         H            0.889303222275     2.400675738491    -0.342823469474     1.007825032230
         H            2.366496222275    -1.518414261509     0.747790530526     1.007825032230
         H            3.467104222275    -0.122287261509     0.723978530526     1.007825032230
         H            2.887952222275    -0.820216261509    -0.800787469474     1.007825032230
         H           -2.475676777725     1.437118738491     1.514488530526     1.007825032230
         H           -1.468032777725     0.027182738491     1.902888530526     1.007825032230
         H           -0.728863777725     1.632884738491     1.692290530526     1.007825032230
         H           -2.509972777725    -0.277521261509    -1.764388469474     1.007825032230
         H           -3.478402777725     0.623809738491    -0.582404469474     1.007825032230
         H           -2.806461777725    -0.966018261509    -0.155919469474     1.007825032230

  Basis Set: AUG-CC-PVTZ
    Blend: AUG-CC-PVTZ
  Basis Set: (AUG-CC-PVTZ AUX)
    Blend: AUG-CC-PVTZ-JKFIT
	 Reference Energy          =    -707.8344456369912905 [Eh]
	 Singles Energy            =      -0.0000000000000000 [Eh]
	 Same-Spin Energy          =      -0.3884528689637850 [Eh]
	 Opposite-Spin Energy      =      -1.3101768403157594 [Eh]
	 Correlation Energy        =      -1.6986297092795444 [Eh]
	 Total Energy              =    -709.5330753462708344 [Eh]

	 ================> DF-SCS-MP2 Energies <==================
	-----------------------------------------------------------
	 SCS Same-Spin Scale       =       0.3333333333333333 [-]
	 SCS Opposite-Spin Scale   =       1.2000000000000000 [-]
	 SCS Same-Spin Energy      =      -0.1294842896545950 [Eh]
	 SCS Opposite-Spin Energy  =      -1.5722122083789112 [Eh]
	 SCS Correlation Energy    =      -1.7016964980335061 [Eh]
	 SCS Total Energy          =    -709.5361421350247610 [Eh]
	-----------------------------------------------------------

  Dipole Moment: [D]
     X:     0.6388      Y:     4.1628      Z:    -0.7467     Total:     4.2772

*** Psi4 exiting successfully. Buy a developer a beer!
