                               Psi4 1.3.2 release

  ==> Input File <==

--------------------------------------------------------------------------
#psi4
#
memory 32 gb

molecule  {
0 1
  S        0.0075120    -0.6017700    -0.4647820
  O       -0.2556540    -1.7702980     0.4735910
  C        1.4178950     0.3206530     0.2483930
  C       -1.4343426     0.6567996    -0.1543176
  C        1.6769310     1.6120600    -0.5173330
  C        2.6097720    -0.6313220     0.2113700
  C       -1.5067950     0.9141520     1.3098910
  C       -2.6139080    -0.0830010    -0.7222500
  H        1.1570860     0.5207480     1.2929140
  H       -1.1279560     1.4843500    -0.7624060
  H        2.6215010     2.0509850    -0.1820230
  H        1.7648060     1.4175290    -1.5917240
  H        0.8915690     2.3560060    -0.3630760
  H        2.3687620    -1.5630840     0.7275380
  H        3.4693700    -0.1669570     0.7037260
  H        2.8902180    -0.8648860    -0.8210400
  H       -2.4734110     1.3924490     1.4942360
  H       -1.4657670    -0.0174870     1.8826360
  H       -0.7265980     1.5882150     1.6720380
  H       -2.5077070    -0.3221910    -1.7846410
  H       -3.4761370     0.5791400    -0.6026570
  H       -2.8041960    -1.0106880    -0.1761720
units angstrom
no_reorient  #important for SAPT in psi4, default
symmetry c1  #important for SAPT in psi4, default
}

set PROPERTIES_ORIGIN ["COM"]
properties('MP2/aug-cc-pvtz', properties = ['dipole'])
--------------------------------------------------------------------------

    Molecular point group: c1
  Charge       = 0
  Multiplicity = 1
  Basis Set: AUG-CC-PVTZ
    Blend: AUG-CC-PVTZ
  Basis Set: (AUG-CC-PVTZ AUX)
    Blend: AUG-CC-PVTZ-JKFIT

    Orbital Energies [Eh]
    ---------------------

    Doubly Occupied:

       1A    -92.046849     2A    -20.493778     3A    -11.270833
       4A    -11.265260     5A    -11.239275     6A    -11.226295
       7A    -11.225927     8A    -11.223755     9A     -9.034666
      10A     -6.715991    11A     -6.715779    12A     -6.714608
      13A     -1.310032    14A     -1.108467    15A     -1.082846
      16A     -0.952190    17A     -0.949336    18A     -0.912732
      19A     -0.815243    20A     -0.760477    21A     -0.665097
      22A     -0.646826    23A     -0.623649    24A     -0.611430
      25A     -0.579464    26A     -0.573535    27A     -0.556491
      28A     -0.554187    29A     -0.526127    30A     -0.521469
      31A     -0.513914    32A     -0.509647    33A     -0.497050
      34A     -0.486270    35A     -0.485418    36A     -0.386750
      37A     -0.347692

  @DF-RHF Final Energy:  -707.83408988974350

   => Energetics <=

    Nuclear Repulsion Energy =            511.8214707109410142
    One-Electron Energy =               -1987.0124088091185968
    Two-Electron Energy =                 767.3568482084341440
    Total Energy =                       -707.8340898897434954
  Basis Set: (AUG-CC-PVTZ AUX)
    Blend: AUG-CC-PVTZ-RI
    Molecular point group: c1

    Geometry (in Angstrom), charge = 0, multiplicity = 1:

       Center              X                  Y                   Z               Mass
    ------------   -----------------  -----------------  -----------------  -----------------
         S            0.018462986469    -0.552685200625    -0.455272867330    31.972071174400
         O           -0.244703013531    -1.721213200625     0.483100132670    15.994914619570
         C            1.428845986469     0.369737799375     0.257902132670    12.000000000000
         C           -1.423391613531     0.705884399375    -0.144808467330    12.000000000000
         C            1.687881986469     1.661144799375    -0.507823867330    12.000000000000
         C            2.620722986469    -0.582237200625     0.220879132670    12.000000000000
         C           -1.495844013531     0.963236799375     1.319400132670    12.000000000000
         C           -2.602957013531    -0.033916200625    -0.712740867330    12.000000000000
         H            1.168036986469     0.569832799375     1.302423132670     1.007825032230
         H           -1.117005013531     1.533434799375    -0.752896867330     1.007825032230
         H            2.632451986469     2.100069799375    -0.172513867330     1.007825032230
         H            1.775756986469     1.466613799375    -1.582214867330     1.007825032230
         H            0.902519986469     2.405090799375    -0.353566867330     1.007825032230
         H            2.379712986469    -1.513999200625     0.737047132670     1.007825032230
         H            3.480320986469    -0.117872200625     0.713235132670     1.007825032230
         H            2.901168986469    -0.815801200625    -0.811530867330     1.007825032230
         H           -2.462460013531     1.441533799375     1.503745132670     1.007825032230
         H           -1.454816013531     0.031597799375     1.892145132670     1.007825032230
         H           -0.715647013531     1.637299799375     1.681547132670     1.007825032230
         H           -2.496756013531    -0.273106200625    -1.775131867330     1.007825032230
         H           -3.465186013531     0.628224799375    -0.593147867330     1.007825032230
         H           -2.793245013531    -0.961603200625    -0.166662867330     1.007825032230

  Basis Set: AUG-CC-PVTZ
    Blend: AUG-CC-PVTZ
  Basis Set: (AUG-CC-PVTZ AUX)
    Blend: AUG-CC-PVTZ-JKFIT
	 Reference Energy          =    -707.8340898897434954 [Eh]
	 Singles Energy            =      -0.0000000000000000 [Eh]
	 Same-Spin Energy          =      -0.3885372869767494 [Eh]
	 Opposite-Spin Energy      =      -1.3095602513880857 [Eh]
	 Correlation Energy        =      -1.6980975383648351 [Eh]
	 Total Energy              =    -709.5321874281083865 [Eh]

	 ================> DF-SCS-MP2 Energies <==================
	-----------------------------------------------------------
	 SCS Same-Spin Scale       =       0.3333333333333333 [-]
	 SCS Opposite-Spin Scale   =       1.2000000000000000 [-]
	 SCS Same-Spin Energy      =      -0.1295124289922498 [Eh]
	 SCS Opposite-Spin Energy  =      -1.5714723016657028 [Eh]
	 SCS Correlation Energy    =      -1.7009847306579526 [Eh]
	 SCS Total Energy          =    -709.5350746204014740 [Eh]
	-----------------------------------------------------------

  Dipole Moment: [D]
     X:     0.5055      Y:     3.8690      Z:    -0.6388     Total:     3.9538

*** Psi4 exiting successfully. Buy a developer a beer!
