                               Psi4 1.3.2 release

  ==> Input File <==

--------------------------------------------------------------------------
#psi4
#
memory 32 gb

molecule  {
0 1
  S        0.0075120    -0.6017700    -0.4647820
  O       -0.2556540    -1.7702980     0.4735910
  C        1.5273455     0.1712882     0.1994093
  C       -1.3599780     0.5918880    -0.1703300
  C        1.6769310     1.6120600    -0.5173330
  C        2.6097720    -0.6313220     0.2113700
  C       -1.5067950     0.9141520     1.3098910
  C       -2.6139080    -0.0830010    -0.7222500
  H        1.1570860     0.5207480     1.2929140
  H       -1.1279560     1.4843500    -0.7624060
  H        2.6215010     2.0509850    -0.1820230
  H        1.7648060     1.4175290    -1.5917240
  H        0.8915690     2.3560060    -0.3630760
  H        2.3687620    -1.5630840     0.7275380
  H        3.4693700    -0.1669570     0.7037260
  H        2.8902180    -0.8648860    -0.8210400
  H       -2.4734110     1.3924490     1.4942360
  H       -1.4657670    -0.0174870     1.8826360
  H       -0.7265980     1.5882150     1.6720380
  H       -2.5077070    -0.3221910    -1.7846410
  H       -3.4761370     0.5791400    -0.6026570
  H       -2.8041960    -1.0106880    -0.1761720
units angstrom
no_reorient  #important for SAPT in psi4, default
symmetry c1  #important for SAPT in psi4, default
}

set PROPERTIES_ORIGIN ["COM"]
properties('MP2/aug-cc-pvtz', properties = ['dipole'])
--------------------------------------------------------------------------

    Molecular point group: c1
  Charge       = 0
  Multiplicity = 1
  Basis Set: AUG-CC-PVTZ
    Blend: AUG-CC-PVTZ
  Basis Set: (AUG-CC-PVTZ AUX)
    Blend: AUG-CC-PVTZ-JKFIT

    Orbital Energies [Eh]
    ---------------------

    Doubly Occupied:

       1A    -92.050466     2A    -20.490780     3A    -11.274547
       4A    -11.271677     5A    -11.243494     6A    -11.228058
       7A    -11.226148     8A    -11.217663     9A     -9.038757
      10A     -6.720283    11A     -6.720154    12A     -6.718808
      13A     -1.312019    14A     -1.120693    15A     -1.089708
      16A     -0.962187    17A     -0.945757    18A     -0.921001
      19A     -0.812164    20A     -0.747490    21A     -0.672021
      22A     -0.650304    23A     -0.627943    24A     -0.609983
      25A     -0.593087    26A     -0.571252    27A     -0.560166
      28A     -0.556000    29A     -0.541160    30A     -0.523651
      31A     -0.512213    32A     -0.507456    33A     -0.494339
      34A     -0.487425    35A     -0.445052    36A     -0.399433
      37A     -0.346148

  @DF-RHF Final Energy:  -707.80054411747085

   => Energetics <=

    Nuclear Repulsion Energy =            513.5069044548902184
    One-Electron Energy =               -1990.1959217755784266
    Two-Electron Energy =                 768.8884732032173588
    Total Energy =                       -707.8005441174708494
  Basis Set: (AUG-CC-PVTZ AUX)
    Blend: AUG-CC-PVTZ-RI
    Molecular point group: c1

    Geometry (in Angstrom), charge = 0, multiplicity = 1:

       Center              X                  Y                   Z               Mass
    ------------   -----------------  -----------------  -----------------  -----------------
         S            0.002011329365    -0.533507223091    -0.449455643662    31.972071174400
         O           -0.261154670635    -1.702035223091     0.488917356338    15.994914619570
         C            1.521844829365     0.239550976909     0.214735656338    12.000000000000
         C           -1.365478670635     0.660150776909    -0.155003643662    12.000000000000
         C            1.671430329365     1.680322776909    -0.502006643662    12.000000000000
         C            2.604271329365    -0.563059223091     0.226696356338    12.000000000000
         C           -1.512295670635     0.982414776909     1.325217356338    12.000000000000
         C           -2.619408670635    -0.014738223091    -0.706923643662    12.000000000000
         H            1.151585329365     0.589010776909     1.308240356338     1.007825032230
         H           -1.133456670635     1.552612776909    -0.747079643662     1.007825032230
         H            2.616000329365     2.119247776909    -0.166696643662     1.007825032230
         H            1.759305329365     1.485791776909    -1.576397643662     1.007825032230
         H            0.886068329365     2.424268776909    -0.347749643662     1.007825032230
         H            2.363261329365    -1.494821223091     0.742864356338     1.007825032230
         H            3.463869329365    -0.098694223091     0.719052356338     1.007825032230
         H            2.884717329365    -0.796623223091    -0.805713643662     1.007825032230
         H           -2.478911670635     1.460711776909     1.509562356338     1.007825032230
         H           -1.471267670635     0.050775776909     1.897962356338     1.007825032230
         H           -0.732098670635     1.656477776909     1.687364356338     1.007825032230
         H           -2.513207670635    -0.253928223091    -1.769314643662     1.007825032230
         H           -3.481637670635     0.647402776909    -0.587330643662     1.007825032230
         H           -2.809696670635    -0.942425223091    -0.160845643662     1.007825032230

  Basis Set: AUG-CC-PVTZ
    Blend: AUG-CC-PVTZ
  Basis Set: (AUG-CC-PVTZ AUX)
    Blend: AUG-CC-PVTZ-JKFIT
	 Reference Energy          =    -707.8005441174708494 [Eh]
	 Singles Energy            =      -0.0000000000000000 [Eh]
	 Same-Spin Energy          =      -0.3894664498301278 [Eh]
	 Opposite-Spin Energy      =      -1.3105626509999773 [Eh]
	 Correlation Energy        =      -1.7000291008301049 [Eh]
	 Total Energy              =    -709.5005732183009286 [Eh]

	 ================> DF-SCS-MP2 Energies <==================
	-----------------------------------------------------------
	 SCS Same-Spin Scale       =       0.3333333333333333 [-]
	 SCS Opposite-Spin Scale   =       1.2000000000000000 [-]
	 SCS Same-Spin Energy      =      -0.1298221499433759 [Eh]
	 SCS Opposite-Spin Energy  =      -1.5726751811999726 [Eh]
	 SCS Correlation Energy    =      -1.7024973311433484 [Eh]
	 SCS Total Energy          =    -709.5030414486142263 [Eh]
	-----------------------------------------------------------

  Dipole Moment: [D]
     X:     0.5815      Y:     3.8916      Z:    -0.6291     Total:     3.9847

*** Psi4 exiting successfully. Buy a developer a beer!
