                               Psi4 1.3.2 release

  ==> Input File <==

--------------------------------------------------------------------------
#psi4
#
memory 32 gb

molecule  {
0 1
  S        0.0075120    -0.6017700    -0.4647820
  O       -0.2556540    -1.7702980     0.4735910
  C        1.3362622     0.4147116     0.2767375
  C       -1.3599780     0.5918880    -0.1703300
  C        1.6769310     1.6120600    -0.5173330
  C        2.6097720    -0.6313220     0.2113700
  C       -1.5067950     0.9141520     1.3098910
  C       -2.6139080    -0.0830010    -0.7222500
  H        1.1570860     0.5207480     1.2929140
  H       -1.1279560     1.4843500    -0.7624060
  H        2.6215010     2.0509850    -0.1820230
  H        1.7648060     1.4175290    -1.5917240
  H        0.8915690     2.3560060    -0.3630760
  H        2.3687620    -1.5630840     0.7275380
  H        3.4693700    -0.1669570     0.7037260
  H        2.8902180    -0.8648860    -0.8210400
  H       -2.4734110     1.3924490     1.4942360
  H       -1.4657670    -0.0174870     1.8826360
  H       -0.7265980     1.5882150     1.6720380
  H       -2.5077070    -0.3221910    -1.7846410
  H       -3.4761370     0.5791400    -0.6026570
  H       -2.8041960    -1.0106880    -0.1761720
units angstrom
no_reorient  #important for SAPT in psi4, default
symmetry c1  #important for SAPT in psi4, default
}

set PROPERTIES_ORIGIN ["COM"]
properties('MP2/aug-cc-pvtz', properties = ['dipole'])
--------------------------------------------------------------------------

    Molecular point group: c1
  Charge       = 0
  Multiplicity = 1
  Basis Set: AUG-CC-PVTZ
    Blend: AUG-CC-PVTZ
  Basis Set: (AUG-CC-PVTZ AUX)
    Blend: AUG-CC-PVTZ-JKFIT

    Orbital Energies [Eh]
    ---------------------

    Doubly Occupied:

       1A    -92.054748     2A    -20.497732     3A    -11.265681
       4A    -11.264712     5A    -11.238396     6A    -11.228634
       7A    -11.225903     8A    -11.224442     9A     -9.042344
      10A     -6.723832    11A     -6.723469    12A     -6.722320
      13A     -1.315860    14A     -1.110069    15A     -1.075139
      16A     -0.945104    17A     -0.943509    18A     -0.921004
      19A     -0.822111    20A     -0.763216    21A     -0.668969
      22A     -0.639301    23A     -0.618082    24A     -0.614960
      25A     -0.584188    26A     -0.572085    27A     -0.552925
      28A     -0.551607    29A     -0.532764    30A     -0.524635
      31A     -0.515877    32A     -0.506479    33A     -0.490880
      34A     -0.490314    35A     -0.462041    36A     -0.394406
      37A     -0.361108

  @DF-RHF Final Energy:  -707.82657007368277

   => Energetics <=

    Nuclear Repulsion Energy =            513.3854894829775048
    One-Electron Energy =               -1990.0464245723878776
    Two-Electron Energy =                 768.8343650157277125
    Total Energy =                       -707.8265700736827739
  Basis Set: (AUG-CC-PVTZ AUX)
    Blend: AUG-CC-PVTZ-RI
    Molecular point group: c1

    Geometry (in Angstrom), charge = 0, multiplicity = 1:

       Center              X                  Y                   Z               Mass
    ------------   -----------------  -----------------  -----------------  -----------------
         S            0.019113498501    -0.555293889735    -0.456376604078    31.972071174400
         O           -0.244052501499    -1.723821889735     0.481996395922    15.994914619570
         C            1.347863698501     0.461187710265     0.285142895922    12.000000000000
         C           -1.348376501499     0.638364110265    -0.161924604078    12.000000000000
         C            1.688532498501     1.658536110265    -0.508927604078    12.000000000000
         C            2.621373498501    -0.584845889735     0.219775395922    12.000000000000
         C           -1.495193501499     0.960628110265     1.318296395922    12.000000000000
         C           -2.602306501499    -0.036524889735    -0.713844604078    12.000000000000
         H            1.168687498501     0.567224110265     1.301319395922     1.007825032230
         H           -1.116354501499     1.530826110265    -0.754000604078     1.007825032230
         H            2.633102498501     2.097461110265    -0.173617604078     1.007825032230
         H            1.776407498501     1.464005110265    -1.583318604078     1.007825032230
         H            0.903170498501     2.402482110265    -0.354670604078     1.007825032230
         H            2.380363498501    -1.516607889735     0.735943395922     1.007825032230
         H            3.480971498501    -0.120480889735     0.712131395922     1.007825032230
         H            2.901819498501    -0.818409889735    -0.812634604078     1.007825032230
         H           -2.461809501499     1.438925110265     1.502641395922     1.007825032230
         H           -1.454165501499     0.028989110265     1.891041395922     1.007825032230
         H           -0.714996501499     1.634691110265     1.680443395922     1.007825032230
         H           -2.496105501499    -0.275714889735    -1.776235604078     1.007825032230
         H           -3.464535501499     0.625616110265    -0.594251604078     1.007825032230
         H           -2.792594501499    -0.964211889735    -0.167766604078     1.007825032230

  Basis Set: AUG-CC-PVTZ
    Blend: AUG-CC-PVTZ
  Basis Set: (AUG-CC-PVTZ AUX)
    Blend: AUG-CC-PVTZ-JKFIT
	 Reference Energy          =    -707.8265700736827739 [Eh]
	 Singles Energy            =      -0.0000000000000000 [Eh]
	 Same-Spin Energy          =      -0.3883857036217830 [Eh]
	 Opposite-Spin Energy      =      -1.3099031242845798 [Eh]
	 Correlation Energy        =      -1.6982888279063628 [Eh]
	 Total Energy              =    -709.5248589015891412 [Eh]

	 ================> DF-SCS-MP2 Energies <==================
	-----------------------------------------------------------
	 SCS Same-Spin Scale       =       0.3333333333333333 [-]
	 SCS Opposite-Spin Scale   =       1.2000000000000000 [-]
	 SCS Same-Spin Energy      =      -0.1294619012072610 [Eh]
	 SCS Opposite-Spin Energy  =      -1.5718837491414956 [Eh]
	 SCS Correlation Energy    =      -1.7013456503487567 [Eh]
	 SCS Total Energy          =    -709.5279157240315726 [Eh]
	-----------------------------------------------------------

  Dipole Moment: [D]
     X:     0.5249      Y:     3.8451      Z:    -0.6778     Total:     3.9395

*** Psi4 exiting successfully. Buy a developer a beer!
