                               Psi4 1.3.2 release

  ==> Input File <==

--------------------------------------------------------------------------
#psi4
#
memory 32 gb

molecule  {
0 1
  S       -0.0524789    -0.6831124    -0.3856677
  O       -0.2556540    -1.7702980     0.4735910
  C        1.4178950     0.3206530     0.2483930
  C       -1.3599780     0.5918880    -0.1703300
  C        1.6769310     1.6120600    -0.5173330
  C        2.6097720    -0.6313220     0.2113700
  C       -1.5067950     0.9141520     1.3098910
  C       -2.6139080    -0.0830010    -0.7222500
  H        1.1570860     0.5207480     1.2929140
  H       -1.1279560     1.4843500    -0.7624060
  H        2.6215010     2.0509850    -0.1820230
  H        1.7648060     1.4175290    -1.5917240
  H        0.8915690     2.3560060    -0.3630760
  H        2.3687620    -1.5630840     0.7275380
  H        3.4693700    -0.1669570     0.7037260
  H        2.8902180    -0.8648860    -0.8210400
  H       -2.4734110     1.3924490     1.4942360
  H       -1.4657670    -0.0174870     1.8826360
  H       -0.7265980     1.5882150     1.6720380
  H       -2.5077070    -0.3221910    -1.7846410
  H       -3.4761370     0.5791400    -0.6026570
  H       -2.8041960    -1.0106880    -0.1761720
units angstrom
no_reorient  #important for SAPT in psi4, default
symmetry c1  #important for SAPT in psi4, default
}

set PROPERTIES_ORIGIN ["COM"]
properties('MP2/aug-cc-pvtz', properties = ['dipole'])
--------------------------------------------------------------------------

    Molecular point group: c1
  Charge       = 0
  Multiplicity = 1
  Basis Set: AUG-CC-PVTZ
    Blend: AUG-CC-PVTZ
  Basis Set: (AUG-CC-PVTZ AUX)
    Blend: AUG-CC-PVTZ-JKFIT

    Orbital Energies [Eh]
    ---------------------

    Doubly Occupied:

       1A    -92.046644     2A    -20.506045     3A    -11.260691
       4A    -11.260315     5A    -11.235822     6A    -11.224779
       7A    -11.224481     8A    -11.222138     9A     -9.035845
      10A     -6.717881    11A     -6.717022    12A     -6.715807
      13A     -1.392475    14A     -1.103958    15A     -1.073826
      16A     -0.947111    17A     -0.943923    18A     -0.908144
      19A     -0.810815    20A     -0.753667    21A     -0.673200
      22A     -0.638623    23A     -0.625774    24A     -0.620850
      25A     -0.579295    26A     -0.577924    27A     -0.557891
      28A     -0.551382    29A     -0.544326    30A     -0.534648
      31A     -0.522204    32A     -0.502398    33A     -0.501012
      34A     -0.492760    35A     -0.488176    36A     -0.397250
      37A     -0.341093

  @DF-RHF Final Energy:  -707.83061101359056

   => Energetics <=

    Nuclear Repulsion Energy =            515.6290713861716313
    One-Electron Energy =               -1994.4189715982802227
    Two-Electron Energy =                 770.9592891985179222
    Total Energy =                       -707.8306110135905556
  Basis Set: (AUG-CC-PVTZ AUX)
    Blend: AUG-CC-PVTZ-RI
    Molecular point group: c1

    Geometry (in Angstrom), charge = 0, multiplicity = 1:

       Center              X                  Y                   Z               Mass
    ------------   -----------------  -----------------  -----------------  -----------------
         S           -0.033878117725    -0.608820921687    -0.393591142007    31.972071174400
         O           -0.237053217725    -1.696006521687     0.465667557993    15.994914619570
         C            1.436495782275     0.394944478313     0.240469557993    12.000000000000
         C           -1.341377217725     0.666179478313    -0.178253442007    12.000000000000
         C            1.695531782275     1.686351478313    -0.525256442007    12.000000000000
         C            2.628372782275    -0.557030521687     0.203446557993    12.000000000000
         C           -1.488194217725     0.988443478313     1.301967557993    12.000000000000
         C           -2.595307217725    -0.008709521687    -0.730173442007    12.000000000000
         H            1.175686782275     0.595039478313     1.284990557993     1.007825032230
         H           -1.109355217725     1.558641478313    -0.770329442007     1.007825032230
         H            2.640101782275     2.125276478313    -0.189946442007     1.007825032230
         H            1.783406782275     1.491820478313    -1.599647442007     1.007825032230
         H            0.910169782275     2.430297478313    -0.370999442007     1.007825032230
         H            2.387362782275    -1.488792521687     0.719614557993     1.007825032230
         H            3.487970782275    -0.092665521687     0.695802557993     1.007825032230
         H            2.908818782275    -0.790594521687    -0.828963442007     1.007825032230
         H           -2.454810217725     1.466740478313     1.486312557993     1.007825032230
         H           -1.447166217725     0.056804478313     1.874712557993     1.007825032230
         H           -0.707997217725     1.662506478313     1.664114557993     1.007825032230
         H           -2.489106217725    -0.247899521687    -1.792564442007     1.007825032230
         H           -3.457536217725     0.653431478313    -0.610580442007     1.007825032230
         H           -2.785595217725    -0.936396521687    -0.184095442007     1.007825032230

  Basis Set: AUG-CC-PVTZ
    Blend: AUG-CC-PVTZ
  Basis Set: (AUG-CC-PVTZ AUX)
    Blend: AUG-CC-PVTZ-JKFIT
	 Reference Energy          =    -707.8306110135905556 [Eh]
	 Singles Energy            =      -0.0000000000000000 [Eh]
	 Same-Spin Energy          =      -0.3860554467276928 [Eh]
	 Opposite-Spin Energy      =      -1.3042915798354473 [Eh]
	 Correlation Energy        =      -1.6903470265631402 [Eh]
	 Total Energy              =    -709.5209580401536869 [Eh]

	 ================> DF-SCS-MP2 Energies <==================
	-----------------------------------------------------------
	 SCS Same-Spin Scale       =       0.3333333333333333 [-]
	 SCS Opposite-Spin Scale   =       1.2000000000000000 [-]
	 SCS Same-Spin Energy      =      -0.1286851489092309 [Eh]
	 SCS Opposite-Spin Energy  =      -1.5651498958025367 [Eh]
	 SCS Correlation Energy    =      -1.6938350447117676 [Eh]
	 SCS Total Energy          =    -709.5244460583023738 [Eh]
	-----------------------------------------------------------

  Dipole Moment: [D]
     X:     0.3047      Y:     3.3013      Z:    -0.4316     Total:     3.3433

*** Psi4 exiting successfully. Buy a developer a beer!
