                               Psi4 1.3.2 release

  ==> Input File <==

--------------------------------------------------------------------------
#psi4
#
memory 32 gb

molecule  {
0 1
  S       -0.1242700    -0.7177530    -0.5437150
  O       -0.2556540    -1.7702980     0.4735910
  C        1.4178950     0.3206530     0.2483930
  C       -1.3599780     0.5918880    -0.1703300
  C        1.6769310     1.6120600    -0.5173330
  C        2.6097720    -0.6313220     0.2113700
  C       -1.5067950     0.9141520     1.3098910
  C       -2.6139080    -0.0830010    -0.7222500
  H        1.1570860     0.5207480     1.2929140
  H       -1.1279560     1.4843500    -0.7624060
  H        2.6215010     2.0509850    -0.1820230
  H        1.7648060     1.4175290    -1.5917240
  H        0.8915690     2.3560060    -0.3630760
  H        2.3687620    -1.5630840     0.7275380
  H        3.4693700    -0.1669570     0.7037260
  H        2.8902180    -0.8648860    -0.8210400
  H       -2.4734110     1.3924490     1.4942360
  H       -1.4657670    -0.0174870     1.8826360
  H       -0.7265980     1.5882150     1.6720380
  H       -2.5077070    -0.3221910    -1.7846410
  H       -3.4761370     0.5791400    -0.6026570
  H       -2.8041960    -1.0106880    -0.1761720
units angstrom
no_reorient  #important for SAPT in psi4, default
symmetry c1  #important for SAPT in psi4, default
}

set PROPERTIES_ORIGIN ["COM"]
properties('MP2/aug-cc-pvtz', properties = ['dipole'])
--------------------------------------------------------------------------

    Molecular point group: c1
  Charge       = 0
  Multiplicity = 1
  Basis Set: AUG-CC-PVTZ
    Blend: AUG-CC-PVTZ
  Basis Set: (AUG-CC-PVTZ AUX)
    Blend: AUG-CC-PVTZ-JKFIT

    Orbital Energies [Eh]
    ---------------------

    Doubly Occupied:

       1A    -92.057595     2A    -20.499469     3A    -11.268470
       4A    -11.263489     5A    -11.233399     6A    -11.226042
       7A    -11.224817     8A    -11.219944     9A     -9.044287
      10A     -6.725498    11A     -6.725371    12A     -6.723995
      13A     -1.344693    14A     -1.099390    15A     -1.069336
      16A     -0.947171    17A     -0.943461    18A     -0.904101
      19A     -0.802851    20A     -0.760729    21A     -0.663991
      22A     -0.636488    23A     -0.618261    24A     -0.613279
      25A     -0.575990    26A     -0.572170    27A     -0.554735
      28A     -0.549449    29A     -0.534308    30A     -0.526487
      31A     -0.512991    32A     -0.500709    33A     -0.495893
      34A     -0.488878    35A     -0.487206    36A     -0.381798
      37A     -0.352097

  @DF-RHF Final Energy:  -707.82340049843947

   => Energetics <=

    Nuclear Repulsion Energy =            509.9668208881292912
    One-Electron Energy =               -1983.2827674895565906
    Two-Electron Energy =                 765.4925461029877169
    Total Energy =                       -707.8234004984394687
  Basis Set: (AUG-CC-PVTZ AUX)
    Blend: AUG-CC-PVTZ-RI
    Molecular point group: c1

    Geometry (in Angstrom), charge = 0, multiplicity = 1:

       Center              X                  Y                   Z               Mass
    ------------   -----------------  -----------------  -----------------  -----------------
         S           -0.088549815456    -0.635201077617    -0.513950270266    31.972071174400
         O           -0.219933815456    -1.687746077617     0.503355729734    15.994914619570
         C            1.453615184544     0.403204922383     0.278157729734    12.000000000000
         C           -1.324257815456     0.674439922383    -0.140565270266    12.000000000000
         C            1.712651184544     1.694611922383    -0.487568270266    12.000000000000
         C            2.645492184544    -0.548770077617     0.241134729734    12.000000000000
         C           -1.471074815456     0.996703922383     1.339655729734    12.000000000000
         C           -2.578187815456    -0.000449077617    -0.692485270266    12.000000000000
         H            1.192806184544     0.603299922383     1.322678729734     1.007825032230
         H           -1.092235815456     1.566901922383    -0.732641270266     1.007825032230
         H            2.657221184544     2.133536922383    -0.152258270266     1.007825032230
         H            1.800526184544     1.500080922383    -1.561959270266     1.007825032230
         H            0.927289184544     2.438557922383    -0.333311270266     1.007825032230
         H            2.404482184544    -1.480532077617     0.757302729734     1.007825032230
         H            3.505090184544    -0.084405077617     0.733490729734     1.007825032230
         H            2.925938184544    -0.782334077617    -0.791275270266     1.007825032230
         H           -2.437690815456     1.475000922383     1.524000729734     1.007825032230
         H           -1.430046815456     0.065064922383     1.912400729734     1.007825032230
         H           -0.690877815456     1.670766922383     1.701802729734     1.007825032230
         H           -2.471986815456    -0.239639077617    -1.754876270266     1.007825032230
         H           -3.440416815456     0.661691922383    -0.572892270266     1.007825032230
         H           -2.768475815456    -0.928136077617    -0.146407270266     1.007825032230

  Basis Set: AUG-CC-PVTZ
    Blend: AUG-CC-PVTZ
  Basis Set: (AUG-CC-PVTZ AUX)
    Blend: AUG-CC-PVTZ-JKFIT
	 Reference Energy          =    -707.8234004984394687 [Eh]
	 Singles Energy            =      -0.0000000000000000 [Eh]
	 Same-Spin Energy          =      -0.3876664335584322 [Eh]
	 Opposite-Spin Energy      =      -1.3099854453699742 [Eh]
	 Correlation Energy        =      -1.6976518789284065 [Eh]
	 Total Energy              =    -709.5210523773678233 [Eh]

	 ================> DF-SCS-MP2 Energies <==================
	-----------------------------------------------------------
	 SCS Same-Spin Scale       =       0.3333333333333333 [-]
	 SCS Opposite-Spin Scale   =       1.2000000000000000 [-]
	 SCS Same-Spin Energy      =      -0.1292221445194774 [Eh]
	 SCS Opposite-Spin Energy  =      -1.5719825344439691 [Eh]
	 SCS Correlation Energy    =      -1.7012046789634465 [Eh]
	 SCS Total Energy          =    -709.5246051774029183 [Eh]
	-----------------------------------------------------------

  Dipole Moment: [D]
     X:     0.1222      Y:     3.3545      Z:    -0.7589     Total:     3.4414

*** Psi4 exiting successfully. Buy a developer a beer!
