                               Psi4 1.3.2 release

  ==> Input File <==

--------------------------------------------------------------------------
#psi4
#
memory 32 gb

molecule  {
0 1
  S        0.0871256    -0.5170979    -0.4103128
  O       -0.2556540    -1.7702980     0.4735910
  C        1.4178950     0.3206530     0.2483930
  C       -1.3599780     0.5918880    -0.1703300
  C        1.6769310     1.6120600    -0.5173330
  C        2.6097720    -0.6313220     0.2113700
  C       -1.5067950     0.9141520     1.3098910
  C       -2.6139080    -0.0830010    -0.7222500
  H        1.1570860     0.5207480     1.2929140
  H       -1.1279560     1.4843500    -0.7624060
  H        2.6215010     2.0509850    -0.1820230
  H        1.7648060     1.4175290    -1.5917240
  H        0.8915690     2.3560060    -0.3630760
  H        2.3687620    -1.5630840     0.7275380
  H        3.4693700    -0.1669570     0.7037260
  H        2.8902180    -0.8648860    -0.8210400
  H       -2.4734110     1.3924490     1.4942360
  H       -1.4657670    -0.0174870     1.8826360
  H       -0.7265980     1.5882150     1.6720380
  H       -2.5077070    -0.3221910    -1.7846410
  H       -3.4761370     0.5791400    -0.6026570
  H       -2.8041960    -1.0106880    -0.1761720
units angstrom
no_reorient  #important for SAPT in psi4, default
symmetry c1  #important for SAPT in psi4, default
}

set PROPERTIES_ORIGIN ["COM"]
properties('MP2/aug-cc-pvtz', properties = ['dipole'])
--------------------------------------------------------------------------

    Molecular point group: c1
  Charge       = 0
  Multiplicity = 1
  Basis Set: AUG-CC-PVTZ
    Blend: AUG-CC-PVTZ
  Basis Set: (AUG-CC-PVTZ AUX)
    Blend: AUG-CC-PVTZ-JKFIT

    Orbital Energies [Eh]
    ---------------------

    Doubly Occupied:

       1A    -92.044771     2A    -20.490824     3A    -11.271005
       4A    -11.265586     5A    -11.245016     6A    -11.230090
       7A    -11.226610     8A    -11.225920     9A     -9.035230
      10A     -6.717002    11A     -6.716532    12A     -6.715225
      13A     -1.289136    14A     -1.125112    15A     -1.082651
      16A     -0.956963    17A     -0.944941    18A     -0.935046
      19A     -0.826796    20A     -0.756139    21A     -0.674727
      22A     -0.647133    23A     -0.624602    24A     -0.610662
      25A     -0.582635    26A     -0.573424    27A     -0.560092
      28A     -0.551664    29A     -0.526887    30A     -0.520990
      31A     -0.514864    32A     -0.505302    33A     -0.493730
      34A     -0.483629    35A     -0.473832    36A     -0.403520
      37A     -0.350605

  @DF-RHF Final Energy:  -707.82890698423910

   => Energetics <=

    Nuclear Repulsion Energy =            515.7166715659333249
    One-Electron Energy =               -1994.6933760252093180
    Two-Electron Energy =                 771.1477974750367821
    Total Energy =                       -707.8289069842390973
  Basis Set: (AUG-CC-PVTZ AUX)
    Blend: AUG-CC-PVTZ-RI
    Molecular point group: c1

    Geometry (in Angstrom), charge = 0, multiplicity = 1:

       Center              X                  Y                   Z               Mass
    ------------   -----------------  -----------------  -----------------  -----------------
         S            0.072436105428    -0.482394462657    -0.412359338312    31.972071174400
         O           -0.270343494572    -1.735594562657     0.471544461688    15.994914619570
         C            1.403205505428     0.355356437343     0.246346461688    12.000000000000
         C           -1.374667494572     0.626591437343    -0.172376538312    12.000000000000
         C            1.662241505428     1.646763437343    -0.519379538312    12.000000000000
         C            2.595082505428    -0.596618562657     0.209323461688    12.000000000000
         C           -1.521484494572     0.948855437343     1.307844461688    12.000000000000
         C           -2.628597494572    -0.048297562657    -0.724296538312    12.000000000000
         H            1.142396505428     0.555451437343     1.290867461688     1.007825032230
         H           -1.142645494572     1.519053437343    -0.764452538312     1.007825032230
         H            2.606811505428     2.085688437343    -0.184069538312     1.007825032230
         H            1.750116505428     1.452232437343    -1.593770538312     1.007825032230
         H            0.876879505428     2.390709437343    -0.365122538312     1.007825032230
         H            2.354072505428    -1.528380562657     0.725491461688     1.007825032230
         H            3.454680505428    -0.132253562657     0.701679461688     1.007825032230
         H            2.875528505428    -0.830182562657    -0.823086538312     1.007825032230
         H           -2.488100494572     1.427152437343     1.492189461688     1.007825032230
         H           -1.480456494572     0.017216437343     1.880589461688     1.007825032230
         H           -0.741287494572     1.622918437343     1.669991461688     1.007825032230
         H           -2.522396494572    -0.287487562657    -1.786687538312     1.007825032230
         H           -3.490826494572     0.613843437343    -0.604703538312     1.007825032230
         H           -2.818885494572    -0.975984562657    -0.178218538312     1.007825032230

  Basis Set: AUG-CC-PVTZ
    Blend: AUG-CC-PVTZ
  Basis Set: (AUG-CC-PVTZ AUX)
    Blend: AUG-CC-PVTZ-JKFIT
	 Reference Energy          =    -707.8289069842390973 [Eh]
	 Singles Energy            =      -0.0000000000000000 [Eh]
	 Same-Spin Energy          =      -0.3890045254640866 [Eh]
	 Opposite-Spin Energy      =      -1.3092696213124970 [Eh]
	 Correlation Energy        =      -1.6982741467765836 [Eh]
	 Total Energy              =    -709.5271811310157091 [Eh]

	 ================> DF-SCS-MP2 Energies <==================
	-----------------------------------------------------------
	 SCS Same-Spin Scale       =       0.3333333333333333 [-]
	 SCS Opposite-Spin Scale   =       1.2000000000000000 [-]
	 SCS Same-Spin Energy      =      -0.1296681751546955 [Eh]
	 SCS Opposite-Spin Energy  =      -1.5711235455749963 [Eh]
	 SCS Correlation Energy    =      -1.7007917207296919 [Eh]
	 SCS Total Energy          =    -709.5296987049688369 [Eh]
	-----------------------------------------------------------

  Dipole Moment: [D]
     X:     0.8320      Y:     4.2811      Z:    -0.6057     Total:     4.4031

*** Psi4 exiting successfully. Buy a developer a beer!
