                               Psi4 1.4a3.dev225

  ==> Input File <==

--------------------------------------------------------------------------
#psi4
#
memory 32 gb

molecule  {
0 1
  S        0.0075060    -0.6017520    -0.4647870
  O       -0.2556300    -1.7703020     0.4735710
  C        1.4178840     0.3206660     0.2483950
  C       -1.3748490     0.6048602    -0.1671355
  C        1.6769860     1.6120510    -0.5173440
  C        2.6097490    -0.6313490     0.2114050
  C       -1.5068220     0.9141660     1.3098780
  C       -2.6139150    -0.0830150    -0.7222310
  H        1.1570720     0.5207860     1.2929090
  H       -1.1279920     1.4843500    -0.7624100
  H        2.6214640     2.0510430    -0.1818700
  H        1.7650720     1.4174690    -1.5917100
  H        0.8915570     2.3559690    -0.3632840
  H        2.3687570    -1.5630370     0.7277090
  H        3.4693900    -0.1669130     0.7036130
  H        2.8901120    -0.8650600    -0.8209970
  H       -2.4734430     1.3924660     1.4941730
  H       -1.4657910    -0.0174610     1.8826380
  H       -0.7266330     1.5882370     1.6720420
  H       -2.5077120    -0.3222990    -1.7846030
  H       -3.4761170     0.5791690    -0.6027030
  H       -2.8042390    -1.0106520    -0.1760810
units angstrom
no_reorient  #important for SAPT in psi4, default
symmetry c1  #important for SAPT in psi4, default
}

set PROPERTIES_ORIGIN ["COM"]
properties('MP2/aug-cc-pvtz', properties = ['dipole'])
--------------------------------------------------------------------------

    Molecular point group: c1
  Charge       = 0
  Multiplicity = 1
  Basis Set: AUG-CC-PVTZ
    Blend: AUG-CC-PVTZ
  Basis Set: (AUG-CC-PVTZ AUX)
    Blend: AUG-CC-PVTZ-JKFIT

    Orbital Energies [Eh]
    ---------------------

    Doubly Occupied:

       1A    -92.051188     2A    -20.494535     3A    -11.268151
       4A    -11.266734     5A    -11.239750     6A    -11.225915
       7A    -11.225633     8A    -11.225019     9A     -9.039132
      10A     -6.720558    11A     -6.720381    12A     -6.719135
      13A     -1.313185    14A     -1.109258    15A     -1.079673
      16A     -0.951119    17A     -0.946048    18A     -0.919768
      19A     -0.816630    20A     -0.758208    21A     -0.668560
      22A     -0.643197    23A     -0.622024    24A     -0.611538
      25A     -0.579079    26A     -0.573146    27A     -0.555566
      28A     -0.553258    29A     -0.528934    30A     -0.520175
      31A     -0.512402    32A     -0.505389    33A     -0.493631
      34A     -0.488668    35A     -0.484926    36A     -0.395580
      37A     -0.354236

  @DF-RHF Final Energy:  -707.84081364881752

   => Energetics <=

    Nuclear Repulsion Energy =            513.0341843859347364
    One-Electron Energy =               -1989.3893303648271740
    Two-Electron Energy =                 768.5143323300748079
    Total Energy =                       -707.8408136488175160
  Basis Set: (AUG-CC-PVTZ AUX)
    Blend: AUG-CC-PVTZ-RI
    Molecular point group: c1

    Geometry (in Angstrom), charge = 0, multiplicity = 1:

       Center              X                  Y                   Z               Mass
    ------------   -----------------  -----------------  -----------------  -----------------
         S            0.013132297086    -0.548019856765    -0.454130515523    31.972071174400
         O           -0.250003702914    -1.716569856765     0.484227484477    15.994914619570
         C            1.423510297086     0.374398143235     0.259051484477    12.000000000000
         C           -1.369222702914     0.658592343235    -0.156479015523    12.000000000000
         C            1.682612297086     1.665783143235    -0.506687515523    12.000000000000
         C            2.615375297086    -0.577616856765     0.222061484477    12.000000000000
         C           -1.501195702914     0.967898143235     1.320534484477    12.000000000000
         C           -2.608288702914    -0.029282856765    -0.711574515523    12.000000000000
         H            1.162698297086     0.574518143235     1.303565484477     1.007825032230
         H           -1.122365702914     1.538082143235    -0.751753515523     1.007825032230
         H            2.627090297086     2.104775143235    -0.171213515523     1.007825032230
         H            1.770698297086     1.471201143235    -1.581053515523     1.007825032230
         H            0.897183297086     2.409701143235    -0.352627515523     1.007825032230
         H            2.374383297086    -1.509304856765     0.738365484477     1.007825032230
         H            3.475016297086    -0.113180856765     0.714269484477     1.007825032230
         H            2.895738297086    -0.811327856765    -0.810340515523     1.007825032230
         H           -2.467816702914     1.446198143235     1.504829484477     1.007825032230
         H           -1.460164702914     0.036271143235     1.893294484477     1.007825032230
         H           -0.721006702914     1.641969143235     1.682698484477     1.007825032230
         H           -2.502085702914    -0.268566856765    -1.773946515523     1.007825032230
         H           -3.470490702914     0.632901143235    -0.592046515523     1.007825032230
         H           -2.798612702914    -0.956919856765    -0.165424515523     1.007825032230

  Basis Set: AUG-CC-PVTZ
    Blend: AUG-CC-PVTZ
  Basis Set: (AUG-CC-PVTZ AUX)
    Blend: AUG-CC-PVTZ-JKFIT
	 Reference Energy          =    -707.8408136488175160 [Eh]
	 Singles Energy            =      -0.0000000000000000 [Eh]
	 Same-Spin Energy          =      -0.3878969195541698 [Eh]
	 Opposite-Spin Energy      =      -1.3084539433759397 [Eh]
	 Correlation Energy        =      -1.6963508629301094 [Eh]
	 Total Energy              =    -709.5371645117476191 [Eh]

	 ================> DF-SCS-MP2 Energies <==================
	-----------------------------------------------------------
	 SCS Same-Spin Scale       =       0.3333333333333333 [-]
	 SCS Opposite-Spin Scale   =       1.2000000000000000 [-]
	 SCS Same-Spin Energy      =      -0.1292989731847232 [Eh]
	 SCS Opposite-Spin Energy  =      -1.5701447320511275 [Eh]
	 SCS Correlation Energy    =      -1.6994437052358506 [Eh]
	 SCS Total Energy          =    -709.5402573540533240 [Eh]
	-----------------------------------------------------------

  Dipole Moment: [D]
     X:     0.5395      Y:     3.8807      Z:    -0.6489     Total:     3.9714

*** Psi4 exiting successfully. Buy a developer a beer!
