                               Psi4 1.3.2 release

  ==> Input File <==

--------------------------------------------------------------------------
#psi4
#
memory 32 gb

molecule  {
0 1
  S        0.0608406    -0.5146122    -0.5424618
  O       -0.2556540    -1.7702980     0.4735910
  C        1.4178950     0.3206530     0.2483930
  C       -1.3599780     0.5918880    -0.1703300
  C        1.6769310     1.6120600    -0.5173330
  C        2.6097720    -0.6313220     0.2113700
  C       -1.5067950     0.9141520     1.3098910
  C       -2.6139080    -0.0830010    -0.7222500
  H        1.1570860     0.5207480     1.2929140
  H       -1.1279560     1.4843500    -0.7624060
  H        2.6215010     2.0509850    -0.1820230
  H        1.7648060     1.4175290    -1.5917240
  H        0.8915690     2.3560060    -0.3630760
  H        2.3687620    -1.5630840     0.7275380
  H        3.4693700    -0.1669570     0.7037260
  H        2.8902180    -0.8648860    -0.8210400
  H       -2.4734110     1.3924490     1.4942360
  H       -1.4657670    -0.0174870     1.8826360
  H       -0.7265980     1.5882150     1.6720380
  H       -2.5077070    -0.3221910    -1.7846410
  H       -3.4761370     0.5791400    -0.6026570
  H       -2.8041960    -1.0106880    -0.1761720
units angstrom
no_reorient  #important for SAPT in psi4, default
symmetry c1  #important for SAPT in psi4, default
}

set PROPERTIES_ORIGIN ["COM"]
properties('MP2/aug-cc-pvtz', properties = ['dipole'])
--------------------------------------------------------------------------

    Molecular point group: c1
  Charge       = 0
  Multiplicity = 1
  Basis Set: AUG-CC-PVTZ
    Blend: AUG-CC-PVTZ
  Basis Set: (AUG-CC-PVTZ AUX)
    Blend: AUG-CC-PVTZ-JKFIT

    Orbital Energies [Eh]
    ---------------------

    Doubly Occupied:

       1A    -92.050692     2A    -20.488759     3A    -11.274138
       4A    -11.270563     5A    -11.242023     6A    -11.227485
       7A    -11.227108     8A    -11.226948     9A     -9.040172
      10A     -6.721513    11A     -6.721129    12A     -6.719806
      13A     -1.254657    14A     -1.114047    15A     -1.081679
      16A     -0.954291    17A     -0.945622    18A     -0.933028
      19A     -0.822232    20A     -0.761632    21A     -0.669059
      22A     -0.644794    23A     -0.622378    24A     -0.606380
      25A     -0.580445    26A     -0.572519    27A     -0.558855
      28A     -0.550099    29A     -0.519693    30A     -0.515083
      31A     -0.512102    32A     -0.505117    33A     -0.485960
      34A     -0.479259    35A     -0.463493    36A     -0.393034
      37A     -0.364722

  @DF-RHF Final Energy:  -707.82265982210504

   => Energetics <=

    Nuclear Repulsion Energy =            511.4655712780435692
    One-Electron Energy =               -1986.3354297549581133
    Two-Electron Energy =                 767.0471986548094492
    Total Energy =                       -707.8226598221050381
  Basis Set: (AUG-CC-PVTZ AUX)
    Blend: AUG-CC-PVTZ-RI
    Molecular point group: c1

    Geometry (in Angstrom), charge = 0, multiplicity = 1:

       Center              X                  Y                   Z               Mass
    ------------   -----------------  -----------------  -----------------  -----------------
         S            0.052419061883    -0.480501506022    -0.512995910023    31.972071174400
         O           -0.264075538117    -1.736187306022     0.503056889977    15.994914619570
         C            1.409473461883     0.354763693978     0.277858889977    12.000000000000
         C           -1.368399538117     0.625998693978    -0.140864110023    12.000000000000
         C            1.668509461883     1.646170693978    -0.487867110023    12.000000000000
         C            2.601350461883    -0.597211306022     0.240835889977    12.000000000000
         C           -1.515216538117     0.948262693978     1.339356889977    12.000000000000
         C           -2.622329538117    -0.048890306022    -0.692784110023    12.000000000000
         H            1.148664461883     0.554858693978     1.322379889977     1.007825032230
         H           -1.136377538117     1.518460693978    -0.732940110023     1.007825032230
         H            2.613079461883     2.085095693978    -0.152557110023     1.007825032230
         H            1.756384461883     1.451639693978    -1.562258110023     1.007825032230
         H            0.883147461883     2.390116693978    -0.333610110023     1.007825032230
         H            2.360340461883    -1.528973306022     0.757003889977     1.007825032230
         H            3.460948461883    -0.132846306022     0.733191889977     1.007825032230
         H            2.881796461883    -0.830775306022    -0.791574110023     1.007825032230
         H           -2.481832538117     1.426559693978     1.523701889977     1.007825032230
         H           -1.474188538117     0.016623693978     1.912101889977     1.007825032230
         H           -0.735019538117     1.622325693978     1.701503889977     1.007825032230
         H           -2.516128538117    -0.288080306022    -1.755175110023     1.007825032230
         H           -3.484558538117     0.613250693978    -0.573191110023     1.007825032230
         H           -2.812617538117    -0.976577306022    -0.146706110023     1.007825032230

  Basis Set: AUG-CC-PVTZ
    Blend: AUG-CC-PVTZ
  Basis Set: (AUG-CC-PVTZ AUX)
    Blend: AUG-CC-PVTZ-JKFIT
	 Reference Energy          =    -707.8226598221050381 [Eh]
	 Singles Energy            =      -0.0000000000000000 [Eh]
	 Same-Spin Energy          =      -0.3888387043151414 [Eh]
	 Opposite-Spin Energy      =      -1.3118391664805857 [Eh]
	 Correlation Energy        =      -1.7006778707957273 [Eh]
	 Total Energy              =    -709.5233376929007818 [Eh]

	 ================> DF-SCS-MP2 Energies <==================
	-----------------------------------------------------------
	 SCS Same-Spin Scale       =       0.3333333333333333 [-]
	 SCS Opposite-Spin Scale   =       1.2000000000000000 [-]
	 SCS Same-Spin Energy      =      -0.1296129014383805 [Eh]
	 SCS Opposite-Spin Energy  =      -1.5742069997767028 [Eh]
	 SCS Correlation Energy    =      -1.7038199012150832 [Eh]
	 SCS Total Energy          =    -709.5264797233201080 [Eh]
	-----------------------------------------------------------

  Dipole Moment: [D]
     X:     0.7196      Y:     4.4316      Z:    -0.8369     Total:     4.5669

*** Psi4 exiting successfully. Buy a developer a beer!
