                               Psi4 1.3.2 release

  ==> Input File <==

--------------------------------------------------------------------------
#psi4
#
memory 32 gb

molecule  {
0 1
  S        0.0075120    -0.6017700    -0.4647820
  O       -0.2338038    -1.7822839     0.4644174
  C        1.4178950     0.3206530     0.2483930
  C       -1.3599780     0.5918880    -0.1703300
  C        1.6769310     1.6120600    -0.5173330
  C        2.6097720    -0.6313220     0.2113700
  C       -1.5067950     0.9141520     1.3098910
  C       -2.6139080    -0.0830010    -0.7222500
  H        1.1570860     0.5207480     1.2929140
  H       -1.1279560     1.4843500    -0.7624060
  H        2.6215010     2.0509850    -0.1820230
  H        1.7648060     1.4175290    -1.5917240
  H        0.8915690     2.3560060    -0.3630760
  H        2.3687620    -1.5630840     0.7275380
  H        3.4693700    -0.1669570     0.7037260
  H        2.8902180    -0.8648860    -0.8210400
  H       -2.4734110     1.3924490     1.4942360
  H       -1.4657670    -0.0174870     1.8826360
  H       -0.7265980     1.5882150     1.6720380
  H       -2.5077070    -0.3221910    -1.7846410
  H       -3.4761370     0.5791400    -0.6026570
  H       -2.8041960    -1.0106880    -0.1761720
units angstrom
no_reorient  #important for SAPT in psi4, default
symmetry c1  #important for SAPT in psi4, default
}

set PROPERTIES_ORIGIN ["COM"]
properties('MP2/aug-cc-pvtz', properties = ['dipole'])
--------------------------------------------------------------------------

    Molecular point group: c1
  Charge       = 0
  Multiplicity = 1
  Basis Set: AUG-CC-PVTZ
    Blend: AUG-CC-PVTZ
  Basis Set: (AUG-CC-PVTZ AUX)
    Blend: AUG-CC-PVTZ-JKFIT

    Orbital Energies [Eh]
    ---------------------

    Doubly Occupied:

       1A    -92.051800     2A    -20.495124     3A    -11.268314
       4A    -11.266842     5A    -11.239602     6A    -11.226580
       7A    -11.226291     8A    -11.224777     9A     -9.039837
      10A     -6.721307    11A     -6.721112    12A     -6.719864
      13A     -1.313958    14A     -1.109878    15A     -1.079085
      16A     -0.950917    17A     -0.945391    18A     -0.921710
      19A     -0.817170    20A     -0.757599    21A     -0.669579
      22A     -0.642557    23A     -0.621740    24A     -0.611338
      25A     -0.578995    26A     -0.573499    27A     -0.555560
      28A     -0.552836    29A     -0.529987    30A     -0.520619
      31A     -0.512395    32A     -0.504371    33A     -0.493079
      34A     -0.488781    35A     -0.484306    36A     -0.398073
      37A     -0.354896

  @DF-RHF Final Energy:  -707.84114140614690

   => Energetics <=

    Nuclear Repulsion Energy =            513.2105268801203692
    One-Electron Energy =               -1989.7237964498158362
    Two-Electron Energy =                 768.6721281635485639
    Total Energy =                       -707.8411414061469031
  Basis Set: (AUG-CC-PVTZ AUX)
    Blend: AUG-CC-PVTZ-RI
    Molecular point group: c1

    Geometry (in Angstrom), charge = 0, multiplicity = 1:

       Center              X                  Y                   Z               Mass
    ------------   -----------------  -----------------  -----------------  -----------------
         S            0.009200610529    -0.545445659134    -0.452745357609    31.972071174400
         O           -0.232115189471    -1.725959559134     0.476454042391    15.994914619570
         C            1.419583610529     0.376977340866     0.260429642391    12.000000000000
         C           -1.358289389471     0.648212340866    -0.158293357609    12.000000000000
         C            1.678619610529     1.668384340866    -0.505296357609    12.000000000000
         C            2.611460610529    -0.574997659134     0.223406642391    12.000000000000
         C           -1.505106389471     0.970476340866     1.321927642391    12.000000000000
         C           -2.612219389471    -0.026676659134    -0.710213357609    12.000000000000
         H            1.158774610529     0.577072340866     1.304950642391     1.007825032230
         H           -1.126267389471     1.540674340866    -0.750369357609     1.007825032230
         H            2.623189610529     2.107309340866    -0.169986357609     1.007825032230
         H            1.766494610529     1.473853340866    -1.579687357609     1.007825032230
         H            0.893257610529     2.412330340866    -0.351039357609     1.007825032230
         H            2.370450610529    -1.506759659134     0.739574642391     1.007825032230
         H            3.471058610529    -0.110632659134     0.715762642391     1.007825032230
         H            2.891906610529    -0.808561659134    -0.809003357609     1.007825032230
         H           -2.471722389471     1.448773340866     1.506272642391     1.007825032230
         H           -1.464078389471     0.038837340866     1.894672642391     1.007825032230
         H           -0.724909389471     1.644539340866     1.684074642391     1.007825032230
         H           -2.506018389471    -0.265866659134    -1.772604357609     1.007825032230
         H           -3.474448389471     0.635464340866    -0.590620357609     1.007825032230
         H           -2.802507389471    -0.954363659134    -0.164135357609     1.007825032230

  Basis Set: AUG-CC-PVTZ
    Blend: AUG-CC-PVTZ
  Basis Set: (AUG-CC-PVTZ AUX)
    Blend: AUG-CC-PVTZ-JKFIT
	 Reference Energy          =    -707.8411414061469031 [Eh]
	 Singles Energy            =      -0.0000000000000000 [Eh]
	 Same-Spin Energy          =      -0.3877866806255028 [Eh]
	 Opposite-Spin Energy      =      -1.3082768109447356 [Eh]
	 Correlation Energy        =      -1.6960634915702384 [Eh]
	 Total Energy              =    -709.5372048977171744 [Eh]

	 ================> DF-SCS-MP2 Energies <==================
	-----------------------------------------------------------
	 SCS Same-Spin Scale       =       0.3333333333333333 [-]
	 SCS Opposite-Spin Scale   =       1.2000000000000000 [-]
	 SCS Same-Spin Energy      =      -0.1292622268751676 [Eh]
	 SCS Opposite-Spin Energy  =      -1.5699321731336826 [Eh]
	 SCS Correlation Energy    =      -1.6991944000088501 [Eh]
	 SCS Total Energy          =    -709.5403358061557810 [Eh]
	-----------------------------------------------------------

  Dipole Moment: [D]
     X:     0.4875      Y:     3.9073      Z:    -0.6287     Total:     3.9875

*** Psi4 exiting successfully. Buy a developer a beer!
