                               Psi4 1.3.2 release

  ==> Input File <==

--------------------------------------------------------------------------
#psi4
#
memory 32 gb

molecule  {
-2 1
  O       -1.2362950     1.7303800    -0.2239510
  O        2.6794370    -1.1261430    -0.8901160
  O        3.7000480     0.2611620     0.6076450
  O       -3.2904550    -0.3020480    -0.9006360
  O       -2.5973840    -0.9175860     1.2002500
  C        0.1162890    -0.2520540     0.0602520
  C        1.3712430     0.6068110     0.1462360
  C       -1.1988410     0.5019860    -0.0558080
  C        2.7080760    -0.1725680    -0.0543080
  C       -2.4989821    -0.3695615    -0.2145107
  H        0.0210760    -0.9244250     0.9209780
  H        0.2133690    -0.9136840    -0.8118550
  H        1.4153100     1.1406480     1.1027450
  H        1.3130670     1.3830990    -0.6295990
units angstrom
no_reorient  #important for SAPT in psi4, default
symmetry c1  #important for SAPT in psi4, default
}

set PROPERTIES_ORIGIN ["COM"]
properties('MP2/aug-cc-pvtz', properties = ['dipole'])
--------------------------------------------------------------------------

    Molecular point group: c1
  Charge       = -2
  Multiplicity = 1
  Basis Set: AUG-CC-PVTZ
    Blend: AUG-CC-PVTZ
  Basis Set: (AUG-CC-PVTZ AUX)
    Blend: AUG-CC-PVTZ-JKFIT

    Orbital Energies [Eh]
    ---------------------

    Doubly Occupied:

       1A    -20.288103     2A    -20.286293     3A    -20.207718
       4A    -20.207286     5A    -20.182683     6A    -11.075363
       7A    -11.065133     8A    -11.050689     9A    -10.965306
      10A    -10.954642    11A     -1.247446    12A     -1.110141
      13A     -1.073339    14A     -0.975051    15A     -0.892670
      16A     -0.784172    17A     -0.655985    18A     -0.554359
      19A     -0.459603    20A     -0.434672    21A     -0.410994
      22A     -0.377537    23A     -0.367764    24A     -0.356425
      25A     -0.345974    26A     -0.315642    27A     -0.303513
      28A     -0.279957    29A     -0.252279    30A     -0.227723
      31A     -0.210064    32A     -0.200691    33A     -0.123532
      34A     -0.112720    35A     -0.108657    36A     -0.100894
      37A     -0.091842    38A     -0.074166

  @DF-RHF Final Energy:  -566.08049389299083

   => Energetics <=

    Nuclear Repulsion Energy =            479.7896785545441958
    One-Electron Energy =               -1754.2782951886692899
    Two-Electron Energy =                 708.4081227411342070
    Total Energy =                       -566.0804938929908303
  Basis Set: (AUG-CC-PVTZ AUX)
    Blend: AUG-CC-PVTZ-RI
    Molecular point group: c1

    Geometry (in Angstrom), charge = -2, multiplicity = 1:

       Center              X                  Y                   Z               Mass
    ------------   -----------------  -----------------  -----------------  -----------------
         O           -1.215801584469     1.738710170249    -0.195211092827    15.994914619570
         O            2.699930415531    -1.117812829751    -0.861376092827    15.994914619570
         O            3.720541415531     0.269492170249     0.636384907173    15.994914619570
         O           -3.269961584469    -0.293717829751    -0.871896092827    15.994914619570
         O           -2.576890584469    -0.909255829751     1.228989907173    15.994914619570
         C            0.136782415531    -0.243723829751     0.088991907173    12.000000000000
         C            1.391736415531     0.615141170249     0.174975907173    12.000000000000
         C           -1.178347584469     0.510316170249    -0.027068092827    12.000000000000
         C            2.728569415531    -0.164237829751    -0.025568092827    12.000000000000
         C           -2.478488684469    -0.361231329751    -0.185770792827    12.000000000000
         H            0.041569415531    -0.916094829751     0.949717907173     1.007825032230
         H            0.233862415531    -0.905353829751    -0.783115092827     1.007825032230
         H            1.435803415531     1.148978170249     1.131484907173     1.007825032230
         H            1.333560415531     1.391429170249    -0.600859092827     1.007825032230

  Basis Set: AUG-CC-PVTZ
    Blend: AUG-CC-PVTZ
  Basis Set: (AUG-CC-PVTZ AUX)
    Blend: AUG-CC-PVTZ-JKFIT
	 Reference Energy          =    -566.0804938929908303 [Eh]
	 Singles Energy            =      -0.0000000000000000 [Eh]
	 Same-Spin Energy          =      -0.5595770167147789 [Eh]
	 Opposite-Spin Energy      =      -1.6393583569854606 [Eh]
	 Correlation Energy        =      -2.1989353737002393 [Eh]
	 Total Energy              =    -568.2794292666910678 [Eh]

	 ================> DF-SCS-MP2 Energies <==================
	-----------------------------------------------------------
	 SCS Same-Spin Scale       =       0.3333333333333333 [-]
	 SCS Opposite-Spin Scale   =       1.2000000000000000 [-]
	 SCS Same-Spin Energy      =      -0.1865256722382596 [Eh]
	 SCS Opposite-Spin Energy  =      -1.9672300283825526 [Eh]
	 SCS Correlation Energy    =      -2.1537557006208123 [Eh]
	 SCS Total Energy          =    -568.2342495936115938 [Eh]
	-----------------------------------------------------------

  Dipole Moment: [D]
     X:    -2.1405      Y:     2.5039      Z:    -2.4487     Total:     4.1046

*** Psi4 exiting successfully. Buy a developer a beer!
