                               Psi4 1.3.2 release

  ==> Input File <==

--------------------------------------------------------------------------
#psi4
#
memory 32 gb

molecule  {
-2 1
  O       -1.2362950     1.7303800    -0.2239510
  O        2.6794370    -1.1261430    -0.8901160
  O        3.7000480     0.2611620     0.6076450
  O       -3.2904550    -0.3020480    -0.9006360
  O       -2.5973840    -0.9175860     1.2002500
  C        0.1162890    -0.2520540     0.0602520
  C        1.3712430     0.6068110     0.1462360
  C       -1.3145335     0.7014421     0.0407969
  C        2.7080760    -0.1725680    -0.0543080
  C       -2.4977060    -0.3261360     0.0823270
  H        0.0210760    -0.9244250     0.9209780
  H        0.2133690    -0.9136840    -0.8118550
  H        1.4153100     1.1406480     1.1027450
  H        1.3130670     1.3830990    -0.6295990
units angstrom
no_reorient  #important for SAPT in psi4, default
symmetry c1  #important for SAPT in psi4, default
}

set PROPERTIES_ORIGIN ["COM"]
properties('MP2/aug-cc-pvtz', properties = ['dipole'])
--------------------------------------------------------------------------

    Molecular point group: c1
  Charge       = -2
  Multiplicity = 1
  Basis Set: AUG-CC-PVTZ
    Blend: AUG-CC-PVTZ
  Basis Set: (AUG-CC-PVTZ AUX)
    Blend: AUG-CC-PVTZ-JKFIT

    Orbital Energies [Eh]
    ---------------------

    Doubly Occupied:

       1A    -20.307501     2A    -20.231899     3A    -20.227878
       4A    -20.203614     5A    -20.201949     6A    -11.069221
       7A    -11.056490     8A    -11.045427     9A    -10.950856
      10A    -10.948466    11A     -1.248965    12A     -1.092685
      13A     -1.068524    14A     -0.998263    15A     -0.970264
      16A     -0.757614    17A     -0.625753    18A     -0.550389
      19A     -0.468093    20A     -0.425556    21A     -0.400184
      22A     -0.382301    23A     -0.374241    24A     -0.335404
      25A     -0.323900    26A     -0.314992    27A     -0.301086
      28A     -0.278200    29A     -0.260137    30A     -0.223203
      31A     -0.205090    32A     -0.202335    33A     -0.147316
      34A     -0.126066    35A     -0.120072    36A     -0.109751
      37A     -0.104230    38A     -0.060869

  @DF-RHF Final Energy:  -566.13296451461065

   => Energetics <=

    Nuclear Repulsion Energy =            479.8508034113518192
    One-Electron Energy =               -1754.5299676705158163
    Two-Electron Energy =                 708.5461997445534053
    Total Energy =                       -566.1329645146106486
  Basis Set: (AUG-CC-PVTZ AUX)
    Blend: AUG-CC-PVTZ-RI
    Molecular point group: c1

    Geometry (in Angstrom), charge = -2, multiplicity = 1:

       Center              X                  Y                   Z               Mass
    ------------   -----------------  -----------------  -----------------  -----------------
         O           -1.206267273338     1.718470862402    -0.227996638959    15.994914619570
         O            2.709464726662    -1.138052137598    -0.894161638959    15.994914619570
         O            3.730075726662     0.249252862402     0.603599361041    15.994914619570
         O           -3.260427273338    -0.313957137598    -0.904681638959    15.994914619570
         O           -2.567356273338    -0.929495137598     1.196204361041    15.994914619570
         C            0.146316726662    -0.263963137598     0.056206361041    12.000000000000
         C            1.401270726662     0.594901862402     0.142190361041    12.000000000000
         C           -1.284505773338     0.689532962402     0.036751261041    12.000000000000
         C            2.738103726662    -0.184477137598    -0.058353638959    12.000000000000
         C           -2.467678273338    -0.338045137598     0.078281361041    12.000000000000
         H            0.051103726662    -0.936334137598     0.916932361041     1.007825032230
         H            0.243396726662    -0.925593137598    -0.815900638959     1.007825032230
         H            1.445337726662     1.128738862402     1.098699361041     1.007825032230
         H            1.343094726662     1.371189862402    -0.633644638959     1.007825032230

  Basis Set: AUG-CC-PVTZ
    Blend: AUG-CC-PVTZ
  Basis Set: (AUG-CC-PVTZ AUX)
    Blend: AUG-CC-PVTZ-JKFIT
	 Reference Energy          =    -566.1329645146106486 [Eh]
	 Singles Energy            =      -0.0000000000000000 [Eh]
	 Same-Spin Energy          =      -0.5552282728011825 [Eh]
	 Opposite-Spin Energy      =      -1.6295385733150312 [Eh]
	 Correlation Energy        =      -2.1847668461162137 [Eh]
	 Total Energy              =    -568.3177313607268388 [Eh]

	 ================> DF-SCS-MP2 Energies <==================
	-----------------------------------------------------------
	 SCS Same-Spin Scale       =       0.3333333333333333 [-]
	 SCS Opposite-Spin Scale   =       1.2000000000000000 [-]
	 SCS Same-Spin Energy      =      -0.1850760909337275 [Eh]
	 SCS Opposite-Spin Energy  =      -1.9554462879780372 [Eh]
	 SCS Correlation Energy    =      -2.1405223789117649 [Eh]
	 SCS Total Energy          =    -568.2734868935224313 [Eh]
	-----------------------------------------------------------

  Dipole Moment: [D]
     X:    -2.3375      Y:     3.3426      Z:     0.3217     Total:     4.0915

*** Psi4 exiting successfully. Buy a developer a beer!
