                               Psi4 1.3.2 release

  ==> Input File <==

--------------------------------------------------------------------------
#psi4
#
memory 32 gb

molecule  {
-2 1
  O       -1.2362950     1.7303800    -0.2239510
  O        2.6794370    -1.1261430    -0.8901160
  O        3.7000480     0.2611620     0.6076450
  O       -3.2904550    -0.3020480    -0.9006360
  O       -2.5973840    -0.9175860     1.2002500
  C        0.1162890    -0.2520540     0.0602520
  C        1.3352521     0.5130248     0.2576308
  C       -1.1988410     0.5019860    -0.0558080
  C        2.7080760    -0.1725680    -0.0543080
  C       -2.4977060    -0.3261360     0.0823270
  H        0.0210760    -0.9244250     0.9209780
  H        0.2133690    -0.9136840    -0.8118550
  H        1.4153100     1.1406480     1.1027450
  H        1.3130670     1.3830990    -0.6295990
units angstrom
no_reorient  #important for SAPT in psi4, default
symmetry c1  #important for SAPT in psi4, default
}

set PROPERTIES_ORIGIN ["COM"]
properties('MP2/aug-cc-pvtz', properties = ['dipole'])
--------------------------------------------------------------------------

    Molecular point group: c1
  Charge       = -2
  Multiplicity = 1
  Basis Set: AUG-CC-PVTZ
    Blend: AUG-CC-PVTZ
  Basis Set: (AUG-CC-PVTZ AUX)
    Blend: AUG-CC-PVTZ-JKFIT

    Orbital Energies [Eh]
    ---------------------

    Doubly Occupied:

       1A    -20.290118     2A    -20.232334     3A    -20.231388
       4A    -20.210337     5A    -20.209439     6A    -11.073519
       7A    -11.071787     8A    -11.056045     9A    -10.968912
      10A    -10.964745    11A     -1.120423    12A     -1.087220
      13A     -1.075939    14A     -1.000734    15A     -0.977655
      16A     -0.803010    17A     -0.659237    18A     -0.557983
      19A     -0.442055    20A     -0.424954    21A     -0.383978
      22A     -0.376192    23A     -0.362996    24A     -0.332996
      25A     -0.329254    26A     -0.305237    27A     -0.282408
      28A     -0.272330    29A     -0.265181    30A     -0.231309
      31A     -0.211310    32A     -0.182844    33A     -0.147117
      34A     -0.129596    35A     -0.126953    36A     -0.118127
      37A     -0.111541    38A     -0.099857

  @DF-RHF Final Energy:  -566.17163348515476

   => Energetics <=

    Nuclear Repulsion Energy =            480.0186347292696496
    One-Electron Energy =               -1754.9264172085847804
    Two-Electron Energy =                 708.7361489941603168
    Total Energy =                       -566.1716334851547572
  Basis Set: (AUG-CC-PVTZ AUX)
    Blend: AUG-CC-PVTZ-RI
    Molecular point group: c1

    Geometry (in Angstrom), charge = -2, multiplicity = 1:

       Center              X                  Y                   Z               Mass
    ------------   -----------------  -----------------  -----------------  -----------------
         O           -1.212908802455     1.742906724087    -0.229229080359    15.994914619570
         O            2.702823197545    -1.113616275913    -0.895394080359    15.994914619570
         O            3.723434197545     0.273688724087     0.602366919641    15.994914619570
         O           -3.267068802455    -0.289521275913    -0.905914080359    15.994914619570
         O           -2.573997802455    -0.905059275913     1.194971919641    15.994914619570
         C            0.139675197545    -0.239527275913     0.054973919641    12.000000000000
         C            1.358638297545     0.525551524087     0.252352719641    12.000000000000
         C           -1.175454802455     0.514512724087    -0.061086080359    12.000000000000
         C            2.731462197545    -0.160041275913    -0.059586080359    12.000000000000
         C           -2.474319802455    -0.313609275913     0.077048919641    12.000000000000
         H            0.044462197545    -0.911898275913     0.915699919641     1.007825032230
         H            0.236755197545    -0.901157275913    -0.817133080359     1.007825032230
         H            1.438696197545     1.153174724087     1.097466919641     1.007825032230
         H            1.336453197545     1.395625724087    -0.634877080359     1.007825032230

  Basis Set: AUG-CC-PVTZ
    Blend: AUG-CC-PVTZ
  Basis Set: (AUG-CC-PVTZ AUX)
    Blend: AUG-CC-PVTZ-JKFIT
	 Reference Energy          =    -566.1716334851547572 [Eh]
	 Singles Energy            =      -0.0000000000000000 [Eh]
	 Same-Spin Energy          =      -0.5593878825660890 [Eh]
	 Opposite-Spin Energy      =      -1.6375515395664282 [Eh]
	 Correlation Energy        =      -2.1969394221325169 [Eh]
	 Total Energy              =    -568.3685729072873301 [Eh]

	 ================> DF-SCS-MP2 Energies <==================
	-----------------------------------------------------------
	 SCS Same-Spin Scale       =       0.3333333333333333 [-]
	 SCS Opposite-Spin Scale   =       1.2000000000000000 [-]
	 SCS Same-Spin Energy      =      -0.1864626275220296 [Eh]
	 SCS Opposite-Spin Energy  =      -1.9650618474797137 [Eh]
	 SCS Correlation Energy    =      -2.1515244750017435 [Eh]
	 SCS Total Energy          =    -568.3231579601565500 [Eh]
	-----------------------------------------------------------

  Dipole Moment: [D]
     X:    -1.4144      Y:     1.8187      Z:     0.4755     Total:     2.3525

*** Psi4 exiting successfully. Buy a developer a beer!
