                               Psi4 1.3.2 release

  ==> Input File <==

--------------------------------------------------------------------------
#psi4
#
memory 32 gb

molecule  {
-2 1
  O       -1.2362950     1.7303800    -0.2239510
  O        2.6794370    -1.1261430    -0.8901160
  O        3.7000480     0.2611620     0.6076450
  O       -3.2904550    -0.3020480    -0.9006360
  O       -2.5973840    -0.9175860     1.2002500
  C        0.1162890    -0.2520540     0.0602520
  C        1.3712430     0.6068110     0.1462360
  C       -1.1988410     0.5019860    -0.0558080
  C        2.7080760    -0.1725680    -0.0543080
  C       -2.4977060    -0.3261360     0.0823270
  H        0.0210760    -0.9244250     0.9209780
  H        0.2133690    -0.9136840    -0.8118550
  H        1.4153100     1.1406480     1.1027450
  H        1.3130670     1.3830990    -0.6295990
units angstrom
no_reorient  #important for SAPT in psi4, default
symmetry c1  #important for SAPT in psi4, default
}

set PROPERTIES_ORIGIN ["COM"]
properties('MP2/aug-cc-pvtz', properties = ['dipole'])
--------------------------------------------------------------------------

    Molecular point group: c1
  Charge       = -2
  Multiplicity = 1
  Basis Set: AUG-CC-PVTZ
    Blend: AUG-CC-PVTZ
  Basis Set: (AUG-CC-PVTZ AUX)
    Blend: AUG-CC-PVTZ-JKFIT

    Orbital Energies [Eh]
    ---------------------

    Doubly Occupied:

       1A    -20.288607     2A    -20.231575     3A    -20.230554
       4A    -20.210090     5A    -20.209296     6A    -11.072301
       7A    -11.070027     8A    -11.053063     9A    -10.970282
      10A    -10.958400    11A     -1.119308    12A     -1.086329
      13A     -1.075575    14A     -0.999946    15A     -0.977253
      16A     -0.789575    17A     -0.661462    18A     -0.557101
      19A     -0.440507    20A     -0.421658    21A     -0.381998
      22A     -0.370296    23A     -0.364153    24A     -0.331450
      25A     -0.325138    26A     -0.305923    27A     -0.285000
      28A     -0.274229    29A     -0.248834    30A     -0.229751
      31A     -0.215250    32A     -0.207183    33A     -0.147055
      34A     -0.128654    35A     -0.126345    36A     -0.117119
      37A     -0.110768    38A     -0.099518

  @DF-RHF Final Energy:  -566.19176578031897

   => Energetics <=

    Nuclear Repulsion Energy =            479.3844748158402354
    One-Electron Energy =               -1753.7693404785070470
    Two-Electron Energy =                 708.1930998823479513
    Total Energy =                       -566.1917657803189741
  Basis Set: (AUG-CC-PVTZ AUX)
    Blend: AUG-CC-PVTZ-RI
    Molecular point group: c1

    Geometry (in Angstrom), charge = -2, multiplicity = 1:

       Center              X                  Y                   Z               Mass
    ------------   -----------------  -----------------  -----------------  -----------------
         O           -1.215907921799     1.735091526173    -0.219946558959    15.994914619570
         O            2.699824078201    -1.121431473827    -0.886111558959    15.994914619570
         O            3.720435078201     0.265873526173     0.611649441041    15.994914619570
         O           -3.270067921799    -0.297336473827    -0.896631558959    15.994914619570
         O           -2.576996921799    -0.912874473827     1.204254441041    15.994914619570
         C            0.136676078201    -0.247342473827     0.064256441041    12.000000000000
         C            1.391630078201     0.611522526173     0.150240441041    12.000000000000
         C           -1.178453921799     0.506697526173    -0.051803558959    12.000000000000
         C            2.728463078201    -0.167856473827    -0.050303558959    12.000000000000
         C           -2.477318921799    -0.321424473827     0.086331441041    12.000000000000
         H            0.041463078201    -0.919713473827     0.924982441041     1.007825032230
         H            0.233756078201    -0.908972473827    -0.807850558959     1.007825032230
         H            1.435697078201     1.145359526173     1.106749441041     1.007825032230
         H            1.333454078201     1.387810526173    -0.625594558959     1.007825032230

  Basis Set: AUG-CC-PVTZ
    Blend: AUG-CC-PVTZ
  Basis Set: (AUG-CC-PVTZ AUX)
    Blend: AUG-CC-PVTZ-JKFIT
	 Reference Energy          =    -566.1917657803189741 [Eh]
	 Singles Energy            =      -0.0000000000000000 [Eh]
	 Same-Spin Energy          =      -0.5582580438940175 [Eh]
	 Opposite-Spin Energy      =      -1.6357948229464911 [Eh]
	 Correlation Energy        =      -2.1940528668405088 [Eh]
	 Total Energy              =    -568.3858186471594536 [Eh]

	 ================> DF-SCS-MP2 Energies <==================
	-----------------------------------------------------------
	 SCS Same-Spin Scale       =       0.3333333333333333 [-]
	 SCS Opposite-Spin Scale   =       1.2000000000000000 [-]
	 SCS Same-Spin Energy      =      -0.1860860146313391 [Eh]
	 SCS Opposite-Spin Energy  =      -1.9629537875357892 [Eh]
	 SCS Correlation Energy    =      -2.1490398021671284 [Eh]
	 SCS Total Energy          =    -568.3408055824861549 [Eh]
	-----------------------------------------------------------

  Dipole Moment: [D]
     X:    -1.2919      Y:     1.9975      Z:     0.2555     Total:     2.3926

*** Psi4 exiting successfully. Buy a developer a beer!
