                               Psi4 1.3.2 release

  ==> Input File <==

--------------------------------------------------------------------------
#psi4
#
memory 32 gb

molecule  {
-2 1
  O       -1.2362950     1.7303800    -0.2239510
  O        2.6794370    -1.1261430    -0.8901160
  O        3.7000480     0.2611620     0.6076450
  O       -3.2904550    -0.3020480    -0.9006360
  O       -2.5973840    -0.9175860     1.2002500
  C        0.1162890    -0.2520540     0.0602520
  C        1.3232552     0.4817627     0.2947624
  C       -1.1988410     0.5019860    -0.0558080
  C        2.7080760    -0.1725680    -0.0543080
  C       -2.4977060    -0.3261360     0.0823270
  H        0.0210760    -0.9244250     0.9209780
  H        0.2133690    -0.9136840    -0.8118550
  H        1.4153100     1.1406480     1.1027450
  H        1.3130670     1.3830990    -0.6295990
units angstrom
no_reorient  #important for SAPT in psi4, default
symmetry c1  #important for SAPT in psi4, default
}

set PROPERTIES_ORIGIN ["COM"]
properties('MP2/aug-cc-pvtz', properties = ['dipole'])
--------------------------------------------------------------------------

    Molecular point group: c1
  Charge       = -2
  Multiplicity = 1
  Basis Set: AUG-CC-PVTZ
    Blend: AUG-CC-PVTZ
  Basis Set: (AUG-CC-PVTZ AUX)
    Blend: AUG-CC-PVTZ-JKFIT

    Orbital Energies [Eh]
    ---------------------

    Doubly Occupied:

       1A    -20.290688     2A    -20.232631     3A    -20.231691
       4A    -20.210623     5A    -20.209708     6A    -11.073963
       7A    -11.072423     8A    -11.057822     9A    -10.969059
      10A    -10.967820    11A     -1.120822    12A     -1.087546
      13A     -1.076223    14A     -1.001031    15A     -0.977990
      16A     -0.808018    17A     -0.658838    18A     -0.558430
      19A     -0.443343    20A     -0.426620    21A     -0.384568
      22A     -0.378199    23A     -0.364004    24A     -0.333437
      25A     -0.330467    26A     -0.305294    27A     -0.282304
      28A     -0.273196    29A     -0.268591    30A     -0.231992
      31A     -0.211787    32A     -0.170954    33A     -0.146735
      34A     -0.129989    35A     -0.127208    36A     -0.118222
      37A     -0.111958    38A     -0.099560

  @DF-RHF Final Energy:  -566.15816352797151

   => Energetics <=

    Nuclear Repulsion Energy =            480.1686445941128909
    One-Electron Energy =               -1755.1661078076876947
    Two-Electron Energy =                 708.8392996856032369
    Total Energy =                       -566.1581635279715101
  Basis Set: (AUG-CC-PVTZ AUX)
    Blend: AUG-CC-PVTZ-RI
    Molecular point group: c1

    Geometry (in Angstrom), charge = -2, multiplicity = 1:

       Center              X                  Y                   Z               Mass
    ------------   -----------------  -----------------  -----------------  -----------------
         O           -1.211909101563     1.745511792836    -0.232323254159    15.994914619570
         O            2.703822898437    -1.111011207164    -0.898488254159    15.994914619570
         O            3.724433898437     0.276293792836     0.599272745841    15.994914619570
         O           -3.266069101563    -0.286916207164    -0.909008254159    15.994914619570
         O           -2.572998101563    -0.902454207164     1.191877745841    15.994914619570
         C            0.140674898437    -0.236922207164     0.051879745841    12.000000000000
         C            1.347641098437     0.496894492836     0.286390145841    12.000000000000
         C           -1.174455101563     0.517117792836    -0.064180254159    12.000000000000
         C            2.732461898437    -0.157436207164    -0.062680254159    12.000000000000
         C           -2.473320101563    -0.311004207164     0.073954745841    12.000000000000
         H            0.045461898437    -0.909293207164     0.912605745841     1.007825032230
         H            0.237754898437    -0.898552207164    -0.820227254159     1.007825032230
         H            1.439695898437     1.155779792836     1.094372745841     1.007825032230
         H            1.337452898437     1.398230792836    -0.637971254159     1.007825032230

  Basis Set: AUG-CC-PVTZ
    Blend: AUG-CC-PVTZ
  Basis Set: (AUG-CC-PVTZ AUX)
    Blend: AUG-CC-PVTZ-JKFIT
	 Reference Energy          =    -566.1581635279715101 [Eh]
	 Singles Energy            =      -0.0000000000000000 [Eh]
	 Same-Spin Energy          =      -0.5599594033310564 [Eh]
	 Opposite-Spin Energy      =      -1.6386080338053683 [Eh]
	 Correlation Energy        =      -2.1985674371364246 [Eh]
	 Total Energy              =    -568.3567309651078858 [Eh]

	 ================> DF-SCS-MP2 Energies <==================
	-----------------------------------------------------------
	 SCS Same-Spin Scale       =       0.3333333333333333 [-]
	 SCS Opposite-Spin Scale   =       1.2000000000000000 [-]
	 SCS Same-Spin Energy      =      -0.1866531344436855 [Eh]
	 SCS Opposite-Spin Energy  =      -1.9663296405664419 [Eh]
	 SCS Correlation Energy    =      -2.1529827750101274 [Eh]
	 SCS Total Energy          =    -568.3111463029816832 [Eh]
	-----------------------------------------------------------

  Dipole Moment: [D]
     X:    -1.4549      Y:     1.7429      Z:     0.5507     Total:     2.3362

*** Psi4 exiting successfully. Buy a developer a beer!
