                               Psi4 1.3.2 release

  ==> Input File <==

--------------------------------------------------------------------------
#psi4
#
memory 32 gb

molecule  {
-2 1
  O       -1.2362950     1.7303800    -0.2239510
  O        2.6794370    -1.1261430    -0.8901160
  O        3.7000480     0.2611620     0.6076450
  O       -3.2904550    -0.3020480    -0.9006360
  O       -2.5973840    -0.9175860     1.2002500
  C        0.1162890    -0.2520540     0.0602520
  C        1.3712430     0.6068110     0.1462360
  C       -1.3376720     0.7413333     0.0601179
  C        2.7080760    -0.1725680    -0.0543080
  C       -2.4977060    -0.3261360     0.0823270
  H        0.0210760    -0.9244250     0.9209780
  H        0.2133690    -0.9136840    -0.8118550
  H        1.4153100     1.1406480     1.1027450
  H        1.3130670     1.3830990    -0.6295990
units angstrom
no_reorient  #important for SAPT in psi4, default
symmetry c1  #important for SAPT in psi4, default
}

set PROPERTIES_ORIGIN ["COM"]
properties('MP2/aug-cc-pvtz', properties = ['dipole'])
--------------------------------------------------------------------------

    Molecular point group: c1
  Charge       = -2
  Multiplicity = 1
  Basis Set: AUG-CC-PVTZ
    Blend: AUG-CC-PVTZ
  Basis Set: (AUG-CC-PVTZ AUX)
    Blend: AUG-CC-PVTZ-JKFIT

    Orbital Energies [Eh]
    ---------------------

    Doubly Occupied:

       1A    -20.312909     2A    -20.233257     3A    -20.227896
       4A    -20.201761     5A    -20.199837     6A    -11.071102
       7A    -11.055676     8A    -11.043182     9A    -10.945915
      10A    -10.943765    11A     -1.278172    12A     -1.093325
      13A     -1.066492    14A     -0.998776    15A     -0.968253
      16A     -0.751761    17A     -0.618489    18A     -0.548938
      19A     -0.478677    20A     -0.428468    21A     -0.406021
      22A     -0.387835    23A     -0.383109    24A     -0.335123
      25A     -0.323889    26A     -0.317808    27A     -0.299671
      28A     -0.279408    29A     -0.257957    30A     -0.219233
      31A     -0.201417    32A     -0.199420    33A     -0.148002
      34A     -0.126391    35A     -0.118190    36A     -0.107723
      37A     -0.102352    38A     -0.049933

  @DF-RHF Final Energy:  -566.09971260166913

   => Energetics <=

    Nuclear Repulsion Energy =            479.9612247907561482
    One-Electron Energy =               -1754.6616122747918780
    Two-Electron Energy =                 708.6006748823665475
    Total Energy =                       -566.0997126016691254
  Basis Set: (AUG-CC-PVTZ AUX)
    Blend: AUG-CC-PVTZ-RI
    Molecular point group: c1

    Geometry (in Angstrom), charge = -2, multiplicity = 1:

       Center              X                  Y                   Z               Mass
    ------------   -----------------  -----------------  -----------------  -----------------
         O           -1.204339143646     1.715146731314    -0.229606656626    15.994914619570
         O            2.711392856354    -1.141376268686    -0.895771656626    15.994914619570
         O            3.732003856354     0.245928731314     0.601989343374    15.994914619570
         O           -3.258499143646    -0.317281268686    -0.906291656626    15.994914619570
         O           -2.565428143646    -0.932819268686     1.194594343374    15.994914619570
         C            0.148244856354    -0.267287268686     0.054596343374    12.000000000000
         C            1.403198856354     0.591577731314     0.140580343374    12.000000000000
         C           -1.305716143646     0.726100031314     0.054462243374    12.000000000000
         C            2.740031856354    -0.187801268686    -0.059963656626    12.000000000000
         C           -2.465750143646    -0.341369268686     0.076671343374    12.000000000000
         H            0.053031856354    -0.939658268686     0.915322343374     1.007825032230
         H            0.245324856354    -0.928917268686    -0.817510656626     1.007825032230
         H            1.447265856354     1.125414731314     1.097089343374     1.007825032230
         H            1.345022856354     1.367865731314    -0.635254656626     1.007825032230

  Basis Set: AUG-CC-PVTZ
    Blend: AUG-CC-PVTZ
  Basis Set: (AUG-CC-PVTZ AUX)
    Blend: AUG-CC-PVTZ-JKFIT
	 Reference Energy          =    -566.0997126016691254 [Eh]
	 Singles Energy            =      -0.0000000000000000 [Eh]
	 Same-Spin Energy          =      -0.5552113972939654 [Eh]
	 Opposite-Spin Energy      =      -1.6292898861814593 [Eh]
	 Correlation Energy        =      -2.1845012834754245 [Eh]
	 Total Energy              =    -568.2842138851445952 [Eh]

	 ================> DF-SCS-MP2 Energies <==================
	-----------------------------------------------------------
	 SCS Same-Spin Scale       =       0.3333333333333333 [-]
	 SCS Opposite-Spin Scale   =       1.2000000000000000 [-]
	 SCS Same-Spin Energy      =      -0.1850704657646551 [Eh]
	 SCS Opposite-Spin Energy  =      -1.9551478634177510 [Eh]
	 SCS Correlation Energy    =      -2.1402183291824062 [Eh]
	 SCS Total Energy          =    -568.2399309308515285 [Eh]
	-----------------------------------------------------------

  Dipole Moment: [D]
     X:    -2.6402      Y:     3.6505      Z:     0.3342     Total:     4.5176

*** Psi4 exiting successfully. Buy a developer a beer!
