                               Psi4 1.3.2 release

  ==> Input File <==

--------------------------------------------------------------------------
#psi4
#
memory 32 gb

molecule  {
-2 1
  O       -1.2362950     1.7303800    -0.2239510
  O        2.6794370    -1.1261430    -0.8901160
  O        3.7000480     0.2611620     0.6076450
  O       -3.2904550    -0.3020480    -0.9006360
  O       -2.5973840    -0.9175860     1.2002500
  C        0.1162890    -0.2520540     0.0602520
  C        1.3712430     0.6068110     0.1462360
  C       -1.1988410     0.5019860    -0.0558080
  C        2.7080760    -0.1725680    -0.0543080
  C       -2.4981314    -0.3406112    -0.0166189
  H        0.0210760    -0.9244250     0.9209780
  H        0.2133690    -0.9136840    -0.8118550
  H        1.4153100     1.1406480     1.1027450
  H        1.3130670     1.3830990    -0.6295990
units angstrom
no_reorient  #important for SAPT in psi4, default
symmetry c1  #important for SAPT in psi4, default
}

set PROPERTIES_ORIGIN ["COM"]
properties('MP2/aug-cc-pvtz', properties = ['dipole'])
--------------------------------------------------------------------------

    Molecular point group: c1
  Charge       = -2
  Multiplicity = 1
  Basis Set: AUG-CC-PVTZ
    Blend: AUG-CC-PVTZ
  Basis Set: (AUG-CC-PVTZ AUX)
    Blend: AUG-CC-PVTZ-JKFIT

    Orbital Energies [Eh]
    ---------------------

    Doubly Occupied:

       1A    -20.289074     2A    -20.249704     3A    -20.213915
       4A    -20.209299     5A    -20.208643     6A    -11.071557
       7A    -11.070935     8A    -11.052274     9A    -10.968565
      10A    -10.957128    11A     -1.134120    12A     -1.103145
      13A     -1.074840    14A     -0.976531    15A     -0.974190
      16A     -0.787967    17A     -0.660213    18A     -0.556771
      19A     -0.440634    20A     -0.423052    21A     -0.389125
      22A     -0.369064    23A     -0.366475    24A     -0.330953
      25A     -0.325046    26A     -0.306040    27A     -0.288135
      28A     -0.277213    29A     -0.250497    30A     -0.229516
      31A     -0.213208    32A     -0.208303    33A     -0.141077
      34A     -0.125229    35A     -0.122281    36A     -0.115586
      37A     -0.110072    38A     -0.097480

  @DF-RHF Final Energy:  -566.17974647886024

   => Energetics <=

    Nuclear Repulsion Energy =            479.4119075314166025
    One-Electron Energy =               -1753.8075971734631366
    Two-Electron Energy =                 708.2159431631863526
    Total Energy =                       -566.1797464788602383
  Basis Set: (AUG-CC-PVTZ AUX)
    Blend: AUG-CC-PVTZ-RI
    Molecular point group: c1

    Geometry (in Angstrom), charge = -2, multiplicity = 1:

       Center              X                  Y                   Z               Mass
    ------------   -----------------  -----------------  -----------------  -----------------
         O           -1.215872473245     1.736297743643    -0.211701403581    15.994914619570
         O            2.699859526755    -1.120225256357    -0.877866403581    15.994914619570
         O            3.720470526755     0.267079743643     0.619894596419    15.994914619570
         O           -3.270032473245    -0.296130256357    -0.888386403581    15.994914619570
         O           -2.576961473245    -0.911668256357     1.212499596419    15.994914619570
         C            0.136711526755    -0.246136256357     0.072501596419    12.000000000000
         C            1.391665526755     0.612728743643     0.158485596419    12.000000000000
         C           -1.178418473245     0.507903743643    -0.043558403581    12.000000000000
         C            2.728498526755    -0.166650256357    -0.042058403581    12.000000000000
         C           -2.477708873245    -0.334693456357    -0.004369303581    12.000000000000
         H            0.041498526755    -0.918507256357     0.933227596419     1.007825032230
         H            0.233791526755    -0.907766256357    -0.799605403581     1.007825032230
         H            1.435732526755     1.146565743643     1.114994596419     1.007825032230
         H            1.333489526755     1.389016743643    -0.617349403581     1.007825032230

  Basis Set: AUG-CC-PVTZ
    Blend: AUG-CC-PVTZ
  Basis Set: (AUG-CC-PVTZ AUX)
    Blend: AUG-CC-PVTZ-JKFIT
	 Reference Energy          =    -566.1797464788602383 [Eh]
	 Singles Energy            =      -0.0000000000000000 [Eh]
	 Same-Spin Energy          =      -0.5584025867501858 [Eh]
	 Opposite-Spin Energy      =      -1.6362113238087184 [Eh]
	 Correlation Energy        =      -2.1946139105589042 [Eh]
	 Total Energy              =    -568.3743603894191665 [Eh]

	 ================> DF-SCS-MP2 Energies <==================
	-----------------------------------------------------------
	 SCS Same-Spin Scale       =       0.3333333333333333 [-]
	 SCS Opposite-Spin Scale   =       1.2000000000000000 [-]
	 SCS Same-Spin Energy      =      -0.1861341955833953 [Eh]
	 SCS Opposite-Spin Energy  =      -1.9634535885704620 [Eh]
	 SCS Correlation Energy    =      -2.1495877841538573 [Eh]
	 SCS Total Energy          =    -568.3293342630140614 [Eh]
	-----------------------------------------------------------

  Dipole Moment: [D]
     X:    -1.5801      Y:     2.1618      Z:    -0.6285     Total:     2.7504

*** Psi4 exiting successfully. Buy a developer a beer!
