                               Psi4 1.3.2 release

  ==> Input File <==

--------------------------------------------------------------------------
#psi4
#
memory 32 gb

molecule  {
-2 1
  O       -1.2362950     1.7303800    -0.2239510
  O        2.6794370    -1.1261430    -0.8901160
  O        3.7000480     0.2611620     0.6076450
  O       -3.2904550    -0.3020480    -0.9006360
  O       -2.5973840    -0.9175860     1.2002500
  C        0.1162890    -0.2520540     0.0602520
  C        1.3472491     0.5442868     0.2204992
  C       -1.1988410     0.5019860    -0.0558080
  C        2.7080760    -0.1725680    -0.0543080
  C       -2.4977060    -0.3261360     0.0823270
  H        0.0210760    -0.9244250     0.9209780
  H        0.2133690    -0.9136840    -0.8118550
  H        1.4153100     1.1406480     1.1027450
  H        1.3130670     1.3830990    -0.6295990
units angstrom
no_reorient  #important for SAPT in psi4, default
symmetry c1  #important for SAPT in psi4, default
}

set PROPERTIES_ORIGIN ["COM"]
properties('MP2/aug-cc-pvtz', properties = ['dipole'])
--------------------------------------------------------------------------

    Molecular point group: c1
  Charge       = -2
  Multiplicity = 1
  Basis Set: AUG-CC-PVTZ
    Blend: AUG-CC-PVTZ
  Basis Set: (AUG-CC-PVTZ AUX)
    Blend: AUG-CC-PVTZ-JKFIT

    Orbital Energies [Eh]
    ---------------------

    Doubly Occupied:

       1A    -20.289585     2A    -20.232062     3A    -20.231100
       4A    -20.210149     5A    -20.209280     6A    -11.073095
       7A    -11.071176     8A    -11.054639     9A    -10.969140
      10A    -10.962081    11A     -1.120041    12A     -1.086910
      13A     -1.075733    14A     -1.000456    15A     -0.977417
      16A     -0.798251    17A     -0.659771    18A     -0.557595
      19A     -0.441071    20A     -0.423475    21A     -0.383365
      22A     -0.374234    23A     -0.362692    24A     -0.332525
      25A     -0.327836    26A     -0.305295    27A     -0.282799
      28A     -0.272689    29A     -0.260130    30A     -0.230630
      31A     -0.210930    32A     -0.194402    33A     -0.147194
      34A     -0.129245    35A     -0.126720    36A     -0.117875
      37A     -0.111201    38A     -0.099920

  @DF-RHF Final Energy:  -566.18212649507154

   => Energetics <=

    Nuclear Repulsion Energy =            479.8361895433417317
    One-Electron Energy =               -1754.6112135240161933
    Two-Electron Energy =                 708.5928974856028617
    Total Energy =                       -566.1821264950715431
  Basis Set: (AUG-CC-PVTZ AUX)
    Blend: AUG-CC-PVTZ-RI
    Molecular point group: c1

    Geometry (in Angstrom), charge = -2, multiplicity = 1:

       Center              X                  Y                   Z               Mass
    ------------   -----------------  -----------------  -----------------  -----------------
         O           -1.213908511681     1.740301663671    -0.226134906559    15.994914619570
         O            2.701823488319    -1.116221336329    -0.892299906559    15.994914619570
         O            3.722434488319     0.271083663671     0.605461093441    15.994914619570
         O           -3.268068511681    -0.292126336329    -0.902819906559    15.994914619570
         O           -2.574997511681    -0.907664336329     1.198066093441    15.994914619570
         C            0.138675488319    -0.242132336329     0.058068093441    12.000000000000
         C            1.369635588319     0.554208463671     0.218315293441    12.000000000000
         C           -1.176454511681     0.511907663671    -0.057991906559    12.000000000000
         C            2.730462488319    -0.162646336329    -0.056491906559    12.000000000000
         C           -2.475319511681    -0.316214336329     0.080143093441    12.000000000000
         H            0.043462488319    -0.914503336329     0.918794093441     1.007825032230
         H            0.235755488319    -0.903762336329    -0.814038906559     1.007825032230
         H            1.437696488319     1.150569663671     1.100561093441     1.007825032230
         H            1.335453488319     1.393020663671    -0.631782906559     1.007825032230

  Basis Set: AUG-CC-PVTZ
    Blend: AUG-CC-PVTZ
  Basis Set: (AUG-CC-PVTZ AUX)
    Blend: AUG-CC-PVTZ-JKFIT
	 Reference Energy          =    -566.1821264950715431 [Eh]
	 Singles Energy            =      -0.0000000000000000 [Eh]
	 Same-Spin Energy          =      -0.5589117429336218 [Eh]
	 Opposite-Spin Energy      =      -1.6367255300810242 [Eh]
	 Correlation Energy        =      -2.1956372730146461 [Eh]
	 Total Energy              =    -568.3777637680861972 [Eh]

	 ================> DF-SCS-MP2 Energies <==================
	-----------------------------------------------------------
	 SCS Same-Spin Scale       =       0.3333333333333333 [-]
	 SCS Opposite-Spin Scale   =       1.2000000000000000 [-]
	 SCS Same-Spin Energy      =      -0.1863039143112072 [Eh]
	 SCS Opposite-Spin Energy  =      -1.9640706360972289 [Eh]
	 SCS Correlation Energy    =      -2.1503745504084359 [Eh]
	 SCS Total Energy          =    -568.3325010454799440 [Eh]
	-----------------------------------------------------------

  Dipole Moment: [D]
     X:    -1.3741      Y:     1.8867      Z:     0.4010     Total:     2.3682

*** Psi4 exiting successfully. Buy a developer a beer!
