                               Psi4 1.3.2 release

  ==> Input File <==

--------------------------------------------------------------------------
#psi4
#
memory 32 gb

molecule  {
-2 1
  O       -1.2362950     1.7303800    -0.2239510
  O        2.6794370    -1.1261430    -0.8901160
  O        3.7000480     0.2611620     0.6076450
  O       -3.2904550    -0.3020480    -0.9006360
  O       -2.5973840    -0.9175860     1.2002500
  C        0.1162890    -0.2520540     0.0602520
  C        1.3712430     0.6068110     0.1462360
  C       -1.1988410     0.5019860    -0.0558080
  C        2.7080760    -0.1725680    -0.0543080
  C       -2.4985567    -0.3550863    -0.1155648
  H        0.0210760    -0.9244250     0.9209780
  H        0.2133690    -0.9136840    -0.8118550
  H        1.4153100     1.1406480     1.1027450
  H        1.3130670     1.3830990    -0.6295990
units angstrom
no_reorient  #important for SAPT in psi4, default
symmetry c1  #important for SAPT in psi4, default
}

set PROPERTIES_ORIGIN ["COM"]
properties('MP2/aug-cc-pvtz', properties = ['dipole'])
--------------------------------------------------------------------------

    Molecular point group: c1
  Charge       = -2
  Multiplicity = 1
  Basis Set: AUG-CC-PVTZ
    Blend: AUG-CC-PVTZ
  Basis Set: (AUG-CC-PVTZ AUX)
    Blend: AUG-CC-PVTZ-JKFIT

    Orbital Energies [Eh]
    ---------------------

    Doubly Occupied:

       1A    -20.288746     2A    -20.268347     3A    -20.208476
       4A    -20.207941     5A    -20.197593     6A    -11.072662
       7A    -11.068448     8A    -11.051444     9A    -10.966824
      10A    -10.955821    11A     -1.185768    12A     -1.109342
      13A     -1.074061    14A     -0.975762    15A     -0.931904
      16A     -0.786098    17A     -0.658300    18A     -0.555724
      19A     -0.443814    20A     -0.429549    21A     -0.402715
      22A     -0.369222    23A     -0.367138    24A     -0.338645
      25A     -0.328869    26A     -0.310249    27A     -0.299463
      28A     -0.279923    29A     -0.252483    30A     -0.228409
      31A     -0.211107    32A     -0.206977    33A     -0.128054
      34A     -0.120929    35A     -0.112306    36A     -0.109540
      37A     -0.108133    38A     -0.089221

  @DF-RHF Final Energy:  -566.14354014371361

   => Energetics <=

    Nuclear Repulsion Energy =            479.5537069539723234
    One-Electron Energy =               -1753.9944811329476124
    Two-Electron Energy =                 708.2972340352616811
    Total Energy =                       -566.1435401437136079
  Basis Set: (AUG-CC-PVTZ AUX)
    Blend: AUG-CC-PVTZ-RI
    Molecular point group: c1

    Geometry (in Angstrom), charge = -2, multiplicity = 1:

       Center              X                  Y                   Z               Mass
    ------------   -----------------  -----------------  -----------------  -----------------
         O           -1.215837033023     1.737503952779    -0.203456248204    15.994914619570
         O            2.699894966977    -1.119019047221    -0.869621248204    15.994914619570
         O            3.720505966977     0.268285952779     0.628139751796    15.994914619570
         O           -3.269997033023    -0.294924047221    -0.880141248204    15.994914619570
         O           -2.576926033023    -0.910462047221     1.220744751796    15.994914619570
         C            0.136746966977    -0.244930047221     0.080746751796    12.000000000000
         C            1.391700966977     0.613934952779     0.166730751796    12.000000000000
         C           -1.178383033023     0.509109952779    -0.035313248204    12.000000000000
         C            2.728533966977    -0.165444047221    -0.033813248204    12.000000000000
         C           -2.478098733023    -0.347962347221    -0.095070048204    12.000000000000
         H            0.041533966977    -0.917301047221     0.941472751796     1.007825032230
         H            0.233826966977    -0.906560047221    -0.791360248204     1.007825032230
         H            1.435767966977     1.147771952779     1.123239751796     1.007825032230
         H            1.333524966977     1.390222952779    -0.609104248204     1.007825032230

  Basis Set: AUG-CC-PVTZ
    Blend: AUG-CC-PVTZ
  Basis Set: (AUG-CC-PVTZ AUX)
    Blend: AUG-CC-PVTZ-JKFIT
	 Reference Energy          =    -566.1435401437136079 [Eh]
	 Singles Energy            =      -0.0000000000000000 [Eh]
	 Same-Spin Energy          =      -0.5587297063198089 [Eh]
	 Opposite-Spin Energy      =      -1.6372216188799336 [Eh]
	 Correlation Energy        =      -2.1959513251997427 [Eh]
	 Total Energy              =    -568.3394914689133657 [Eh]

	 ================> DF-SCS-MP2 Energies <==================
	-----------------------------------------------------------
	 SCS Same-Spin Scale       =       0.3333333333333333 [-]
	 SCS Opposite-Spin Scale   =       1.2000000000000000 [-]
	 SCS Same-Spin Energy      =      -0.1862432354399363 [Eh]
	 SCS Opposite-Spin Energy  =      -1.9646659426559201 [Eh]
	 SCS Correlation Energy    =      -2.1509091780958562 [Eh]
	 SCS Total Energy          =    -568.2944493218094522 [Eh]
	-----------------------------------------------------------

  Dipole Moment: [D]
     X:    -1.8647      Y:     2.3292      Z:    -1.5296     Total:     3.3529

*** Psi4 exiting successfully. Buy a developer a beer!
