                               Psi4 1.3.2 release

  ==> Input File <==

--------------------------------------------------------------------------
#psi4
#
memory 32 gb

molecule  {
-2 1
  O       -1.2362950     1.7303800    -0.2239510
  O        2.6794370    -1.1261430    -0.8901160
  O        3.7000480     0.2611620     0.6076450
  O       -3.2904550    -0.3020480    -0.9006360
  O       -2.5973840    -0.9175860     1.2002500
  C        0.1162890    -0.2520540     0.0602520
  C        1.3592460     0.5755489     0.1833676
  C       -1.1988410     0.5019860    -0.0558080
  C        2.7080760    -0.1725680    -0.0543080
  C       -2.4977060    -0.3261360     0.0823270
  H        0.0210760    -0.9244250     0.9209780
  H        0.2133690    -0.9136840    -0.8118550
  H        1.4153100     1.1406480     1.1027450
  H        1.3130670     1.3830990    -0.6295990
units angstrom
no_reorient  #important for SAPT in psi4, default
symmetry c1  #important for SAPT in psi4, default
}

set PROPERTIES_ORIGIN ["COM"]
properties('MP2/aug-cc-pvtz', properties = ['dipole'])
--------------------------------------------------------------------------

    Molecular point group: c1
  Charge       = -2
  Multiplicity = 1
  Basis Set: AUG-CC-PVTZ
    Blend: AUG-CC-PVTZ
  Basis Set: (AUG-CC-PVTZ AUX)
    Blend: AUG-CC-PVTZ-JKFIT

    Orbital Energies [Eh]
    ---------------------

    Doubly Occupied:

       1A    -20.289084     2A    -20.231810     3A    -20.230822
       4A    -20.210064     5A    -20.209231     6A    -11.072689
       7A    -11.070590     8A    -11.053636     9A    -10.969605
      10A    -10.959965    11A     -1.119671    12A     -1.086615
      13A     -1.075610    14A     -1.000194    15A     -0.977281
      16A     -0.793765    17A     -0.660491    18A     -0.557292
      19A     -0.440503    20A     -0.422322    21A     -0.382707
      22A     -0.372286    23A     -0.363102    24A     -0.332013
      25A     -0.326395    26A     -0.305507    27A     -0.283618
      28A     -0.273429    29A     -0.254469    30A     -0.230012
      31A     -0.211264    32A     -0.203930    33A     -0.147152
      34A     -0.128932    35A     -0.126517    36A     -0.117530
      37A     -0.110943    38A     -0.099797

  @DF-RHF Final Energy:  -566.18905630679853

   => Energetics <=

    Nuclear Repulsion Energy =            479.6238662182228154
    One-Electron Energy =               -1754.2241527398534799
    Two-Electron Energy =                 708.4112302148320168
    Total Energy =                       -566.1890563067985340
  Basis Set: (AUG-CC-PVTZ AUX)
    Blend: AUG-CC-PVTZ-RI
    Molecular point group: c1

    Geometry (in Angstrom), charge = -2, multiplicity = 1:

       Center              X                  Y                   Z               Mass
    ------------   -----------------  -----------------  -----------------  -----------------
         O           -1.214908212573     1.737696594922    -0.223040732759    15.994914619570
         O            2.700823787427    -1.118826405078    -0.889205732759    15.994914619570
         O            3.721434787427     0.268478594922     0.608555267241    15.994914619570
         O           -3.269068212573    -0.294731405078    -0.899725732759    15.994914619570
         O           -2.575997212573    -0.910269405078     1.201160267241    15.994914619570
         C            0.137675787427    -0.244737405078     0.061162267241    12.000000000000
         C            1.380632787427     0.582865494922     0.184277867241    12.000000000000
         C           -1.177454212573     0.509302594922    -0.054897732759    12.000000000000
         C            2.729462787427    -0.165251405078    -0.053397732759    12.000000000000
         C           -2.476319212573    -0.318819405078     0.083237267241    12.000000000000
         H            0.042462787427    -0.917108405078     0.921888267241     1.007825032230
         H            0.234755787427    -0.906367405078    -0.810944732759     1.007825032230
         H            1.436696787427     1.147964594922     1.103655267241     1.007825032230
         H            1.334453787427     1.390415594922    -0.628688732759     1.007825032230

  Basis Set: AUG-CC-PVTZ
    Blend: AUG-CC-PVTZ
  Basis Set: (AUG-CC-PVTZ AUX)
    Blend: AUG-CC-PVTZ-JKFIT
	 Reference Energy          =    -566.1890563067985340 [Eh]
	 Singles Energy            =      -0.0000000000000000 [Eh]
	 Same-Spin Energy          =      -0.5585340812503845 [Eh]
	 Opposite-Spin Energy      =      -1.6361354954663385 [Eh]
	 Correlation Energy        =      -2.1946695767167230 [Eh]
	 Total Energy              =    -568.3837258835152397 [Eh]

	 ================> DF-SCS-MP2 Energies <==================
	-----------------------------------------------------------
	 SCS Same-Spin Scale       =       0.3333333333333333 [-]
	 SCS Opposite-Spin Scale   =       1.2000000000000000 [-]
	 SCS Same-Spin Energy      =      -0.1861780270834615 [Eh]
	 SCS Opposite-Spin Energy  =      -1.9633625945596060 [Eh]
	 SCS Correlation Energy    =      -2.1495406216430677 [Eh]
	 SCS Total Energy          =    -568.3385969284415751 [Eh]
	-----------------------------------------------------------

  Dipole Moment: [D]
     X:    -1.3334      Y:     1.9464      Z:     0.3275     Total:     2.3820

*** Psi4 exiting successfully. Buy a developer a beer!
