                               Psi4 1.3.2 release

  ==> Input File <==

--------------------------------------------------------------------------
#psi4
#
memory 32 gb

molecule  {
-2 1
  O       -1.2362950     1.7303800    -0.2239510
  O        2.6794370    -1.1261430    -0.8901160
  O        3.7000480     0.2611620     0.6076450
  O       -3.2904550    -0.3020480    -0.9006360
  O       -2.5973840    -0.9175860     1.2002500
  C        0.1162890    -0.2520540     0.0602520
  C        1.3712430     0.6068110     0.1462360
  C       -1.1988410     0.5019860    -0.0558080
  C        2.7080760    -0.1725680    -0.0543080
  C       -2.4979187    -0.3333736     0.0328541
  H        0.0210760    -0.9244250     0.9209780
  H        0.2133690    -0.9136840    -0.8118550
  H        1.4153100     1.1406480     1.1027450
  H        1.3130670     1.3830990    -0.6295990
units angstrom
no_reorient  #important for SAPT in psi4, default
symmetry c1  #important for SAPT in psi4, default
}

set PROPERTIES_ORIGIN ["COM"]
properties('MP2/aug-cc-pvtz', properties = ['dipole'])
--------------------------------------------------------------------------

    Molecular point group: c1
  Charge       = -2
  Multiplicity = 1
  Basis Set: AUG-CC-PVTZ
    Blend: AUG-CC-PVTZ
  Basis Set: (AUG-CC-PVTZ AUX)
    Blend: AUG-CC-PVTZ-JKFIT

    Orbital Energies [Eh]
    ---------------------

    Doubly Occupied:

       1A    -20.288958     2A    -20.240145     3A    -20.222614
       4A    -20.209703     5A    -20.208980     6A    -11.072201
       7A    -11.070497     8A    -11.052679     9A    -10.969439
      10A    -10.957777    11A     -1.122364    12A     -1.092629
      13A     -1.075217    14A     -0.992233    15A     -0.976900
      16A     -0.788813    17A     -0.660930    18A     -0.557038
      19A     -0.440448    20A     -0.421842    21A     -0.383609
      22A     -0.369676    23A     -0.365258    24A     -0.331023
      25A     -0.324975    26A     -0.305814    27A     -0.285839
      28A     -0.274627    29A     -0.249257    30A     -0.229751
      31A     -0.214234    32A     -0.207552    33A     -0.145669
      34A     -0.127142    35A     -0.125722    36A     -0.116672
      37A     -0.110434    38A     -0.099173

  @DF-RHF Final Energy:  -566.18867620619858

   => Energetics <=

    Nuclear Repulsion Energy =            479.3830381662097011
    One-Electron Energy =               -1753.7677621481163897
    Two-Electron Energy =                 708.1960477757081662
    Total Energy =                       -566.1886762061985792
  Basis Set: (AUG-CC-PVTZ AUX)
    Blend: AUG-CC-PVTZ-RI
    Molecular point group: c1

    Geometry (in Angstrom), charge = -2, multiplicity = 1:

       Center              X                  Y                   Z               Mass
    ------------   -----------------  -----------------  -----------------  -----------------
         O           -1.215890197522     1.735694634908    -0.215823985436    15.994914619570
         O            2.699841802478    -1.120828365092    -0.881988985436    15.994914619570
         O            3.720452802478     0.266476634908     0.615772014564    15.994914619570
         O           -3.270050197522    -0.296733365092    -0.892508985436    15.994914619570
         O           -2.576979197522    -0.912271365092     1.208377014564    15.994914619570
         C            0.136693802478    -0.246739365092     0.068379014564    12.000000000000
         C            1.391647802478     0.612125634908     0.154363014564    12.000000000000
         C           -1.178436197522     0.507300634908    -0.047680985436    12.000000000000
         C            2.728480802478    -0.167253365092    -0.046180985436    12.000000000000
         C           -2.477513897522    -0.328058965092     0.040981114564    12.000000000000
         H            0.041480802478    -0.919110365092     0.929105014564     1.007825032230
         H            0.233773802478    -0.908369365092    -0.803727985436     1.007825032230
         H            1.435714802478     1.145962634908     1.110872014564     1.007825032230
         H            1.333471802478     1.388413634908    -0.621471985436     1.007825032230

  Basis Set: AUG-CC-PVTZ
    Blend: AUG-CC-PVTZ
  Basis Set: (AUG-CC-PVTZ AUX)
    Blend: AUG-CC-PVTZ-JKFIT
	 Reference Energy          =    -566.1886762061985792 [Eh]
	 Singles Energy            =      -0.0000000000000000 [Eh]
	 Same-Spin Energy          =      -0.5583230270694746 [Eh]
	 Opposite-Spin Energy      =      -1.6359562002074342 [Eh]
	 Correlation Energy        =      -2.1942792272769087 [Eh]
	 Total Energy              =    -568.3829554334754448 [Eh]

	 ================> DF-SCS-MP2 Energies <==================
	-----------------------------------------------------------
	 SCS Same-Spin Scale       =       0.3333333333333333 [-]
	 SCS Opposite-Spin Scale   =       1.2000000000000000 [-]
	 SCS Same-Spin Energy      =      -0.1861076756898248 [Eh]
	 SCS Opposite-Spin Energy  =      -1.9631474402489208 [Eh]
	 SCS Correlation Energy    =      -2.1492551159387459 [Eh]
	 SCS Total Energy          =    -568.3379313221373650 [Eh]
	-----------------------------------------------------------

  Dipole Moment: [D]
     X:    -1.4365      Y:     2.0797      Z:    -0.1855     Total:     2.5344

*** Psi4 exiting successfully. Buy a developer a beer!
