                               Psi4 1.3.2 release

  ==> Input File <==

--------------------------------------------------------------------------
#psi4
#
memory 32 gb

molecule  {
-2 1
  O       -1.2362950     1.7303800    -0.2239510
  O        2.6794370    -1.1261430    -0.8901160
  O        3.7000480     0.2611620     0.6076450
  O       -3.2904550    -0.3020480    -0.9006360
  O       -2.5973840    -0.9175860     1.2002500
  C        0.1162890    -0.2520540     0.0602520
  C        1.3112582     0.4505006     0.3318940
  C       -1.1988410     0.5019860    -0.0558080
  C        2.7080760    -0.1725680    -0.0543080
  C       -2.4977060    -0.3261360     0.0823270
  H        0.0210760    -0.9244250     0.9209780
  H        0.2133690    -0.9136840    -0.8118550
  H        1.4153100     1.1406480     1.1027450
  H        1.3130670     1.3830990    -0.6295990
units angstrom
no_reorient  #important for SAPT in psi4, default
symmetry c1  #important for SAPT in psi4, default
}

set PROPERTIES_ORIGIN ["COM"]
properties('MP2/aug-cc-pvtz', properties = ['dipole'])
--------------------------------------------------------------------------

    Molecular point group: c1
  Charge       = -2
  Multiplicity = 1
  Basis Set: AUG-CC-PVTZ
    Blend: AUG-CC-PVTZ
  Basis Set: (AUG-CC-PVTZ AUX)
    Blend: AUG-CC-PVTZ-JKFIT

    Orbital Energies [Eh]
    ---------------------

    Doubly Occupied:

       1A    -20.291303     2A    -20.232959     3A    -20.232010
       4A    -20.211001     5A    -20.210085     6A    -11.074430
       7A    -11.073085     8A    -11.059933     9A    -10.971891
      10A    -10.968978    11A     -1.121244    12A     -1.087896
      13A     -1.076578    14A     -1.001351    15A     -0.978414
      16A     -0.813250    17A     -0.658538    18A     -0.558900
      19A     -0.444840    20A     -0.428385    21A     -0.385194
      22A     -0.380247    23A     -0.365610    24A     -0.333851
      25A     -0.331350    26A     -0.305438    27A     -0.282405
      28A     -0.275947    29A     -0.269574    30A     -0.232674
      31A     -0.212291    32A     -0.160304    33A     -0.145358
      34A     -0.130427    35A     -0.127460    36A     -0.118014
      37A     -0.112446    38A     -0.098940

  @DF-RHF Final Energy:  -566.14224562118659

   => Energetics <=

    Nuclear Repulsion Energy =            480.2839287624107669
    One-Electron Energy =               -1755.3271492735361790
    Two-Electron Energy =                 708.9009748899387660
    Total Energy =                       -566.1422456211865892
  Basis Set: (AUG-CC-PVTZ AUX)
    Blend: AUG-CC-PVTZ-RI
    Molecular point group: c1

    Geometry (in Angstrom), charge = -2, multiplicity = 1:

       Center              X                  Y                   Z               Mass
    ------------   -----------------  -----------------  -----------------  -----------------
         O           -1.210909392337     1.748116861585    -0.235417427959    15.994914619570
         O            2.704822607663    -1.108406138415    -0.901582427959    15.994914619570
         O            3.725433607663     0.278898861585     0.596178572041    15.994914619570
         O           -3.265069392337    -0.284311138415    -0.912102427959    15.994914619570
         O           -2.571998392337    -0.899849138415     1.188783572041    15.994914619570
         C            0.141674607663    -0.234317138415     0.048785572041    12.000000000000
         C            1.336643807663     0.468237461585     0.320427572041    12.000000000000
         C           -1.173455392337     0.519722861585    -0.067274427959    12.000000000000
         C            2.733461607663    -0.154831138415    -0.065774427959    12.000000000000
         C           -2.472320392337    -0.308399138415     0.070860572041    12.000000000000
         H            0.046461607663    -0.906688138415     0.909511572041     1.007825032230
         H            0.238754607663    -0.895947138415    -0.823321427959     1.007825032230
         H            1.440695607663     1.158384861585     1.091278572041     1.007825032230
         H            1.338452607663     1.400835861585    -0.641065427959     1.007825032230

  Basis Set: AUG-CC-PVTZ
    Blend: AUG-CC-PVTZ
  Basis Set: (AUG-CC-PVTZ AUX)
    Blend: AUG-CC-PVTZ-JKFIT
	 Reference Energy          =    -566.1422456211865892 [Eh]
	 Singles Energy            =      -0.0000000000000000 [Eh]
	 Same-Spin Energy          =      -0.5606226815043230 [Eh]
	 Opposite-Spin Energy      =      -1.6398944236009774 [Eh]
	 Correlation Energy        =      -2.2005171051053005 [Eh]
	 Total Energy              =    -568.3427627262918804 [Eh]

	 ================> DF-SCS-MP2 Energies <==================
	-----------------------------------------------------------
	 SCS Same-Spin Scale       =       0.3333333333333333 [-]
	 SCS Opposite-Spin Scale   =       1.2000000000000000 [-]
	 SCS Same-Spin Energy      =      -0.1868742271681077 [Eh]
	 SCS Opposite-Spin Energy  =      -1.9678733083211728 [Eh]
	 SCS Correlation Energy    =      -2.1547475354892804 [Eh]
	 SCS Total Energy          =    -568.2969931566758532 [Eh]
	-----------------------------------------------------------

  Dipole Moment: [D]
     X:    -1.4961      Y:     1.6600      Z:     0.6258     Total:     2.3207

*** Psi4 exiting successfully. Buy a developer a beer!
