                               Psi4 1.3.2 release

  ==> Input File <==

--------------------------------------------------------------------------
#psi4
#
memory 32 gb

molecule  {
-2 1
  O       -1.2362950     1.7303800    -0.2239510
  O        2.6794370    -1.1261430    -0.8901160
  O        3.7000480     0.2611620     0.6076450
  O       -3.2904550    -0.3020480    -0.9006360
  O       -2.5973840    -0.9175860     1.2002500
  C        0.1162890    -0.2520540     0.0602520
  C        1.2992613     0.4192385     0.3690256
  C       -1.1988410     0.5019860    -0.0558080
  C        2.7080760    -0.1725680    -0.0543080
  C       -2.4977060    -0.3261360     0.0823270
  H        0.0210760    -0.9244250     0.9209780
  H        0.2133690    -0.9136840    -0.8118550
  H        1.4153100     1.1406480     1.1027450
  H        1.3130670     1.3830990    -0.6295990
units angstrom
no_reorient  #important for SAPT in psi4, default
symmetry c1  #important for SAPT in psi4, default
}

set PROPERTIES_ORIGIN ["COM"]
properties('MP2/aug-cc-pvtz', properties = ['dipole'])
--------------------------------------------------------------------------

    Molecular point group: c1
  Charge       = -2
  Multiplicity = 1
  Basis Set: AUG-CC-PVTZ
    Blend: AUG-CC-PVTZ
  Basis Set: (AUG-CC-PVTZ AUX)
    Blend: AUG-CC-PVTZ-JKFIT

    Orbital Energies [Eh]
    ---------------------

    Doubly Occupied:

       1A    -20.291967     2A    -20.233324     3A    -20.232349
       4A    -20.211461     5A    -20.210568     6A    -11.074922
       7A    -11.073773     8A    -11.062337     9A    -10.976104
      10A    -10.969482    11A     -1.121693    12A     -1.088273
      13A     -1.076997    14A     -1.001700    15A     -0.978920
      16A     -0.818675    17A     -0.658306    18A     -0.559354
      19A     -0.446467    20A     -0.430196    21A     -0.386010
      22A     -0.382202    23A     -0.367622    24A     -0.334236
      25A     -0.331861    26A     -0.305649    27A     -0.282705
      28A     -0.278880    29A     -0.269735    30A     -0.233363
      31A     -0.212814    32A     -0.153806    33A     -0.141087
      34A     -0.130907    35A     -0.127647    36A     -0.117148
      37A     -0.112992    38A     -0.097820

  @DF-RHF Final Energy:  -566.12435901956314

   => Energetics <=

    Nuclear Repulsion Energy =            480.3624838200211116
    One-Electron Energy =               -1755.4069892922282179
    Two-Electron Energy =                 708.9201464526440759
    Total Energy =                       -566.1243590195631441
  Basis Set: (AUG-CC-PVTZ AUX)
    Blend: AUG-CC-PVTZ-RI
    Molecular point group: c1

    Geometry (in Angstrom), charge = -2, multiplicity = 1:

       Center              X                  Y                   Z               Mass
    ------------   -----------------  -----------------  -----------------  -----------------
         O           -1.209909691444     1.750721930334    -0.238511601759    15.994914619570
         O            2.705822308556    -1.105801069666    -0.904676601759    15.994914619570
         O            3.726433308556     0.281503930334     0.593084398241    15.994914619570
         O           -3.264069691444    -0.281706069666    -0.915196601759    15.994914619570
         O           -2.570998691444    -0.897244069666     1.185689398241    15.994914619570
         C            0.142674308556    -0.231712069666     0.045691398241    12.000000000000
         C            1.325646608556     0.439580430334     0.354464998241    12.000000000000
         C           -1.172455691444     0.522327930334    -0.070368601759    12.000000000000
         C            2.734461308556    -0.152226069666    -0.068868601759    12.000000000000
         C           -2.471320691444    -0.305794069666     0.067766398241    12.000000000000
         H            0.047461308556    -0.904083069666     0.906417398241     1.007825032230
         H            0.239754308556    -0.893342069666    -0.826415601759     1.007825032230
         H            1.441695308556     1.160989930334     1.088184398241     1.007825032230
         H            1.339452308556     1.403440930334    -0.644159601759     1.007825032230

  Basis Set: AUG-CC-PVTZ
    Blend: AUG-CC-PVTZ
  Basis Set: (AUG-CC-PVTZ AUX)
    Blend: AUG-CC-PVTZ-JKFIT
	 Reference Energy          =    -566.1243590195631441 [Eh]
	 Singles Energy            =      -0.0000000000000000 [Eh]
	 Same-Spin Energy          =      -0.5613733123829169 [Eh]
	 Opposite-Spin Energy      =      -1.6414066370873042 [Eh]
	 Correlation Energy        =      -2.2027799494702212 [Eh]
	 Total Energy              =    -568.3271389690333990 [Eh]

	 ================> DF-SCS-MP2 Energies <==================
	-----------------------------------------------------------
	 SCS Same-Spin Scale       =       0.3333333333333333 [-]
	 SCS Opposite-Spin Scale   =       1.2000000000000000 [-]
	 SCS Same-Spin Energy      =      -0.1871244374609723 [Eh]
	 SCS Opposite-Spin Energy  =      -1.9696879645047649 [Eh]
	 SCS Correlation Energy    =      -2.1568124019657371 [Eh]
	 SCS Total Energy          =    -568.2811714215288248 [Eh]
	-----------------------------------------------------------

  Dipole Moment: [D]
     X:    -1.5387      Y:     1.5709      Z:     0.6999     Total:     2.3076

*** Psi4 exiting successfully. Buy a developer a beer!
