                               Psi4 1.3.2 release

  ==> Input File <==

--------------------------------------------------------------------------
#psi4
#
memory 32 gb

molecule  {
-2 1
  O       -1.2362950     1.7303800    -0.2239510
  O        2.6794370    -1.1261430    -0.8901160
  O        3.7000480     0.2611620     0.6076450
  O       -3.2904550    -0.3020480    -0.9006360
  O       -2.5973840    -0.9175860     1.2002500
  C        0.1162890    -0.2520540     0.0602520
  C        1.3712430     0.6068110     0.1462360
  C       -1.1988410     0.5019860    -0.0558080
  C        2.7080760    -0.1725680    -0.0543080
  C       -2.4983440    -0.3478487    -0.0660918
  H        0.0210760    -0.9244250     0.9209780
  H        0.2133690    -0.9136840    -0.8118550
  H        1.4153100     1.1406480     1.1027450
  H        1.3130670     1.3830990    -0.6295990
units angstrom
no_reorient  #important for SAPT in psi4, default
symmetry c1  #important for SAPT in psi4, default
}

set PROPERTIES_ORIGIN ["COM"]
properties('MP2/aug-cc-pvtz', properties = ['dipole'])
--------------------------------------------------------------------------

    Molecular point group: c1
  Charge       = -2
  Multiplicity = 1
  Basis Set: AUG-CC-PVTZ
    Blend: AUG-CC-PVTZ
  Basis Set: (AUG-CC-PVTZ AUX)
    Blend: AUG-CC-PVTZ-JKFIT

    Orbital Energies [Eh]
    ---------------------

    Doubly Occupied:

       1A    -20.288986     2A    -20.259123     3A    -20.208886
       4A    -20.208293     5A    -20.205562     6A    -11.071823
       7A    -11.070055     8A    -11.051858     9A    -10.967684
      10A    -10.956470    11A     -1.157230    12A     -1.107797
      13A     -1.074451    14A     -0.976145    15A     -0.953102
      16A     -0.787054    17A     -0.659327    18A     -0.556321
      19A     -0.441409    20A     -0.425656    21A     -0.396324
      22A     -0.368699    23A     -0.367130    24A     -0.333192
      25A     -0.325825    26A     -0.307224    27A     -0.293485
      28A     -0.279294    29A     -0.251734    30A     -0.228996
      31A     -0.212037    32A     -0.208435    33A     -0.134517
      34A     -0.123659    35A     -0.116332    36A     -0.113790
      37A     -0.109681    38A     -0.094230

  @DF-RHF Final Energy:  -566.16480364978679

   => Energetics <=

    Nuclear Repulsion Energy =            479.4695140045414519
    One-Electron Energy =               -1753.8850035678744916
    Two-Electron Energy =                 708.2506859135462491
    Total Energy =                       -566.1648036497867906
  Basis Set: (AUG-CC-PVTZ AUX)
    Blend: AUG-CC-PVTZ-RI
    Molecular point group: c1

    Geometry (in Angstrom), charge = -2, multiplicity = 1:

       Center              X                  Y                   Z               Mass
    ------------   -----------------  -----------------  -----------------  -----------------
         O           -1.215854757301     1.736900844045    -0.207578830059    15.994914619570
         O            2.699877242699    -1.119622155955    -0.873743830059    15.994914619570
         O            3.720488242699     0.267682844045     0.624017169941    15.994914619570
         O           -3.270014757301    -0.295527155955    -0.884263830059    15.994914619570
         O           -2.576943757301    -0.911065155955     1.216622169941    15.994914619570
         C            0.136729242699    -0.245533155955     0.076624169941    12.000000000000
         C            1.391683242699     0.613331844045     0.162608169941    12.000000000000
         C           -1.178400757301     0.508506844045    -0.039435830059    12.000000000000
         C            2.728516242699    -0.166047155955    -0.037935830059    12.000000000000
         C           -2.477903757301    -0.341327855955    -0.049719630059    12.000000000000
         H            0.041516242699    -0.917904155955     0.937350169941     1.007825032230
         H            0.233809242699    -0.907163155955    -0.795482830059     1.007825032230
         H            1.435750242699     1.147168844045     1.119117169941     1.007825032230
         H            1.333507242699     1.389619844045    -0.613226830059     1.007825032230

  Basis Set: AUG-CC-PVTZ
    Blend: AUG-CC-PVTZ
  Basis Set: (AUG-CC-PVTZ AUX)
    Blend: AUG-CC-PVTZ-JKFIT
	 Reference Energy          =    -566.1648036497867906 [Eh]
	 Singles Energy            =      -0.0000000000000000 [Eh]
	 Same-Spin Energy          =      -0.5585247084281717 [Eh]
	 Opposite-Spin Energy      =      -1.6366106045322404 [Eh]
	 Correlation Energy        =      -2.1951353129604119 [Eh]
	 Total Energy              =    -568.3599389627471510 [Eh]

	 ================> DF-SCS-MP2 Energies <==================
	-----------------------------------------------------------
	 SCS Same-Spin Scale       =       0.3333333333333333 [-]
	 SCS Opposite-Spin Scale   =       1.2000000000000000 [-]
	 SCS Same-Spin Energy      =      -0.1861749028093906 [Eh]
	 SCS Opposite-Spin Energy  =      -1.9639327254386885 [Eh]
	 SCS Correlation Energy    =      -2.1501076282480791 [Eh]
	 SCS Total Energy          =    -568.3149112780348560 [Eh]
	-----------------------------------------------------------

  Dipole Moment: [D]
     X:    -1.7229      Y:     2.2447      Z:    -1.0762     Total:     3.0274

*** Psi4 exiting successfully. Buy a developer a beer!
