                               Psi4 1.3.2 release

  ==> Input File <==

--------------------------------------------------------------------------
#psi4
#
memory 32 gb

molecule  {
-2 1
  O       -1.2362950     1.7303800    -0.2239510
  O        2.6794370    -1.1261430    -0.8901160
  O        3.7000480     0.2611620     0.6076450
  O       -3.2904550    -0.3020480    -0.9006360
  O       -2.5973840    -0.9175860     1.2002500
  C        0.1162890    -0.2520540     0.0602520
  C        1.3712430     0.6068110     0.1462360
  C       -1.2682565     0.6216597     0.0021550
  C        2.7080760    -0.1725680    -0.0543080
  C       -2.4977060    -0.3261360     0.0823270
  H        0.0210760    -0.9244250     0.9209780
  H        0.2133690    -0.9136840    -0.8118550
  H        1.4153100     1.1406480     1.1027450
  H        1.3130670     1.3830990    -0.6295990
units angstrom
no_reorient  #important for SAPT in psi4, default
symmetry c1  #important for SAPT in psi4, default
}

set PROPERTIES_ORIGIN ["COM"]
properties('MP2/aug-cc-pvtz', properties = ['dipole'])
--------------------------------------------------------------------------

    Molecular point group: c1
  Charge       = -2
  Multiplicity = 1
  Basis Set: AUG-CC-PVTZ
    Blend: AUG-CC-PVTZ
  Basis Set: (AUG-CC-PVTZ AUX)
    Blend: AUG-CC-PVTZ-JKFIT

    Orbital Energies [Eh]
    ---------------------

    Doubly Occupied:

       1A    -20.298836     2A    -20.230560     3A    -20.228817
       4A    -20.206646     5A    -20.205393     6A    -11.068382
       7A    -11.060443     8A    -11.049053     9A    -10.961357
      10A    -10.952968    11A     -1.192002    12A     -1.092093
      13A     -1.071841    14A     -0.998329    15A     -0.973543
      16A     -0.769477    17A     -0.640376    18A     -0.553410
      19A     -0.450776    20A     -0.424426    21A     -0.388097
      22A     -0.380026    23A     -0.363814    24A     -0.332455
      25A     -0.323831    26A     -0.306605    27A     -0.297351
      28A     -0.276538    29A     -0.260366    30A     -0.230032
      31A     -0.211561    32A     -0.206956    33A     -0.146786
      34A     -0.126394    35A     -0.123156    36A     -0.113124
      37A     -0.107294    38A     -0.079796

  @DF-RHF Final Energy:  -566.17688871262692

   => Energetics <=

    Nuclear Repulsion Energy =            479.6395726423772317
    One-Electron Energy =               -1754.2270989502092107
    Two-Electron Energy =                 708.4106375952050030
    Total Energy =                       -566.1768887126269192
  Basis Set: (AUG-CC-PVTZ AUX)
    Blend: AUG-CC-PVTZ-RI
    Molecular point group: c1

    Geometry (in Angstrom), charge = -2, multiplicity = 1:

       Center              X                  Y                   Z               Mass
    ------------   -----------------  -----------------  -----------------  -----------------
         O           -1.210123532723     1.725119124577    -0.224776611959    15.994914619570
         O            2.705608467277    -1.131403875423    -0.890941611959    15.994914619570
         O            3.726219467277     0.255901124577     0.606819388041    15.994914619570
         O           -3.264283532723    -0.307308875423    -0.901461611959    15.994914619570
         O           -2.571212532723    -0.922846875423     1.199424388041    15.994914619570
         C            0.142460467277    -0.257314875423     0.059426388041    12.000000000000
         C            1.397414467277     0.601550124577     0.145410388041    12.000000000000
         C           -1.242085032723     0.616398824577     0.001329388041    12.000000000000
         C            2.734247467277    -0.177828875423    -0.055133611959    12.000000000000
         C           -2.471534532723    -0.331396875423     0.081501388041    12.000000000000
         H            0.047247467277    -0.929685875423     0.920152388041     1.007825032230
         H            0.239540467277    -0.918944875423    -0.812680611959     1.007825032230
         H            1.441481467277     1.135387124577     1.101919388041     1.007825032230
         H            1.339238467277     1.377838124577    -0.630424611959     1.007825032230

  Basis Set: AUG-CC-PVTZ
    Blend: AUG-CC-PVTZ
  Basis Set: (AUG-CC-PVTZ AUX)
    Blend: AUG-CC-PVTZ-JKFIT
	 Reference Energy          =    -566.1768887126269192 [Eh]
	 Singles Energy            =      -0.0000000000000000 [Eh]
	 Same-Spin Energy          =      -0.5558089842880717 [Eh]
	 Opposite-Spin Energy      =      -1.6309515936258596 [Eh]
	 Correlation Energy        =      -2.1867605779139314 [Eh]
	 Total Energy              =    -568.3636492905408204 [Eh]

	 ================> DF-SCS-MP2 Energies <==================
	-----------------------------------------------------------
	 SCS Same-Spin Scale       =       0.3333333333333333 [-]
	 SCS Opposite-Spin Scale   =       1.2000000000000000 [-]
	 SCS Same-Spin Energy      =      -0.1852696614293572 [Eh]
	 SCS Opposite-Spin Energy  =      -1.9571419123510314 [Eh]
	 SCS Correlation Energy    =      -2.1424115737803886 [Eh]
	 SCS Total Energy          =    -568.3193002864072696 [Eh]
	-----------------------------------------------------------

  Dipole Moment: [D]
     X:    -1.8399      Y:     2.7609      Z:     0.2945     Total:     3.3309

*** Psi4 exiting successfully. Buy a developer a beer!
