                               Psi4 1.3.2 release

  ==> Input File <==

--------------------------------------------------------------------------
#psi4
#
memory 32 gb

molecule  {
-2 1
  O       -1.2362950     1.7303800    -0.2239510
  O        2.6794370    -1.1261430    -0.8901160
  O        3.7000480     0.2611620     0.6076450
  O       -3.2904550    -0.3020480    -0.9006360
  O       -2.5973840    -0.9175860     1.2002500
  C        0.1162890    -0.2520540     0.0602520
  C        1.3712430     0.6068110     0.1462360
  C       -1.2913950     0.6615509     0.0214759
  C        2.7080760    -0.1725680    -0.0543080
  C       -2.4977060    -0.3261360     0.0823270
  H        0.0210760    -0.9244250     0.9209780
  H        0.2133690    -0.9136840    -0.8118550
  H        1.4153100     1.1406480     1.1027450
  H        1.3130670     1.3830990    -0.6295990
units angstrom
no_reorient  #important for SAPT in psi4, default
symmetry c1  #important for SAPT in psi4, default
}

set PROPERTIES_ORIGIN ["COM"]
properties('MP2/aug-cc-pvtz', properties = ['dipole'])
--------------------------------------------------------------------------

    Molecular point group: c1
  Charge       = -2
  Multiplicity = 1
  Basis Set: AUG-CC-PVTZ
    Blend: AUG-CC-PVTZ
  Basis Set: (AUG-CC-PVTZ AUX)
    Blend: AUG-CC-PVTZ-JKFIT

    Orbital Energies [Eh]
    ---------------------

    Doubly Occupied:

       1A    -20.302861     2A    -20.231036     3A    -20.228213
       4A    -20.205230     5A    -20.203786     6A    -11.068367
       7A    -11.058117     8A    -11.047367     9A    -10.956640
      10A    -10.950845    11A     -1.220109    12A     -1.092335
      13A     -1.070293    14A     -0.998145    15A     -0.972013
      16A     -0.763479    17A     -0.633077    18A     -0.551911
      19A     -0.458633    20A     -0.424781    21A     -0.393669
      22A     -0.381399    23A     -0.366462    24A     -0.334023
      25A     -0.323915    26A     -0.310196    27A     -0.301216
      28A     -0.277231    29A     -0.261160    30A     -0.226799
      31A     -0.208532    32A     -0.204940    33A     -0.146935
      34A     -0.126086    35A     -0.121720    36A     -0.111535
      37A     -0.105864    38A     -0.070874

  @DF-RHF Final Energy:  -566.15860282031713

   => Energetics <=

    Nuclear Repulsion Energy =            479.7424571227506931
    One-Electron Energy =               -1754.3825315327001135
    Two-Electron Energy =                 708.4814715896322923
    Total Energy =                       -566.1586028203171281
  Basis Set: (AUG-CC-PVTZ AUX)
    Blend: AUG-CC-PVTZ-RI
    Molecular point group: c1

    Geometry (in Angstrom), charge = -2, multiplicity = 1:

       Center              X                  Y                   Z               Mass
    ------------   -----------------  -----------------  -----------------  -----------------
         O           -1.208195403031     1.721794993490    -0.226386621292    15.994914619570
         O            2.707536596969    -1.134728006510    -0.892551621292    15.994914619570
         O            3.728147596969     0.252576993490     0.605209378708    15.994914619570
         O           -3.262355403031    -0.310633006510    -0.903071621292    15.994914619570
         O           -2.569284403031    -0.926171006510     1.197814378708    15.994914619570
         C            0.144388596969    -0.260639006510     0.057816378708    12.000000000000
         C            1.399342596969     0.598225993490     0.143800378708    12.000000000000
         C           -1.263295403031     0.652965893490     0.019040278708    12.000000000000
         C            2.736175596969    -0.181153006510    -0.056743621292    12.000000000000
         C           -2.469606403031    -0.334721006510     0.079891378708    12.000000000000
         H            0.049175596969    -0.933010006510     0.918542378708     1.007825032230
         H            0.241468596969    -0.922269006510    -0.814290621292     1.007825032230
         H            1.443409596969     1.132062993490     1.100309378708     1.007825032230
         H            1.341166596969     1.374513993490    -0.632034621292     1.007825032230

  Basis Set: AUG-CC-PVTZ
    Blend: AUG-CC-PVTZ
  Basis Set: (AUG-CC-PVTZ AUX)
    Blend: AUG-CC-PVTZ-JKFIT
	 Reference Energy          =    -566.1586028203171281 [Eh]
	 Singles Energy            =      -0.0000000000000000 [Eh]
	 Same-Spin Energy          =      -0.5554200365138895 [Eh]
	 Opposite-Spin Energy      =      -1.6300781682336032 [Eh]
	 Correlation Energy        =      -2.1854982047474927 [Eh]
	 Total Energy              =    -568.3441010250646741 [Eh]

	 ================> DF-SCS-MP2 Energies <==================
	-----------------------------------------------------------
	 SCS Same-Spin Scale       =       0.3333333333333333 [-]
	 SCS Opposite-Spin Scale   =       1.2000000000000000 [-]
	 SCS Same-Spin Energy      =      -0.1851400121712965 [Eh]
	 SCS Opposite-Spin Energy  =      -1.9560938018803238 [Eh]
	 SCS Correlation Energy    =      -2.1412338140516205 [Eh]
	 SCS Total Energy          =    -568.2998366343687167 [Eh]
	-----------------------------------------------------------

  Dipole Moment: [D]
     X:    -2.0721      Y:     3.0452      Z:     0.3083     Total:     3.6962

*** Psi4 exiting successfully. Buy a developer a beer!
