                               Psi4 1.3.2 release

  ==> Input File <==

--------------------------------------------------------------------------
#psi4
#
memory 32 gb

molecule  {
-2 1
  O       -1.2362950     1.7303800    -0.2239510
  O        2.6794370    -1.1261430    -0.8901160
  O        3.7000480     0.2611620     0.6076450
  O       -3.2904550    -0.3020480    -0.9006360
  O       -2.5973840    -0.9175860     1.2002500
  C        0.1162890    -0.2520540     0.0602520
  C        1.3712430     0.6068110     0.1462360
  C       -1.1988410     0.5019860    -0.0558080
  C        2.7080760    -0.1725680    -0.0543080
  C       -2.4987694    -0.3623239    -0.1650377
  H        0.0210760    -0.9244250     0.9209780
  H        0.2133690    -0.9136840    -0.8118550
  H        1.4153100     1.1406480     1.1027450
  H        1.3130670     1.3830990    -0.6295990
units angstrom
no_reorient  #important for SAPT in psi4, default
symmetry c1  #important for SAPT in psi4, default
}

set PROPERTIES_ORIGIN ["COM"]
properties('MP2/aug-cc-pvtz', properties = ['dipole'])
--------------------------------------------------------------------------

    Molecular point group: c1
  Charge       = -2
  Multiplicity = 1
  Basis Set: AUG-CC-PVTZ
    Blend: AUG-CC-PVTZ
  Basis Set: (AUG-CC-PVTZ AUX)
    Blend: AUG-CC-PVTZ-JKFIT

    Orbital Energies [Eh]
    ---------------------

    Doubly Occupied:

       1A    -20.288422     2A    -20.277381     3A    -20.208081
       4A    -20.207601     5A    -20.189989     6A    -11.073804
       7A    -11.066717     8A    -11.051048     9A    -10.966017
      10A    -10.955202    11A     -1.216288    12A     -1.109903
      13A     -1.073686    14A     -0.975392    15A     -0.911639
      16A     -0.785127    17A     -0.657169    18A     -0.555039
      19A     -0.449834    20A     -0.432890    21A     -0.407359
      22A     -0.371385    23A     -0.366983    24A     -0.347166
      25A     -0.336242    26A     -0.313843    27A     -0.302413
      28A     -0.279995    29A     -0.252619    30A     -0.227968
      31A     -0.210538    32A     -0.204081    33A     -0.124799
      34A     -0.115864    35A     -0.109010    36A     -0.108564
      37A     -0.100349    38A     -0.082469

  @DF-RHF Final Energy:  -566.11556855459912

   => Energetics <=

    Nuclear Repulsion Energy =            479.6616493807705410
    One-Electron Energy =               -1754.1286917794866440
    Two-Electron Energy =                 708.3514738441169811
    Total Energy =                       -566.1155685545991219
  Basis Set: (AUG-CC-PVTZ AUX)
    Blend: AUG-CC-PVTZ-RI
    Molecular point group: c1

    Geometry (in Angstrom), charge = -2, multiplicity = 1:

       Center              X                  Y                   Z               Mass
    ------------   -----------------  -----------------  -----------------  -----------------
         O           -1.215819308746     1.738107061514    -0.199333674682    15.994914619570
         O            2.699912691254    -1.118415938486    -0.865498674682    15.994914619570
         O            3.720523691254     0.268889061514     0.632262325318    15.994914619570
         O           -3.269979308746    -0.294320938486    -0.876018674682    15.994914619570
         O           -2.576908308746    -0.909858938486     1.224867325318    15.994914619570
         C            0.136764691254    -0.244326938486     0.084869325318    12.000000000000
         C            1.391718691254     0.614538061514     0.170853325318    12.000000000000
         C           -1.178365308746     0.509713061514    -0.031190674682    12.000000000000
         C            2.728551691254    -0.164840938486    -0.029690674682    12.000000000000
         C           -2.478293708746    -0.354596838486    -0.140420374682    12.000000000000
         H            0.041551691254    -0.916697938486     0.945595325318     1.007825032230
         H            0.233844691254    -0.905956938486    -0.787237674682     1.007825032230
         H            1.435785691254     1.148375061514     1.127362325318     1.007825032230
         H            1.333542691254     1.390826061514    -0.604981674682     1.007825032230

  Basis Set: AUG-CC-PVTZ
    Blend: AUG-CC-PVTZ
  Basis Set: (AUG-CC-PVTZ AUX)
    Blend: AUG-CC-PVTZ-JKFIT
	 Reference Energy          =    -566.1155685545991219 [Eh]
	 Singles Energy            =      -0.0000000000000000 [Eh]
	 Same-Spin Energy          =      -0.5590645732044867 [Eh]
	 Opposite-Spin Energy      =      -1.6381161033515292 [Eh]
	 Correlation Energy        =      -2.1971806765560160 [Eh]
	 Total Energy              =    -568.3127492311551805 [Eh]

	 ================> DF-SCS-MP2 Energies <==================
	-----------------------------------------------------------
	 SCS Same-Spin Scale       =       0.3333333333333333 [-]
	 SCS Opposite-Spin Scale   =       1.2000000000000000 [-]
	 SCS Same-Spin Energy      =      -0.1863548577348289 [Eh]
	 SCS Opposite-Spin Energy  =      -1.9657393240218350 [Eh]
	 SCS Correlation Energy    =      -2.1520941817566639 [Eh]
	 SCS Total Energy          =    -568.2676627363557600 [Eh]
	-----------------------------------------------------------

  Dipole Moment: [D]
     X:    -2.0043      Y:     2.4156      Z:    -1.9879     Total:     3.7154

*** Psi4 exiting successfully. Buy a developer a beer!
