                               Psi4 1.3.2 release

  ==> Input File <==

--------------------------------------------------------------------------
#psi4
#
memory 32 gb

molecule  {
-2 1
  O       -1.2362950     1.7303800    -0.2239510
  O        2.6794370    -1.1261430    -0.8901160
  O        3.7000480     0.2611620     0.6076450
  O       -3.2904550    -0.3020480    -0.9006360
  O       -2.5973840    -0.9175860     1.2002500
  C        0.1162890    -0.2520540     0.0602520
  C        1.3712430     0.6068110     0.1462360
  C       -1.2451180     0.5817684    -0.0171660
  C        2.7080760    -0.1725680    -0.0543080
  C       -2.4977060    -0.3261360     0.0823270
  H        0.0210760    -0.9244250     0.9209780
  H        0.2133690    -0.9136840    -0.8118550
  H        1.4153100     1.1406480     1.1027450
  H        1.3130670     1.3830990    -0.6295990
units angstrom
no_reorient  #important for SAPT in psi4, default
symmetry c1  #important for SAPT in psi4, default
}

set PROPERTIES_ORIGIN ["COM"]
properties('MP2/aug-cc-pvtz', properties = ['dipole'])
--------------------------------------------------------------------------

    Molecular point group: c1
  Charge       = -2
  Multiplicity = 1
  Basis Set: AUG-CC-PVTZ
    Blend: AUG-CC-PVTZ
  Basis Set: (AUG-CC-PVTZ AUX)
    Blend: AUG-CC-PVTZ-JKFIT

    Orbital Energies [Eh]
    ---------------------

    Doubly Occupied:

       1A    -20.295248     2A    -20.230374     3A    -20.229617
       4A    -20.207902     5A    -20.206818     6A    -11.069122
       7A    -11.063320     8A    -11.050532     9A    -10.965114
      10A    -10.954902    11A     -1.165095    12A     -1.091671
      13A     -1.073211    14A     -0.998735    15A     -0.974898
      16A     -0.775740    17A     -0.647580    18A     -0.554814
      19A     -0.445080    20A     -0.423735    21A     -0.384322
      22A     -0.377479    23A     -0.363869    24A     -0.331640
      25A     -0.323898    26A     -0.305914    27A     -0.290657
      28A     -0.276042    29A     -0.256982    30A     -0.232613
      31A     -0.213880    32A     -0.208194    33A     -0.146799
      34A     -0.126954    35A     -0.124393    36A     -0.114561
      37A     -0.108562    38A     -0.087551

  @DF-RHF Final Energy:  -566.18820743646563

   => Energetics <=

    Nuclear Repulsion Energy =            479.5446014582985867
    One-Electron Energy =               -1754.0699813864923726
    Two-Electron Energy =                 708.3371724917282108
    Total Energy =                       -566.1882074364656319
  Basis Set: (AUG-CC-PVTZ AUX)
    Blend: AUG-CC-PVTZ-RI
    Molecular point group: c1

    Geometry (in Angstrom), charge = -2, multiplicity = 1:

       Center              X                  Y                   Z               Mass
    ------------   -----------------  -----------------  -----------------  -----------------
         O           -1.212051662415     1.728443263998    -0.223166594292    15.994914619570
         O            2.703680337585    -1.128079736002    -0.889331594292    15.994914619570
         O            3.724291337585     0.259225263998     0.608429405708    15.994914619570
         O           -3.266211662415    -0.303984736002    -0.899851594292    15.994914619570
         O           -2.573140662415    -0.919522736002     1.201034405708    15.994914619570
         C            0.140532337585    -0.253990736002     0.061036405708    12.000000000000
         C            1.395486337585     0.604874263998     0.147020405708    12.000000000000
         C           -1.220874662415     0.579831663998    -0.016381594292    12.000000000000
         C            2.732319337585    -0.174504736002    -0.053523594292    12.000000000000
         C           -2.473462662415    -0.328072736002     0.083111405708    12.000000000000
         H            0.045319337585    -0.926361736002     0.921762405708     1.007825032230
         H            0.237612337585    -0.915620736002    -0.811070594292     1.007825032230
         H            1.439553337585     1.138711263998     1.103529405708     1.007825032230
         H            1.337310337585     1.381162263998    -0.628814594292     1.007825032230

  Basis Set: AUG-CC-PVTZ
    Blend: AUG-CC-PVTZ
  Basis Set: (AUG-CC-PVTZ AUX)
    Blend: AUG-CC-PVTZ-JKFIT
	 Reference Energy          =    -566.1882074364656319 [Eh]
	 Singles Energy            =      -0.0000000000000000 [Eh]
	 Same-Spin Energy          =      -0.5564089968200107 [Eh]
	 Opposite-Spin Energy      =      -1.6321884187858284 [Eh]
	 Correlation Energy        =      -2.1885974156058392 [Eh]
	 Total Energy              =    -568.3768048520714729 [Eh]

	 ================> DF-SCS-MP2 Energies <==================
	-----------------------------------------------------------
	 SCS Same-Spin Scale       =       0.3333333333333333 [-]
	 SCS Opposite-Spin Scale   =       1.2000000000000000 [-]
	 SCS Same-Spin Energy      =      -0.1854696656066702 [Eh]
	 SCS Opposite-Spin Energy  =      -1.9586261025429941 [Eh]
	 SCS Correlation Energy    =      -2.1440957681496644 [Eh]
	 SCS Total Energy          =    -568.3323032046153003 [Eh]
	-----------------------------------------------------------

  Dipole Moment: [D]
     X:    -1.6361      Y:     2.4913      Z:     0.2808     Total:     2.9937

*** Psi4 exiting successfully. Buy a developer a beer!
