                               Psi4 1.3.2 release

  ==> Input File <==

--------------------------------------------------------------------------
#psi4
#
memory 32 gb

molecule  {
-2 1
  O       -1.2362950     1.7303800    -0.2239510
  O        2.6794370    -1.1261430    -0.8901160
  O        3.7000480     0.2611620     0.6076450
  O       -3.2904550    -0.3020480    -0.9006360
  O       -2.5973840    -0.9175860     1.2002500
  C        0.1162890    -0.2520540     0.0602520
  C        1.3712430     0.6068110     0.1462360
  C       -1.2219795     0.5418772    -0.0364870
  C        2.7080760    -0.1725680    -0.0543080
  C       -2.4977060    -0.3261360     0.0823270
  H        0.0210760    -0.9244250     0.9209780
  H        0.2133690    -0.9136840    -0.8118550
  H        1.4153100     1.1406480     1.1027450
  H        1.3130670     1.3830990    -0.6295990
units angstrom
no_reorient  #important for SAPT in psi4, default
symmetry c1  #important for SAPT in psi4, default
}

set PROPERTIES_ORIGIN ["COM"]
properties('MP2/aug-cc-pvtz', properties = ['dipole'])
--------------------------------------------------------------------------

    Molecular point group: c1
  Charge       = -2
  Multiplicity = 1
  Basis Set: AUG-CC-PVTZ
    Blend: AUG-CC-PVTZ
  Basis Set: (AUG-CC-PVTZ AUX)
    Blend: AUG-CC-PVTZ-JKFIT

    Orbital Energies [Eh]
    ---------------------

    Doubly Occupied:

       1A    -20.291903     2A    -20.230555     3A    -20.230394
       4A    -20.209038     5A    -20.208104     6A    -11.070462
       7A    -11.066576     8A    -11.051854     9A    -10.968044
      10A    -10.956698    11A     -1.140154    12A     -1.090428
      13A     -1.074445    14A     -0.999293    15A     -0.976121
      16A     -0.782399    17A     -0.654628    18A     -0.556064
      19A     -0.441800    20A     -0.422629    21A     -0.382499
      22A     -0.373518    23A     -0.364799    24A     -0.331408
      25A     -0.324325    26A     -0.305844    27A     -0.286292
      28A     -0.275347    29A     -0.251802    30A     -0.233290
      31A     -0.215269    32A     -0.208389    33A     -0.146909
      34A     -0.127728    35A     -0.125444    36A     -0.115886
      37A     -0.109707    38A     -0.094114

  @DF-RHF Final Energy:  -566.19300939648633

   => Energetics <=

    Nuclear Repulsion Energy =            479.4592203020582133
    One-Electron Energy =               -1753.9161418815021989
    Two-Electron Energy =                 708.2639121829577107
    Total Energy =                       -566.1930093964863318
  Basis Set: (AUG-CC-PVTZ AUX)
    Blend: AUG-CC-PVTZ-RI
    Molecular point group: c1

    Geometry (in Angstrom), charge = -2, multiplicity = 1:

       Center              X                  Y                   Z               Mass
    ------------   -----------------  -----------------  -----------------  -----------------
         O           -1.213979792107     1.731767395086    -0.221556576625    15.994914619570
         O            2.701752207893    -1.124755604914    -0.887721576625    15.994914619570
         O            3.722363207893     0.262549395086     0.610039423375    15.994914619570
         O           -3.268139792107    -0.300660604914    -0.898241576625    15.994914619570
         O           -2.575068792107    -0.916198604914     1.202644423375    15.994914619570
         C            0.138604207893    -0.250666604914     0.062646423375    12.000000000000
         C            1.393558207893     0.608198395086     0.148630423375    12.000000000000
         C           -1.199664292107     0.543264595086    -0.034092576625    12.000000000000
         C            2.730391207893    -0.171180604914    -0.051913576625    12.000000000000
         C           -2.475390792107    -0.324748604914     0.084721423375    12.000000000000
         H            0.043391207893    -0.923037604914     0.923372423375     1.007825032230
         H            0.235684207893    -0.912296604914    -0.809460576625     1.007825032230
         H            1.437625207893     1.142035395086     1.105139423375     1.007825032230
         H            1.335382207893     1.384486395086    -0.627204576625     1.007825032230

  Basis Set: AUG-CC-PVTZ
    Blend: AUG-CC-PVTZ
  Basis Set: (AUG-CC-PVTZ AUX)
    Blend: AUG-CC-PVTZ-JKFIT
	 Reference Energy          =    -566.1930093964863318 [Eh]
	 Singles Energy            =      -0.0000000000000000 [Eh]
	 Same-Spin Energy          =      -0.5572259576545042 [Eh]
	 Opposite-Spin Energy      =      -1.6338035310804755 [Eh]
	 Correlation Energy        =      -2.1910294887349799 [Eh]
	 Total Energy              =    -568.3840388852213437 [Eh]

	 ================> DF-SCS-MP2 Energies <==================
	-----------------------------------------------------------
	 SCS Same-Spin Scale       =       0.3333333333333333 [-]
	 SCS Opposite-Spin Scale   =       1.2000000000000000 [-]
	 SCS Same-Spin Energy      =      -0.1857419858848347 [Eh]
	 SCS Opposite-Spin Energy  =      -1.9605642372965706 [Eh]
	 SCS Correlation Energy    =      -2.1463062231814054 [Eh]
	 SCS Total Energy          =    -568.3393156196677865 [Eh]
	-----------------------------------------------------------

  Dipole Moment: [D]
     X:    -1.4552      Y:     2.2369      Z:     0.2676     Total:     2.6820

*** Psi4 exiting successfully. Buy a developer a beer!
