                               Psi4 1.4a3.dev225

  ==> Input File <==

--------------------------------------------------------------------------
#psi4
#
memory 32 gb

molecule  {
0 1
  O       -1.1540860    -0.8257380    -1.1262130
  O        2.2366104    -0.7587904    -0.7778399
  C        0.4122950     0.2355920     0.3463500
  C        0.8678900     1.5298080    -0.3436410
  C       -0.9920820    -0.1169500    -0.1343550
  C        1.3451220    -0.9372140     0.0454070
  C       -2.1564290     0.4678700     0.6381050
  C        2.1205030     2.1275510     0.2909850
  C        1.0642330    -2.2268080     0.7816390
  C       -3.4959710     0.2572470    -0.0522250
  H        0.3847180     0.3911920     1.4358330
  H        1.0510700     1.2964920    -1.3965080
  H        0.0539330     2.2643490    -0.3080990
  H       -1.9574920     1.5325250     0.8155200
  H       -2.1465810     0.0009680     1.6335740
  H        2.9579070     1.4317780     0.2172300
  H        2.4041530     3.0539960    -0.2168530
  H        1.9503170     2.3628610     1.3467280
  H       -3.6866900    -0.8062480    -0.2063170
  H       -3.5045250     0.7387230    -1.0324830
  H       -4.3076550     0.6763420     0.5479980
  H        0.9449730    -2.0486830     1.8550460
  H        1.8828740    -2.9264540     0.6079930
  H        0.1338470    -2.6618440     0.4039710
units angstrom
no_reorient  #important for SAPT in psi4, default
symmetry c1  #important for SAPT in psi4, default
}

set PROPERTIES_ORIGIN ["COM"]
properties('MP2/aug-cc-pvtz', properties = ['dipole'])
--------------------------------------------------------------------------

    Molecular point group: c1
  Charge       = 0
  Multiplicity = 1
  Basis Set: AUG-CC-PVTZ
    Blend: AUG-CC-PVTZ
  Basis Set: (AUG-CC-PVTZ AUX)
    Blend: AUG-CC-PVTZ-JKFIT

    Orbital Energies [Eh]
    ---------------------

    Doubly Occupied:

       1A    -20.556919     2A    -20.548922     3A    -11.344188
       4A    -11.338926     5A    -11.254900     6A    -11.251635
       7A    -11.240165     8A    -11.234935     9A    -11.225077
      10A    -11.215985    11A     -1.391669    12A     -1.379029
      13A     -1.104849    14A     -1.059367    15A     -1.024794
      16A     -0.969140    17A     -0.893512    18A     -0.835828
      19A     -0.767464    20A     -0.722350    21A     -0.682204
      22A     -0.674002    23A     -0.643776    24A     -0.626895
      25A     -0.622178    26A     -0.599230    27A     -0.592839
      28A     -0.566869    29A     -0.556440    30A     -0.537452
      31A     -0.534325    32A     -0.521818    33A     -0.508439
      34A     -0.506219    35A     -0.491669    36A     -0.482546
      37A     -0.480999    38A     -0.427414    39A     -0.405925

  @DF-RHF Final Energy:  -460.99044976583332

   => Energetics <=

    Nuclear Repulsion Energy =            551.9116770416255804
    One-Electron Energy =               -1722.1624727961868757
    Two-Electron Energy =                 709.2603459887279769
    Total Energy =                       -460.9904497658333185
  Basis Set: (AUG-CC-PVTZ AUX)
    Blend: AUG-CC-PVTZ-RI
    Molecular point group: c1

    Geometry (in Angstrom), charge = 0, multiplicity = 1:

       Center              X                  Y                   Z               Mass
    ------------   -----------------  -----------------  -----------------  -----------------
         O           -1.178241101020    -0.797928393221    -1.085116976447    15.994914619570
         O            2.212455298980    -0.730980793221    -0.736743876447    15.994914619570
         C            0.388139898980     0.263401606779     0.387446023553    12.000000000000
         C            0.843734898980     1.557617606779    -0.302544976447    12.000000000000
         C           -1.016237101020    -0.089140393221    -0.093258976447    12.000000000000
         C            1.320966898980    -0.909404393221     0.086503023553    12.000000000000
         C           -2.180584101020     0.495679606779     0.679201023553    12.000000000000
         C            2.096347898980     2.155360606779     0.332081023553    12.000000000000
         C            1.040077898980    -2.198998393221     0.822735023553    12.000000000000
         C           -3.520126101020     0.285056606779    -0.011128976447    12.000000000000
         H            0.360562898980     0.419001606779     1.476929023553     1.007825032230
         H            1.026914898980     1.324301606779    -1.355411976447     1.007825032230
         H            0.029777898980     2.292158606779    -0.267002976447     1.007825032230
         H           -1.981647101020     1.560334606779     0.856616023553     1.007825032230
         H           -2.170736101020     0.028777606779     1.674670023553     1.007825032230
         H            2.933751898980     1.459587606779     0.258326023553     1.007825032230
         H            2.379997898980     3.081805606779    -0.175756976447     1.007825032230
         H            1.926161898980     2.390670606779     1.387824023553     1.007825032230
         H           -3.710845101020    -0.778438393221    -0.165220976447     1.007825032230
         H           -3.528680101020     0.766532606779    -0.991386976447     1.007825032230
         H           -4.331810101020     0.704151606779     0.589094023553     1.007825032230
         H            0.920817898980    -2.020873393221     1.896142023553     1.007825032230
         H            1.858718898980    -2.898644393221     0.649089023553     1.007825032230
         H            0.109691898980    -2.634034393221     0.445067023553     1.007825032230

  Basis Set: AUG-CC-PVTZ
    Blend: AUG-CC-PVTZ
  Basis Set: (AUG-CC-PVTZ AUX)
    Blend: AUG-CC-PVTZ-JKFIT
	 Reference Energy          =    -460.9904497658333185 [Eh]
	 Singles Energy            =      -0.0000000000000000 [Eh]
	 Same-Spin Energy          =      -0.4690925272731251 [Eh]
	 Opposite-Spin Energy      =      -1.5689811823657731 [Eh]
	 Correlation Energy        =      -2.0380737096388981 [Eh]
	 Total Energy              =    -463.0285234754722410 [Eh]

	 ================> DF-SCS-MP2 Energies <==================
	-----------------------------------------------------------
	 SCS Same-Spin Scale       =       0.3333333333333333 [-]
	 SCS Opposite-Spin Scale   =       1.2000000000000000 [-]
	 SCS Same-Spin Energy      =      -0.1563641757577084 [Eh]
	 SCS Opposite-Spin Energy  =      -1.8827774188389277 [Eh]
	 SCS Correlation Energy    =      -2.0391415945966362 [Eh]
	 SCS Total Energy          =    -463.0295913604299471 [Eh]
	-----------------------------------------------------------

  Dipole Moment: [D]
     X:    -1.6882      Y:     1.1765      Z:     3.6229     Total:     4.1665

*** Psi4 exiting successfully. Buy a developer a beer!
