                               Psi4 1.4a3.dev225

  ==> Input File <==

--------------------------------------------------------------------------
#psi4
#
memory 32 gb

molecule  {
0 1
  O       -1.1540860    -0.8257380    -1.1262130
  O        2.2598080    -0.8403330    -0.7659410
  C        0.4122950     0.2355920     0.3463500
  C        0.8678900     1.5298080    -0.3436410
  C       -0.9920820    -0.1169500    -0.1343550
  C        1.3451220    -0.9372140     0.0454070
  C       -2.1564290     0.4678700     0.6381050
  C        2.1205030     2.1275510     0.2909850
  C        1.0642330    -2.2268080     0.7816390
  C       -3.4959710     0.2572470    -0.0522250
  H        0.3847180     0.3911920     1.4358330
  H        1.0510700     1.2964920    -1.3965080
  H        0.0539330     2.2643490    -0.3080990
  H       -1.9574920     1.5325250     0.8155200
  H       -2.1465810     0.0009680     1.6335740
  H        2.9579070     1.4317780     0.2172300
  H        2.4041530     3.0539960    -0.2168530
  H        1.9503170     2.3628610     1.3467280
  H       -3.6866900    -0.8062480    -0.2063170
  H       -3.5045250     0.7387230    -1.0324830
  H       -4.3076550     0.6763420     0.5479980
  H        0.9471521    -2.0519376     1.8354333
  H        1.8828740    -2.9264540     0.6079930
  H        0.1338470    -2.6618440     0.4039710
units angstrom
no_reorient  #important for SAPT in psi4, default
symmetry c1  #important for SAPT in psi4, default
}

set PROPERTIES_ORIGIN ["COM"]
properties('MP2/aug-cc-pvtz', properties = ['dipole'])
--------------------------------------------------------------------------

    Molecular point group: c1
  Charge       = 0
  Multiplicity = 1
  Basis Set: AUG-CC-PVTZ
    Blend: AUG-CC-PVTZ
  Basis Set: (AUG-CC-PVTZ AUX)
    Blend: AUG-CC-PVTZ-JKFIT

    Orbital Energies [Eh]
    ---------------------

    Doubly Occupied:

       1A    -20.558171     2A    -20.548587     3A    -11.345878
       4A    -11.338115     5A    -11.258575     6A    -11.252884
       7A    -11.237519     8A    -11.233200     9A    -11.225928
      10A    -11.218011    11A     -1.392305    12A     -1.378426
      13A     -1.107667    14A     -1.060731    15A     -1.023514
      16A     -0.970173    17A     -0.894825    18A     -0.837746
      19A     -0.768735    20A     -0.723662    21A     -0.683111
      22A     -0.673914    23A     -0.644338    24A     -0.625990
      25A     -0.623202    26A     -0.598987    27A     -0.594117
      28A     -0.568301    29A     -0.556812    30A     -0.537662
      31A     -0.535104    32A     -0.522734    33A     -0.510058
      34A     -0.507074    35A     -0.492300    36A     -0.484415
      37A     -0.482847    38A     -0.427155    39A     -0.407375

  @DF-RHF Final Energy:  -460.99217275116968

   => Energetics <=

    Nuclear Repulsion Energy =            551.1788119953929481
    One-Electron Energy =               -1720.6416753844391678
    Two-Electron Energy =                 708.4706906378764870
    Total Energy =                       -460.9921727511696190
  Basis Set: (AUG-CC-PVTZ AUX)
    Blend: AUG-CC-PVTZ-RI
    Molecular point group: c1

    Geometry (in Angstrom), charge = 0, multiplicity = 1:

       Center              X                  Y                   Z               Mass
    ------------   -----------------  -----------------  -----------------  -----------------
         O           -1.180867711943    -0.788726755641    -1.086317233056    15.994914619570
         O            2.233026288057    -0.803321755641    -0.726045233056    15.994914619570
         C            0.385513288057     0.272603244359     0.386245766944    12.000000000000
         C            0.841108288057     1.566819244359    -0.303745233056    12.000000000000
         C           -1.018863711943    -0.079938755641    -0.094459233056    12.000000000000
         C            1.318340288057    -0.900202755641     0.085302766944    12.000000000000
         C           -2.183210711943     0.504881244359     0.678000766944    12.000000000000
         C            2.093721288057     2.164562244359     0.330880766944    12.000000000000
         C            1.037451288057    -2.189796755641     0.821534766944    12.000000000000
         C           -3.522752711943     0.294258244359    -0.012329233056    12.000000000000
         H            0.357936288057     0.428203244359     1.475728766944     1.007825032230
         H            1.024288288057     1.333503244359    -1.356612233056     1.007825032230
         H            0.027151288057     2.301360244359    -0.268203233056     1.007825032230
         H           -1.984273711943     1.569536244359     0.855415766944     1.007825032230
         H           -2.173362711943     0.037979244359     1.673469766944     1.007825032230
         H            2.931125288057     1.468789244359     0.257125766944     1.007825032230
         H            2.377371288057     3.091007244359    -0.176957233056     1.007825032230
         H            1.923535288057     2.399872244359     1.386623766944     1.007825032230
         H           -3.713471711943    -0.769236755641    -0.166421233056     1.007825032230
         H           -3.531306711943     0.775734244359    -0.992587233056     1.007825032230
         H           -4.334436711943     0.713353244359     0.587893766944     1.007825032230
         H            0.920370388057    -2.014926355641     1.875329066944     1.007825032230
         H            1.856092288057    -2.889442755641     0.647888766944     1.007825032230
         H            0.107065288057    -2.624832755641     0.443866766944     1.007825032230

  Basis Set: AUG-CC-PVTZ
    Blend: AUG-CC-PVTZ
  Basis Set: (AUG-CC-PVTZ AUX)
    Blend: AUG-CC-PVTZ-JKFIT
	 Reference Energy          =    -460.9921727511696758 [Eh]
	 Singles Energy            =      -0.0000000000000000 [Eh]
	 Same-Spin Energy          =      -0.4688515507705716 [Eh]
	 Opposite-Spin Energy      =      -1.5685906684337509 [Eh]
	 Correlation Energy        =      -2.0374422192043227 [Eh]
	 Total Energy              =    -463.0296149703739843 [Eh]

	 ================> DF-SCS-MP2 Energies <==================
	-----------------------------------------------------------
	 SCS Same-Spin Scale       =       0.3333333333333333 [-]
	 SCS Opposite-Spin Scale   =       1.2000000000000000 [-]
	 SCS Same-Spin Energy      =      -0.1562838502568572 [Eh]
	 SCS Opposite-Spin Energy  =      -1.8823088021205010 [Eh]
	 SCS Correlation Energy    =      -2.0385926523773583 [Eh]
	 SCS Total Energy          =    -463.0307654035470364 [Eh]
	-----------------------------------------------------------

  Dipole Moment: [D]
     X:    -1.7753      Y:     1.4105      Z:     3.5972     Total:     4.2522

*** Psi4 exiting successfully. Buy a developer a beer!
