                               Psi4 1.4a3.dev225

  ==> Input File <==

--------------------------------------------------------------------------
#psi4
#
memory 32 gb

molecule  {
0 1
  O       -1.1540860    -0.8257380    -1.1262130
  O        2.2598080    -0.8403330    -0.7659410
  C        0.4122950     0.2355920     0.3463500
  C        0.8678900     1.5298080    -0.3436410
  C       -0.9920820    -0.1169500    -0.1343550
  C        1.3451220    -0.9372140     0.0454070
  C       -2.1564290     0.4678700     0.6381050
  C        2.1205030     2.1275510     0.2909850
  C        1.0642330    -2.2268080     0.7816390
  C       -3.4959710     0.2572470    -0.0522250
  H        0.3847180     0.3911920     1.4358330
  H        1.0786376     1.2723972    -1.3856800
  H        0.0539330     2.2643490    -0.3080990
  H       -1.9574920     1.5325250     0.8155200
  H       -2.1465810     0.0009680     1.6335740
  H        2.9579070     1.4317780     0.2172300
  H        2.4041530     3.0539960    -0.2168530
  H        1.9503170     2.3628610     1.3467280
  H       -3.6866900    -0.8062480    -0.2063170
  H       -3.5045250     0.7387230    -1.0324830
  H       -4.3076550     0.6763420     0.5479980
  H        0.9449730    -2.0486830     1.8550460
  H        1.8828740    -2.9264540     0.6079930
  H        0.1338470    -2.6618440     0.4039710
units angstrom
no_reorient  #important for SAPT in psi4, default
symmetry c1  #important for SAPT in psi4, default
}

set PROPERTIES_ORIGIN ["COM"]
properties('MP2/aug-cc-pvtz', properties = ['dipole'])
--------------------------------------------------------------------------

    Molecular point group: c1
  Charge       = 0
  Multiplicity = 1
  Basis Set: AUG-CC-PVTZ
    Blend: AUG-CC-PVTZ
  Basis Set: (AUG-CC-PVTZ AUX)
    Blend: AUG-CC-PVTZ-JKFIT

    Orbital Energies [Eh]
    ---------------------

    Doubly Occupied:

       1A    -20.558165     2A    -20.549001     3A    -11.345856
       4A    -11.338513     5A    -11.258342     6A    -11.252904
       7A    -11.237333     8A    -11.235742     9A    -11.225924
      10A    -11.217773    11A     -1.392370    12A     -1.378822
      13A     -1.107718    14A     -1.060756    15A     -1.022608
      16A     -0.969627    17A     -0.894791    18A     -0.836839
      19A     -0.768752    20A     -0.723212    21A     -0.683217
      22A     -0.674207    23A     -0.644186    24A     -0.625988
      25A     -0.623241    26A     -0.599847    27A     -0.591875
      28A     -0.568233    29A     -0.556492    30A     -0.537624
      31A     -0.534938    32A     -0.522697    33A     -0.509357
      34A     -0.507463    35A     -0.492003    36A     -0.484390
      37A     -0.482529    38A     -0.427273    39A     -0.407596

  @DF-RHF Final Energy:  -460.99193011829738

   => Energetics <=

    Nuclear Repulsion Energy =            551.1412310119399081
    One-Electron Energy =               -1720.5699147420441477
    Two-Electron Energy =                 708.4367536118069211
    Total Energy =                       -460.9919301182973186
  Basis Set: (AUG-CC-PVTZ AUX)
    Blend: AUG-CC-PVTZ-RI
    Molecular point group: c1

    Geometry (in Angstrom), charge = 0, multiplicity = 1:

       Center              X                  Y                   Z               Mass
    ------------   -----------------  -----------------  -----------------  -----------------
         O           -1.181047777232    -0.788578948696    -1.086533130546    15.994914619570
         O            2.232846222768    -0.803173948696    -0.726261130546    15.994914619570
         C            0.385333222768     0.272751051304     0.386029869454    12.000000000000
         C            0.840928222768     1.566967051304    -0.303961130546    12.000000000000
         C           -1.019043777232    -0.079790948696    -0.094675130546    12.000000000000
         C            1.318160222768    -0.900054948696     0.085086869454    12.000000000000
         C           -2.183390777232     0.505029051304     0.677784869454    12.000000000000
         C            2.093541222768     2.164710051304     0.330664869454    12.000000000000
         C            1.037271222768    -2.189648948696     0.821318869454    12.000000000000
         C           -3.522932777232     0.294406051304    -0.012545130546    12.000000000000
         H            0.357756222768     0.428351051304     1.475512869454     1.007825032230
         H            1.051675822768     1.309556251304    -1.346000130546     1.007825032230
         H            0.026971222768     2.301508051304    -0.268419130546     1.007825032230
         H           -1.984453777232     1.569684051304     0.855199869454     1.007825032230
         H           -2.173542777232     0.038127051304     1.673253869454     1.007825032230
         H            2.930945222768     1.468937051304     0.256909869454     1.007825032230
         H            2.377191222768     3.091155051304    -0.177173130546     1.007825032230
         H            1.923355222768     2.400020051304     1.386407869454     1.007825032230
         H           -3.713651777232    -0.769088948696    -0.166637130546     1.007825032230
         H           -3.531486777232     0.775882051304    -0.992803130546     1.007825032230
         H           -4.334616777232     0.713501051304     0.587677869454     1.007825032230
         H            0.918011222768    -2.011523948696     1.894725869454     1.007825032230
         H            1.855912222768    -2.889294948696     0.647672869454     1.007825032230
         H            0.106885222768    -2.624684948696     0.443650869454     1.007825032230

  Basis Set: AUG-CC-PVTZ
    Blend: AUG-CC-PVTZ
  Basis Set: (AUG-CC-PVTZ AUX)
    Blend: AUG-CC-PVTZ-JKFIT
	 Reference Energy          =    -460.9919301182973754 [Eh]
	 Singles Energy            =      -0.0000000000000000 [Eh]
	 Same-Spin Energy          =      -0.4688996787628087 [Eh]
	 Opposite-Spin Energy      =      -1.5687701031946566 [Eh]
	 Correlation Energy        =      -2.0376697819574652 [Eh]
	 Total Energy              =    -463.0295999002548228 [Eh]

	 ================> DF-SCS-MP2 Energies <==================
	-----------------------------------------------------------
	 SCS Same-Spin Scale       =       0.3333333333333333 [-]
	 SCS Opposite-Spin Scale   =       1.2000000000000000 [-]
	 SCS Same-Spin Energy      =      -0.1562998929209362 [Eh]
	 SCS Opposite-Spin Energy  =      -1.8825241238335879 [Eh]
	 SCS Correlation Energy    =      -2.0388240167545240 [Eh]
	 SCS Total Energy          =    -463.0307541350518932 [Eh]
	-----------------------------------------------------------

  Dipole Moment: [D]
     X:    -1.7665      Y:     1.3971      Z:     3.5943     Total:     4.2416

*** Psi4 exiting successfully. Buy a developer a beer!
