                               Psi4 1.4a3.dev225

  ==> Input File <==

--------------------------------------------------------------------------
#psi4
#
memory 32 gb

molecule  {
0 1
  O       -1.1540860    -0.8257380    -1.1262130
  O        2.2598080    -0.8403330    -0.7659410
  C        0.4122950     0.2355920     0.3463500
  C        0.8678900     1.5298080    -0.3436410
  C       -0.9920820    -0.1169500    -0.1343550
  C        1.3451220    -0.9372140     0.0454070
  C       -2.1564290     0.4678700     0.6381050
  C        2.1205030     2.1275510     0.2909850
  C        1.0642330    -2.2268080     0.7816390
  C       -3.4959710     0.2572470    -0.0522250
  H        0.3847180     0.3911920     1.4358330
  H        1.0372004     1.3086478    -1.4014417
  H        0.0539330     2.2643490    -0.3080990
  H       -1.9574920     1.5325250     0.8155200
  H       -2.1465810     0.0009680     1.6335740
  H        2.9579070     1.4317780     0.2172300
  H        2.4041530     3.0539960    -0.2168530
  H        1.9503170     2.3628610     1.3467280
  H       -3.6866900    -0.8062480    -0.2063170
  H       -3.5045250     0.7387230    -1.0324830
  H       -4.3076550     0.6763420     0.5479980
  H        0.9449730    -2.0486830     1.8550460
  H        1.8828740    -2.9264540     0.6079930
  H        0.1338470    -2.6618440     0.4039710
units angstrom
no_reorient  #important for SAPT in psi4, default
symmetry c1  #important for SAPT in psi4, default
}

set PROPERTIES_ORIGIN ["COM"]
properties('MP2/aug-cc-pvtz', properties = ['dipole'])
--------------------------------------------------------------------------

    Molecular point group: c1
  Charge       = 0
  Multiplicity = 1
  Basis Set: AUG-CC-PVTZ
    Blend: AUG-CC-PVTZ
  Basis Set: (AUG-CC-PVTZ AUX)
    Blend: AUG-CC-PVTZ-JKFIT

    Orbital Energies [Eh]
    ---------------------

    Doubly Occupied:

       1A    -20.558192     2A    -20.548675     3A    -11.345902
       4A    -11.338231     5A    -11.258671     6A    -11.252853
       7A    -11.237601     8A    -11.235608     9A    -11.225920
      10A    -11.218136    11A     -1.392331    12A     -1.378463
      13A     -1.107578    14A     -1.060678    15A     -1.022446
      16A     -0.969630    17A     -0.894749    18A     -0.837998
      19A     -0.768588    20A     -0.723469    21A     -0.683107
      22A     -0.672930    23A     -0.644366    24A     -0.626119
      25A     -0.623154    26A     -0.598776    27A     -0.591743
      28A     -0.568092    29A     -0.556525    30A     -0.537715
      31A     -0.534900    32A     -0.522630    33A     -0.510469
      34A     -0.506676    35A     -0.492315    36A     -0.484415
      37A     -0.482813    38A     -0.427182    39A     -0.407402

  @DF-RHF Final Energy:  -460.99215273459288

   => Energetics <=

    Nuclear Repulsion Energy =            551.0648453645244444
    One-Electron Energy =               -1720.4199006575111071
    Two-Electron Energy =                 708.3629025583937846
    Total Energy =                       -460.9921527345928780
  Basis Set: (AUG-CC-PVTZ AUX)
    Blend: AUG-CC-PVTZ-RI
    Molecular point group: c1

    Geometry (in Angstrom), charge = 0, multiplicity = 1:

       Center              X                  Y                   Z               Mass
    ------------   -----------------  -----------------  -----------------  -----------------
         O           -1.180753888212    -0.788836052296    -1.086421342333    15.994914619570
         O            2.233140111788    -0.803431052296    -0.726149342333    15.994914619570
         C            0.385627111788     0.272493947704     0.386141657667    12.000000000000
         C            0.841222111788     1.566709947704    -0.303849342333    12.000000000000
         C           -1.018749888212    -0.080048052296    -0.094563342333    12.000000000000
         C            1.318454111788    -0.900312052296     0.085198657667    12.000000000000
         C           -2.183096888212     0.504771947704     0.677896657667    12.000000000000
         C            2.093835111788     2.164452947704     0.330776657667    12.000000000000
         C            1.037565111788    -2.189906052296     0.821430657667    12.000000000000
         C           -3.522638888212     0.294148947704    -0.012433342333    12.000000000000
         H            0.358050111788     0.428093947704     1.475624657667     1.007825032230
         H            1.010532511788     1.345549747704    -1.361650042333     1.007825032230
         H            0.027265111788     2.301250947704    -0.268307342333     1.007825032230
         H           -1.984159888212     1.569426947704     0.855311657667     1.007825032230
         H           -2.173248888212     0.037869947704     1.673365657667     1.007825032230
         H            2.931239111788     1.468679947704     0.257021657667     1.007825032230
         H            2.377485111788     3.090897947704    -0.177061342333     1.007825032230
         H            1.923649111788     2.399762947704     1.386519657667     1.007825032230
         H           -3.713357888212    -0.769346052296    -0.166525342333     1.007825032230
         H           -3.531192888212     0.775624947704    -0.992691342333     1.007825032230
         H           -4.334322888212     0.713243947704     0.587789657667     1.007825032230
         H            0.918305111788    -2.011781052296     1.894837657667     1.007825032230
         H            1.856206111788    -2.889552052296     0.647784657667     1.007825032230
         H            0.107179111788    -2.624942052296     0.443762657667     1.007825032230

  Basis Set: AUG-CC-PVTZ
    Blend: AUG-CC-PVTZ
  Basis Set: (AUG-CC-PVTZ AUX)
    Blend: AUG-CC-PVTZ-JKFIT
	 Reference Energy          =    -460.9921527345928780 [Eh]
	 Singles Energy            =      -0.0000000000000000 [Eh]
	 Same-Spin Energy          =      -0.4688259846167880 [Eh]
	 Opposite-Spin Energy      =      -1.5686711315674922 [Eh]
	 Correlation Energy        =      -2.0374971161842801 [Eh]
	 Total Energy              =    -463.0296498507771616 [Eh]

	 ================> DF-SCS-MP2 Energies <==================
	-----------------------------------------------------------
	 SCS Same-Spin Scale       =       0.3333333333333333 [-]
	 SCS Opposite-Spin Scale   =       1.2000000000000000 [-]
	 SCS Same-Spin Energy      =      -0.1562753282055960 [Eh]
	 SCS Opposite-Spin Energy  =      -1.8824053578809905 [Eh]
	 SCS Correlation Energy    =      -2.0386806860865865 [Eh]
	 SCS Total Energy          =    -463.0308334206794711 [Eh]
	-----------------------------------------------------------

  Dipole Moment: [D]
     X:    -1.7768      Y:     1.4165      Z:     3.5887     Total:     4.2477

*** Psi4 exiting successfully. Buy a developer a beer!
