                               Psi4 1.4a3.dev225

  ==> Input File <==

--------------------------------------------------------------------------
#psi4
#
memory 32 gb

molecule  {
0 1
  O       -1.1540860    -0.8257380    -1.1262130
  O        2.2598080    -0.8403330    -0.7659410
  C        0.4122950     0.2355920     0.3463500
  C        0.8678900     1.5298080    -0.3436410
  C       -0.9920820    -0.1169500    -0.1343550
  C        1.3451220    -0.9372140     0.0454070
  C       -2.1564290     0.4678700     0.6381050
  C        2.1205030     2.1275510     0.2909850
  C        1.0642330    -2.2268080     0.7816390
  C       -3.4959710     0.2572470    -0.0522250
  H        0.3847180     0.3911920     1.4358330
  H        1.0510700     1.2964920    -1.3965080
  H        0.0539330     2.2643490    -0.3080990
  H       -1.9574920     1.5325250     0.8155200
  H       -2.1465810     0.0009680     1.6335740
  H        2.9579070     1.4317780     0.2172300
  H        2.4041530     3.0539960    -0.2168530
  H        1.9503170     2.3628610     1.3467280
  H       -3.6866900    -0.8062480    -0.2063170
  H       -3.5045250     0.7387230    -1.0324830
  H       -4.3076550     0.6763420     0.5479980
  H        0.9340777    -2.0324100     1.9531097
  H        1.8828740    -2.9264540     0.6079930
  H        0.1338470    -2.6618440     0.4039710
units angstrom
no_reorient  #important for SAPT in psi4, default
symmetry c1  #important for SAPT in psi4, default
}

set PROPERTIES_ORIGIN ["COM"]
properties('MP2/aug-cc-pvtz', properties = ['dipole'])
--------------------------------------------------------------------------

    Molecular point group: c1
  Charge       = 0
  Multiplicity = 1
  Basis Set: AUG-CC-PVTZ
    Blend: AUG-CC-PVTZ
  Basis Set: (AUG-CC-PVTZ AUX)
    Blend: AUG-CC-PVTZ-JKFIT

    Orbital Energies [Eh]
    ---------------------

    Doubly Occupied:

       1A    -20.558269     2A    -20.549905     3A    -11.345955
       4A    -11.339513     5A    -11.258517     6A    -11.252800
       7A    -11.247488     8A    -11.237525     9A    -11.225890
      10A    -11.218047    11A     -1.392586    12A     -1.379457
      13A     -1.107475    14A     -1.060607    15A     -1.018719
      16A     -0.967304    17A     -0.894514    18A     -0.837079
      19A     -0.768361    20A     -0.722391    21A     -0.683304
      22A     -0.671286    23A     -0.644251    24A     -0.626589
      25A     -0.623216    26A     -0.599974    27A     -0.582189
      28A     -0.567109    29A     -0.553980    30A     -0.537855
      31A     -0.533513    32A     -0.522059    33A     -0.510026
      34A     -0.505808    35A     -0.491949    36A     -0.483666
      37A     -0.483006    38A     -0.427564    39A     -0.407993

  @DF-RHF Final Energy:  -460.98567362679648

   => Energetics <=

    Nuclear Repulsion Energy =            550.6729508053879272
    One-Electron Energy =               -1719.6417724626110157
    Two-Electron Energy =                 707.9831480304266051
    Total Energy =                       -460.9856736267964834
  Basis Set: (AUG-CC-PVTZ AUX)
    Blend: AUG-CC-PVTZ-RI
    Molecular point group: c1

    Geometry (in Angstrom), charge = 0, multiplicity = 1:

       Center              X                  Y                   Z               Mass
    ------------   -----------------  -----------------  -----------------  -----------------
         O           -1.180774983125    -0.788865253108    -1.087151840651    15.994914619570
         O            2.233119016875    -0.803460253108    -0.726879840651    15.994914619570
         C            0.385606016875     0.272464746892     0.385411159349    12.000000000000
         C            0.841201016875     1.566680746892    -0.304579840651    12.000000000000
         C           -1.018770983125    -0.080077253108    -0.095293840651    12.000000000000
         C            1.318433016875    -0.900341253108     0.084468159349    12.000000000000
         C           -2.183117983125     0.504742746892     0.677166159349    12.000000000000
         C            2.093814016875     2.164423746892     0.330046159349    12.000000000000
         C            1.037544016875    -2.189935253108     0.820700159349    12.000000000000
         C           -3.522659983125     0.294119746892    -0.013163840651    12.000000000000
         H            0.358029016875     0.428064746892     1.474894159349     1.007825032230
         H            1.024381016875     1.333364746892    -1.357446840651     1.007825032230
         H            0.027244016875     2.301221746892    -0.269037840651     1.007825032230
         H           -1.984180983125     1.569397746892     0.854581159349     1.007825032230
         H           -2.173269983125     0.037840746892     1.672635159349     1.007825032230
         H            2.931218016875     1.468650746892     0.256291159349     1.007825032230
         H            2.377464016875     3.090868746892    -0.177791840651     1.007825032230
         H            1.923628016875     2.399733746892     1.385789159349     1.007825032230
         H           -3.713378983125    -0.769375253108    -0.167255840651     1.007825032230
         H           -3.531213983125     0.775595746892    -0.993421840651     1.007825032230
         H           -4.334343983125     0.713214746892     0.587059159349     1.007825032230
         H            0.907388716875    -1.995537253108     1.992170859349     1.007825032230
         H            1.856185016875    -2.889581253108     0.647054159349     1.007825032230
         H            0.107158016875    -2.624971253108     0.443032159349     1.007825032230

  Basis Set: AUG-CC-PVTZ
    Blend: AUG-CC-PVTZ
  Basis Set: (AUG-CC-PVTZ AUX)
    Blend: AUG-CC-PVTZ-JKFIT
	 Reference Energy          =    -460.9856736267964834 [Eh]
	 Singles Energy            =      -0.0000000000000000 [Eh]
	 Same-Spin Energy          =      -0.4688311430216558 [Eh]
	 Opposite-Spin Energy      =      -1.5693665580455647 [Eh]
	 Correlation Energy        =      -2.0381977010672205 [Eh]
	 Total Energy              =    -463.0238713278637306 [Eh]

	 ================> DF-SCS-MP2 Energies <==================
	-----------------------------------------------------------
	 SCS Same-Spin Scale       =       0.3333333333333333 [-]
	 SCS Opposite-Spin Scale   =       1.2000000000000000 [-]
	 SCS Same-Spin Energy      =      -0.1562770476738853 [Eh]
	 SCS Opposite-Spin Energy  =      -1.8832398696546775 [Eh]
	 SCS Correlation Energy    =      -2.0395169173285628 [Eh]
	 SCS Total Energy          =    -463.0251905441250528 [Eh]
	-----------------------------------------------------------

  Dipole Moment: [D]
     X:    -1.7625      Y:     1.4094      Z:     3.5498     Total:     4.2064

*** Psi4 exiting successfully. Buy a developer a beer!
