                               Psi4 1.4a3.dev225

  ==> Input File <==

--------------------------------------------------------------------------
#psi4
#
memory 32 gb

molecule  {
0 1
  O       -1.1540860    -0.8257380    -1.1262130
  O        2.2598080    -0.8403330    -0.7659410
  C        0.4122950     0.2355920     0.3463500
  C        0.8678900     1.5298080    -0.3436410
  C       -0.9920820    -0.1169500    -0.1343550
  C        1.3451220    -0.9372140     0.0454070
  C       -2.1564290     0.4678700     0.6381050
  C        2.1205030     2.1275510     0.2909850
  C        1.0642330    -2.2268080     0.7816390
  C       -3.4959710     0.2572470    -0.0522250
  H        0.3847180     0.3911920     1.4358330
  H        1.0510700     1.2964920    -1.3965080
  H        0.0539330     2.2643490    -0.3080990
  H       -1.9574920     1.5325250     0.8155200
  H       -2.1465810     0.0009680     1.6335740
  H        2.9579070     1.4317780     0.2172300
  H        2.4041530     3.0539960    -0.2168530
  H        1.9503170     2.3628610     1.3467280
  H       -3.6866900    -0.8062480    -0.2063170
  H       -3.5045250     0.7387230    -1.0324830
  H       -4.3076550     0.6763420     0.5479980
  H        0.9304907    -2.0368018     1.8512953
  H        1.8828740    -2.9264540     0.6079930
  H        0.1338470    -2.6618440     0.4039710
units angstrom
no_reorient  #important for SAPT in psi4, default
symmetry c1  #important for SAPT in psi4, default
}

set PROPERTIES_ORIGIN ["COM"]
properties('MP2/aug-cc-pvtz', properties = ['dipole'])
--------------------------------------------------------------------------

    Molecular point group: c1
  Charge       = 0
  Multiplicity = 1
  Basis Set: AUG-CC-PVTZ
    Blend: AUG-CC-PVTZ
  Basis Set: (AUG-CC-PVTZ AUX)
    Blend: AUG-CC-PVTZ-JKFIT

    Orbital Energies [Eh]
    ---------------------

    Doubly Occupied:

       1A    -20.558196     2A    -20.548636     3A    -11.345899
       4A    -11.338179     5A    -11.258585     6A    -11.252903
       7A    -11.237527     8A    -11.235755     9A    -11.225944
      10A    -11.218010    11A     -1.392338    12A     -1.378497
      13A     -1.107660    14A     -1.060733    15A     -1.022661
      16A     -0.969626    17A     -0.894768    18A     -0.837547
      19A     -0.768586    20A     -0.723307    21A     -0.683150
      22A     -0.673345    23A     -0.644240    24A     -0.626240
      25A     -0.623178    26A     -0.599113    27A     -0.591355
      28A     -0.568128    29A     -0.557165    30A     -0.537911
      31A     -0.535017    32A     -0.522635    33A     -0.510053
      34A     -0.506984    35A     -0.492179    36A     -0.484164
      37A     -0.482886    38A     -0.427172    39A     -0.407377

  @DF-RHF Final Energy:  -460.99211762307334

   => Energetics <=

    Nuclear Repulsion Energy =            551.1222792547432618
    One-Electron Energy =               -1720.5334982603469598
    Two-Electron Energy =                 708.4191013825303571
    Total Energy =                       -460.9921176230733408
  Basis Set: (AUG-CC-PVTZ AUX)
    Blend: AUG-CC-PVTZ-RI
    Molecular point group: c1

    Geometry (in Angstrom), charge = 0, multiplicity = 1:

       Center              X                  Y                   Z               Mass
    ------------   -----------------  -----------------  -----------------  -----------------
         O           -1.180749542701    -0.788834104724    -1.086429732637    15.994914619570
         O            2.233144457299    -0.803429104724    -0.726157732637    15.994914619570
         C            0.385631457299     0.272495895276     0.386133267363    12.000000000000
         C            0.841226457299     1.566711895276    -0.303857732637    12.000000000000
         C           -1.018745542701    -0.080046104724    -0.094571732637    12.000000000000
         C            1.318458457299    -0.900310104724     0.085190267363    12.000000000000
         C           -2.183092542701     0.504773895276     0.677888267363    12.000000000000
         C            2.093839457299     2.164454895276     0.330768267363    12.000000000000
         C            1.037569457299    -2.189904104724     0.821422267363    12.000000000000
         C           -3.522634542701     0.294150895276    -0.012441732637    12.000000000000
         H            0.358054457299     0.428095895276     1.475616267363     1.007825032230
         H            1.024406457299     1.333395895276    -1.356724732637     1.007825032230
         H            0.027269457299     2.301252895276    -0.268315732637     1.007825032230
         H           -1.984155542701     1.569428895276     0.855303267363     1.007825032230
         H           -2.173244542701     0.037871895276     1.673357267363     1.007825032230
         H            2.931243457299     1.468681895276     0.257013267363     1.007825032230
         H            2.377489457299     3.090899895276    -0.177069732637     1.007825032230
         H            1.923653457299     2.399764895276     1.386511267363     1.007825032230
         H           -3.713353542701    -0.769344104724    -0.166533732637     1.007825032230
         H           -3.531188542701     0.775626895276    -0.992699732637     1.007825032230
         H           -4.334318542701     0.713245895276     0.587781267363     1.007825032230
         H            0.903827157299    -1.999897904724     1.891078567363     1.007825032230
         H            1.856210457299    -2.889550104724     0.647776267363     1.007825032230
         H            0.107183457299    -2.624940104724     0.443754267363     1.007825032230

  Basis Set: AUG-CC-PVTZ
    Blend: AUG-CC-PVTZ
  Basis Set: (AUG-CC-PVTZ AUX)
    Blend: AUG-CC-PVTZ-JKFIT
	 Reference Energy          =    -460.9921176230733408 [Eh]
	 Singles Energy            =      -0.0000000000000000 [Eh]
	 Same-Spin Energy          =      -0.4688619387136461 [Eh]
	 Opposite-Spin Energy      =      -1.5687143764215143 [Eh]
	 Correlation Energy        =      -2.0375763151351602 [Eh]
	 Total Energy              =    -463.0296939382084815 [Eh]

	 ================> DF-SCS-MP2 Energies <==================
	-----------------------------------------------------------
	 SCS Same-Spin Scale       =       0.3333333333333333 [-]
	 SCS Opposite-Spin Scale   =       1.2000000000000000 [-]
	 SCS Same-Spin Energy      =      -0.1562873129045487 [Eh]
	 SCS Opposite-Spin Energy  =      -1.8824572517058171 [Eh]
	 SCS Correlation Energy    =      -2.0387445646103659 [Eh]
	 SCS Total Energy          =    -463.0308621876836810 [Eh]
	-----------------------------------------------------------

  Dipole Moment: [D]
     X:    -1.7799      Y:     1.4108      Z:     3.5870     Total:     4.2456

*** Psi4 exiting successfully. Buy a developer a beer!
