                               Psi4 1.4a3.dev225

  ==> Input File <==

--------------------------------------------------------------------------
#psi4
#
memory 32 gb

molecule  {
0 1
  O       -1.1540860    -0.8257380    -1.1262130
  O        2.2598080    -0.8403330    -0.7659410
  C        0.4122950     0.2355920     0.3463500
  C        0.8678900     1.5298080    -0.3436410
  C       -1.0981230    -0.1636085    -0.2425971
  C        1.3451220    -0.9372140     0.0454070
  C       -2.1564290     0.4678700     0.6381050
  C        2.1205030     2.1275510     0.2909850
  C        1.0642330    -2.2268080     0.7816390
  C       -3.4959710     0.2572470    -0.0522250
  H        0.3847180     0.3911920     1.4358330
  H        1.0510700     1.2964920    -1.3965080
  H        0.0539330     2.2643490    -0.3080990
  H       -1.9574920     1.5325250     0.8155200
  H       -2.1465810     0.0009680     1.6335740
  H        2.9579070     1.4317780     0.2172300
  H        2.4041530     3.0539960    -0.2168530
  H        1.9503170     2.3628610     1.3467280
  H       -3.6866900    -0.8062480    -0.2063170
  H       -3.5045250     0.7387230    -1.0324830
  H       -4.3076550     0.6763420     0.5479980
  H        0.9449730    -2.0486830     1.8550460
  H        1.8828740    -2.9264540     0.6079930
  H        0.1338470    -2.6618440     0.4039710
units angstrom
no_reorient  #important for SAPT in psi4, default
symmetry c1  #important for SAPT in psi4, default
}

set PROPERTIES_ORIGIN ["COM"]
properties('MP2/aug-cc-pvtz', properties = ['dipole'])
--------------------------------------------------------------------------

    Molecular point group: c1
  Charge       = 0
  Multiplicity = 1
  Basis Set: AUG-CC-PVTZ
    Blend: AUG-CC-PVTZ
  Basis Set: (AUG-CC-PVTZ AUX)
    Blend: AUG-CC-PVTZ-JKFIT

    Orbital Energies [Eh]
    ---------------------

    Doubly Occupied:

       1A    -20.573323     2A    -20.541446     3A    -11.340791
       4A    -11.329231     5A    -11.253048     6A    -11.244003
       7A    -11.232361     8A    -11.228008     9A    -11.227258
      10A    -11.210794    11A     -1.487653    12A     -1.373465
      13A     -1.089673    14A     -1.062951    15A     -1.015790
      16A     -0.951393    17A     -0.890843    18A     -0.827231
      19A     -0.761381    20A     -0.723314    21A     -0.701590
      22A     -0.669314    23A     -0.654893    24A     -0.652157
      25A     -0.620494    26A     -0.596342    27A     -0.586782
      28A     -0.577192    29A     -0.557056    30A     -0.550084
      31A     -0.540382    32A     -0.530606    33A     -0.516280
      34A     -0.511725    35A     -0.496575    36A     -0.479247
      37A     -0.478483    38A     -0.413567    39A     -0.376600

  @DF-RHF Final Energy:  -460.96935445201791

   => Energetics <=

    Nuclear Repulsion Energy =            551.3489772379575697
    One-Electron Energy =               -1720.8900086291268963
    Two-Electron Energy =                 708.5716769391514163
    Total Energy =                       -460.9693544520179103
  Basis Set: (AUG-CC-PVTZ AUX)
    Blend: AUG-CC-PVTZ-RI
    Molecular point group: c1

    Geometry (in Angstrom), charge = 0, multiplicity = 1:

       Center              X                  Y                   Z               Mass
    ------------   -----------------  -----------------  -----------------  -----------------
         O           -1.171897312816    -0.784809624308    -1.077315511635    15.994914619570
         O            2.241996687184    -0.799404624308    -0.717043511635    15.994914619570
         C            0.394483687184     0.276520375692     0.395247488365    12.000000000000
         C            0.850078687184     1.570736375692    -0.294743511635    12.000000000000
         C           -1.115934312816    -0.122680124308    -0.193699611635    12.000000000000
         C            1.327310687184    -0.896285624308     0.094304488365    12.000000000000
         C           -2.174240312816     0.508798375692     0.687002488365    12.000000000000
         C            2.102691687184     2.168479375692     0.339882488365    12.000000000000
         C            1.046421687184    -2.185879624308     0.830536488365    12.000000000000
         C           -3.513782312816     0.298175375692    -0.003327511635    12.000000000000
         H            0.366906687184     0.432120375692     1.484730488365     1.007825032230
         H            1.033258687184     1.337420375692    -1.347610511635     1.007825032230
         H            0.036121687184     2.305277375692    -0.259201511635     1.007825032230
         H           -1.975303312816     1.573453375692     0.864417488365     1.007825032230
         H           -2.164392312816     0.041896375692     1.682471488365     1.007825032230
         H            2.940095687184     1.472706375692     0.266127488365     1.007825032230
         H            2.386341687184     3.094924375692    -0.167955511635     1.007825032230
         H            1.932505687184     2.403789375692     1.395625488365     1.007825032230
         H           -3.704501312816    -0.765319624308    -0.157419511635     1.007825032230
         H           -3.522336312816     0.779651375692    -0.983585511635     1.007825032230
         H           -4.325466312816     0.717270375692     0.596895488365     1.007825032230
         H            0.927161687184    -2.007754624308     1.903943488365     1.007825032230
         H            1.865062687184    -2.885525624308     0.656890488365     1.007825032230
         H            0.116035687184    -2.620915624308     0.452868488365     1.007825032230

  Basis Set: AUG-CC-PVTZ
    Blend: AUG-CC-PVTZ
  Basis Set: (AUG-CC-PVTZ AUX)
    Blend: AUG-CC-PVTZ-JKFIT
	 Reference Energy          =    -460.9693544520179103 [Eh]
	 Singles Energy            =      -0.0000000000000000 [Eh]
	 Same-Spin Energy          =      -0.4662635767297048 [Eh]
	 Opposite-Spin Energy      =      -1.5627767915333699 [Eh]
	 Correlation Energy        =      -2.0290403682630749 [Eh]
	 Total Energy              =    -462.9983948202809643 [Eh]

	 ================> DF-SCS-MP2 Energies <==================
	-----------------------------------------------------------
	 SCS Same-Spin Scale       =       0.3333333333333333 [-]
	 SCS Opposite-Spin Scale   =       1.2000000000000000 [-]
	 SCS Same-Spin Energy      =      -0.1554211922432349 [Eh]
	 SCS Opposite-Spin Energy  =      -1.8753321498400437 [Eh]
	 SCS Correlation Energy    =      -2.0307533420832788 [Eh]
	 SCS Total Energy          =    -463.0001077941012113 [Eh]
	-----------------------------------------------------------

  Dipole Moment: [D]
     X:    -2.6171      Y:     1.0939      Z:     3.1903     Total:     4.2689

*** Psi4 exiting successfully. Buy a developer a beer!
