                               Psi4 1.4a3.dev225

  ==> Input File <==

--------------------------------------------------------------------------
#psi4
#
memory 32 gb

molecule  {
0 1
  O       -1.1540860    -0.8257380    -1.1262130
  O        2.2598080    -0.8403330    -0.7659410
  C        0.4122950     0.2355920     0.3463500
  C        0.8678900     1.5298080    -0.3436410
  C       -1.0381072    -0.1285038    -0.1501090
  C        1.3451220    -0.9372140     0.0454070
  C       -2.1564290     0.4678700     0.6381050
  C        2.1205030     2.1275510     0.2909850
  C        1.0642330    -2.2268080     0.7816390
  C       -3.4959710     0.2572470    -0.0522250
  H        0.3847180     0.3911920     1.4358330
  H        1.0510700     1.2964920    -1.3965080
  H        0.0539330     2.2643490    -0.3080990
  H       -1.9574920     1.5325250     0.8155200
  H       -2.1465810     0.0009680     1.6335740
  H        2.9579070     1.4317780     0.2172300
  H        2.4041530     3.0539960    -0.2168530
  H        1.9503170     2.3628610     1.3467280
  H       -3.6866900    -0.8062480    -0.2063170
  H       -3.5045250     0.7387230    -1.0324830
  H       -4.3076550     0.6763420     0.5479980
  H        0.9449730    -2.0486830     1.8550460
  H        1.8828740    -2.9264540     0.6079930
  H        0.1338470    -2.6618440     0.4039710
units angstrom
no_reorient  #important for SAPT in psi4, default
symmetry c1  #important for SAPT in psi4, default
}

set PROPERTIES_ORIGIN ["COM"]
properties('MP2/aug-cc-pvtz', properties = ['dipole'])
--------------------------------------------------------------------------

    Molecular point group: c1
  Charge       = 0
  Multiplicity = 1
  Basis Set: AUG-CC-PVTZ
    Blend: AUG-CC-PVTZ
  Basis Set: (AUG-CC-PVTZ AUX)
    Blend: AUG-CC-PVTZ-JKFIT

    Orbital Energies [Eh]
    ---------------------

    Doubly Occupied:

       1A    -20.561148     2A    -20.546682     3A    -11.344882
       4A    -11.335748     5A    -11.256134     6A    -11.253100
       7A    -11.234435     8A    -11.234316     9A    -11.227208
      10A    -11.215926    11A     -1.408617    12A     -1.377829
      13A     -1.101653    14A     -1.065040    15A     -1.020193
      16A     -0.963696    17A     -0.897013    18A     -0.834251
      19A     -0.764135    20A     -0.723233    21A     -0.685285
      22A     -0.671662    23A     -0.646807    24A     -0.630978
      25A     -0.624730    26A     -0.597359    27A     -0.590274
      28A     -0.566970    29A     -0.555507    30A     -0.539631
      31A     -0.536098    32A     -0.526201    33A     -0.511251
      34A     -0.507055    35A     -0.494529    36A     -0.484536
      37A     -0.482137    38A     -0.422945    39A     -0.402928

  @DF-RHF Final Energy:  -460.99238599562449

   => Energetics <=

    Nuclear Repulsion Energy =            550.9509630629958110
    One-Electron Energy =               -1720.2024584853954821
    Two-Electron Energy =                 708.2591094267752396
    Total Energy =                       -460.9923859956245451
  Basis Set: (AUG-CC-PVTZ AUX)
    Blend: AUG-CC-PVTZ-RI
    Molecular point group: c1

    Geometry (in Angstrom), charge = 0, multiplicity = 1:

       Center              X                  Y                   Z               Mass
    ------------   -----------------  -----------------  -----------------  -----------------
         O           -1.176965523540    -0.787774143934    -1.085125941226    15.994914619570
         O            2.236928476460    -0.802369143934    -0.724853941226    15.994914619570
         C            0.389415476460     0.273555856066     0.387437058774    12.000000000000
         C            0.845010476460     1.567771856066    -0.302553941226    12.000000000000
         C           -1.060986723540    -0.090539943934    -0.109021941226    12.000000000000
         C            1.322242476460    -0.899250143934     0.086494058774    12.000000000000
         C           -2.179308523540     0.505833856066     0.679192058774    12.000000000000
         C            2.097623476460     2.165514856066     0.332072058774    12.000000000000
         C            1.041353476460    -2.188844143934     0.822726058774    12.000000000000
         C           -3.518850523540     0.295210856066    -0.011137941226    12.000000000000
         H            0.361838476460     0.429155856066     1.476920058774     1.007825032230
         H            1.028190476460     1.334455856066    -1.355420941226     1.007825032230
         H            0.031053476460     2.302312856066    -0.267011941226     1.007825032230
         H           -1.980371523540     1.570488856066     0.856607058774     1.007825032230
         H           -2.169460523540     0.038931856066     1.674661058774     1.007825032230
         H            2.935027476460     1.469741856066     0.258317058774     1.007825032230
         H            2.381273476460     3.091959856066    -0.175765941226     1.007825032230
         H            1.927437476460     2.400824856066     1.387815058774     1.007825032230
         H           -3.709569523540    -0.768284143934    -0.165229941226     1.007825032230
         H           -3.527404523540     0.776686856066    -0.991395941226     1.007825032230
         H           -4.330534523540     0.714305856066     0.589085058774     1.007825032230
         H            0.922093476460    -2.010719143934     1.896133058774     1.007825032230
         H            1.859994476460    -2.888490143934     0.649080058774     1.007825032230
         H            0.110967476460    -2.623880143934     0.445058058774     1.007825032230

  Basis Set: AUG-CC-PVTZ
    Blend: AUG-CC-PVTZ
  Basis Set: (AUG-CC-PVTZ AUX)
    Blend: AUG-CC-PVTZ-JKFIT
	 Reference Energy          =    -460.9923859956244883 [Eh]
	 Singles Energy            =      -0.0000000000000000 [Eh]
	 Same-Spin Energy          =      -0.4681774109788816 [Eh]
	 Opposite-Spin Energy      =      -1.5672758333498198 [Eh]
	 Correlation Energy        =      -2.0354532443287012 [Eh]
	 Total Energy              =    -463.0278392399532095 [Eh]

	 ================> DF-SCS-MP2 Energies <==================
	-----------------------------------------------------------
	 SCS Same-Spin Scale       =       0.3333333333333333 [-]
	 SCS Opposite-Spin Scale   =       1.2000000000000000 [-]
	 SCS Same-Spin Energy      =      -0.1560591369929605 [Eh]
	 SCS Opposite-Spin Energy  =      -1.8807310000197837 [Eh]
	 SCS Correlation Energy    =      -2.0367901370127441 [Eh]
	 SCS Total Energy          =    -463.0291761326372466 [Eh]
	-----------------------------------------------------------

  Dipole Moment: [D]
     X:    -2.0597      Y:     1.3602      Z:     3.5433     Total:     4.3183

*** Psi4 exiting successfully. Buy a developer a beer!
