                               Psi4 1.4a3.dev225

  ==> Input File <==

--------------------------------------------------------------------------
#psi4
#
memory 32 gb

molecule  {
0 1
  O       -1.1540860    -0.8257380    -1.1262130
  O        2.2598080    -0.8403330    -0.7659410
  C        0.4122950     0.2355920     0.3463500
  C        0.8678900     1.5298080    -0.3436410
  C       -0.9920820    -0.1169500    -0.1343550
  C        1.3451220    -0.9372140     0.0454070
  C       -2.1564290     0.4678700     0.6381050
  C        2.1205030     2.1275510     0.2909850
  C        1.0642330    -2.2268080     0.7816390
  C       -3.4959710     0.2572470    -0.0522250
  H        0.3847180     0.3911920     1.4358330
  H        1.0510700     1.2964920    -1.3965080
  H        0.0539330     2.2643490    -0.3080990
  H       -1.9574920     1.5325250     0.8155200
  H       -2.1465810     0.0009680     1.6335740
  H        2.9579070     1.4317780     0.2172300
  H        2.4041530     3.0539960    -0.2168530
  H        1.9503170     2.3628610     1.3467280
  H       -3.6866900    -0.8062480    -0.2063170
  H       -3.5045250     0.7387230    -1.0324830
  H       -4.3076550     0.6763420     0.5479980
  H        0.9667636    -2.0812291     1.6589187
  H        1.8828740    -2.9264540     0.6079930
  H        0.1338470    -2.6618440     0.4039710
units angstrom
no_reorient  #important for SAPT in psi4, default
symmetry c1  #important for SAPT in psi4, default
}

set PROPERTIES_ORIGIN ["COM"]
properties('MP2/aug-cc-pvtz', properties = ['dipole'])
--------------------------------------------------------------------------

    Molecular point group: c1
  Charge       = 0
  Multiplicity = 1
  Basis Set: AUG-CC-PVTZ
    Blend: AUG-CC-PVTZ
  Basis Set: (AUG-CC-PVTZ AUX)
    Blend: AUG-CC-PVTZ-JKFIT

    Orbital Energies [Eh]
    ---------------------

    Doubly Occupied:

       1A    -20.558148     2A    -20.547368     3A    -11.345877
       4A    -11.336729     5A    -11.258788     6A    -11.253021
       7A    -11.237626     8A    -11.226003     9A    -11.218040
      10A    -11.210848    11A     -1.392117    12A     -1.377446
      13A     -1.108467    14A     -1.061292    15A     -1.038115
      16A     -0.975761    17A     -0.895577    18A     -0.839633
      19A     -0.770363    20A     -0.727871    21A     -0.683029
      22A     -0.681723    23A     -0.645119    24A     -0.626232
      25A     -0.623748    26A     -0.614201    27A     -0.598100
      28A     -0.569177    29A     -0.558108    30A     -0.537727
      31A     -0.536060    32A     -0.523219    33A     -0.510169
      34A     -0.508011    35A     -0.492552    36A     -0.485173
      37A     -0.482407    38A     -0.426847    39A     -0.406811

  @DF-RHF Final Energy:  -460.95815220531415

   => Energetics <=

    Nuclear Repulsion Energy =            552.0931419346881057
    One-Electron Energy =               -1722.3275754242804396
    Two-Electron Energy =                 709.2762812842782978
    Total Energy =                       -460.9581522053141498
  Basis Set: (AUG-CC-PVTZ AUX)
    Blend: AUG-CC-PVTZ-RI
    Molecular point group: c1

    Geometry (in Angstrom), charge = 0, multiplicity = 1:

       Center              X                  Y                   Z               Mass
    ------------   -----------------  -----------------  -----------------  -----------------
         O           -1.181006804462    -0.788519008732    -1.085065321662    15.994914619570
         O            2.232887195538    -0.803114008732    -0.724793321662    15.994914619570
         C            0.385374195538     0.272810991268     0.387497678338    12.000000000000
         C            0.840969195538     1.567026991268    -0.302493321662    12.000000000000
         C           -1.019002804462    -0.079731008732    -0.093207321662    12.000000000000
         C            1.318201195538    -0.899995008732     0.086554678338    12.000000000000
         C           -2.183349804462     0.505088991268     0.679252678338    12.000000000000
         C            2.093582195538     2.164769991268     0.332132678338    12.000000000000
         C            1.037312195538    -2.189589008732     0.822786678338    12.000000000000
         C           -3.522891804462     0.294465991268    -0.011077321662    12.000000000000
         H            0.357797195538     0.428410991268     1.476980678338     1.007825032230
         H            1.024149195538     1.333710991268    -1.355360321662     1.007825032230
         H            0.027012195538     2.301567991268    -0.266951321662     1.007825032230
         H           -1.984412804462     1.569743991268     0.856667678338     1.007825032230
         H           -2.173501804462     0.038186991268     1.674721678338     1.007825032230
         H            2.930986195538     1.468996991268     0.258377678338     1.007825032230
         H            2.377232195538     3.091214991268    -0.175705321662     1.007825032230
         H            1.923396195538     2.400079991268     1.387875678338     1.007825032230
         H           -3.713610804462    -0.769029008732    -0.165169321662     1.007825032230
         H           -3.531445804462     0.775941991268    -0.991335321662     1.007825032230
         H           -4.334575804462     0.713560991268     0.589145678338     1.007825032230
         H            0.939842795538    -2.044010108732     1.700066378338     1.007825032230
         H            1.855953195538    -2.889235008732     0.649140678338     1.007825032230
         H            0.106926195538    -2.624625008732     0.445118678338     1.007825032230

  Basis Set: AUG-CC-PVTZ
    Blend: AUG-CC-PVTZ
  Basis Set: (AUG-CC-PVTZ AUX)
    Blend: AUG-CC-PVTZ-JKFIT
	 Reference Energy          =    -460.9581522053141498 [Eh]
	 Singles Energy            =      -0.0000000000000000 [Eh]
	 Same-Spin Energy          =      -0.4689891858091449 [Eh]
	 Opposite-Spin Energy      =      -1.5681968099227419 [Eh]
	 Correlation Energy        =      -2.0371859957318867 [Eh]
	 Total Energy              =    -462.9953382010460246 [Eh]

	 ================> DF-SCS-MP2 Energies <==================
	-----------------------------------------------------------
	 SCS Same-Spin Scale       =       0.3333333333333333 [-]
	 SCS Opposite-Spin Scale   =       1.2000000000000000 [-]
	 SCS Same-Spin Energy      =      -0.1563297286030483 [Eh]
	 SCS Opposite-Spin Energy  =      -1.8818361719072902 [Eh]
	 SCS Correlation Energy    =      -2.0381659005103385 [Eh]
	 SCS Total Energy          =    -462.9963181058245141 [Eh]
	-----------------------------------------------------------

  Dipole Moment: [D]
     X:    -1.7893      Y:     1.4172      Z:     3.6368     Total:     4.2938

*** Psi4 exiting successfully. Buy a developer a beer!
