                               Psi4 1.4a3.dev225

  ==> Input File <==

--------------------------------------------------------------------------
#psi4
#
memory 32 gb

molecule  {
0 1
  O       -1.1540860    -0.8257380    -1.1262130
  O        2.2598080    -0.8403330    -0.7659410
  C        0.4122950     0.2355920     0.3463500
  C        0.8678900     1.5298080    -0.3436410
  C       -0.9920820    -0.1169500    -0.1343550
  C        1.3451220    -0.9372140     0.0454070
  C       -2.1564290     0.4678700     0.6381050
  C        2.1205030     2.1275510     0.2909850
  C        1.0642330    -2.2268080     0.7816390
  C       -3.4959710     0.2572470    -0.0522250
  H        0.3847180     0.3911920     1.4358330
  H        1.0510700     1.2964920    -1.3965080
  H        0.0539330     2.2643490    -0.3080990
  H       -1.9574920     1.5325250     0.8155200
  H       -2.1465810     0.0009680     1.6335740
  H        2.9579070     1.4317780     0.2172300
  H        2.4041530     3.0539960    -0.2168530
  H        1.9503170     2.3628610     1.3467280
  H       -3.6866900    -0.8062480    -0.2063170
  H       -3.5045250     0.7387230    -1.0324830
  H       -4.3819142     0.7146841     0.6029111
  H        0.9449730    -2.0486830     1.8550460
  H        1.8828740    -2.9264540     0.6079930
  H        0.1338470    -2.6618440     0.4039710
units angstrom
no_reorient  #important for SAPT in psi4, default
symmetry c1  #important for SAPT in psi4, default
}

set PROPERTIES_ORIGIN ["COM"]
properties('MP2/aug-cc-pvtz', properties = ['dipole'])
--------------------------------------------------------------------------

    Molecular point group: c1
  Charge       = 0
  Multiplicity = 1
  Basis Set: AUG-CC-PVTZ
    Blend: AUG-CC-PVTZ
  Basis Set: (AUG-CC-PVTZ AUX)
    Blend: AUG-CC-PVTZ-JKFIT

    Orbital Energies [Eh]
    ---------------------

    Doubly Occupied:

       1A    -20.559040     2A    -20.549208     3A    -11.346838
       4A    -11.338757     5A    -11.259156     6A    -11.253969
       7A    -11.238042     8A    -11.237923     9A    -11.236005
      10A    -11.218317    11A     -1.393189    12A     -1.379063
      13A     -1.108092    14A     -1.059448    15A     -1.022862
      16A     -0.969165    17A     -0.889016    18A     -0.837935
      19A     -0.768619    20A     -0.723882    21A     -0.682617
      22A     -0.673264    23A     -0.645116    24A     -0.626529
      25A     -0.622947    26A     -0.599340    27A     -0.591797
      28A     -0.567189    29A     -0.555648    30A     -0.538411
      31A     -0.527507    32A     -0.516679    33A     -0.510367
      34A     -0.507380    35A     -0.492839    36A     -0.484762
      37A     -0.483435    38A     -0.427672    39A     -0.407737

  @DF-RHF Final Energy:  -460.98572282501237

   => Energetics <=

    Nuclear Repulsion Energy =            550.6543363862510887
    One-Electron Energy =               -1719.5805952945243007
    Two-Electron Energy =                 707.9405360832608949
    Total Energy =                       -460.9857228250123171
  Basis Set: (AUG-CC-PVTZ AUX)
    Blend: AUG-CC-PVTZ-RI
    Molecular point group: c1

    Geometry (in Angstrom), charge = 0, multiplicity = 1:

       Center              X                  Y                   Z               Mass
    ------------   -----------------  -----------------  -----------------  -----------------
         O           -1.180325581272    -0.789021775898    -1.086845799521    15.994914619570
         O            2.233568418728    -0.803616775898    -0.726573799521    15.994914619570
         C            0.386055418728     0.272308224102     0.385717200479    12.000000000000
         C            0.841650418728     1.566524224102    -0.304273799521    12.000000000000
         C           -1.018321581272    -0.080233775898    -0.094987799521    12.000000000000
         C            1.318882418728    -0.900497775898     0.084774200479    12.000000000000
         C           -2.182668581272     0.504586224102     0.677472200479    12.000000000000
         C            2.094263418728     2.164267224102     0.330352200479    12.000000000000
         C            1.037993418728    -2.190091775898     0.821006200479    12.000000000000
         C           -3.522210581272     0.293963224102    -0.012857799521    12.000000000000
         H            0.358478418728     0.427908224102     1.475200200479     1.007825032230
         H            1.024830418728     1.333208224102    -1.357140799521     1.007825032230
         H            0.027693418728     2.301065224102    -0.268731799521     1.007825032230
         H           -1.983731581272     1.569241224102     0.854887200479     1.007825032230
         H           -2.172820581272     0.037684224102     1.672941200479     1.007825032230
         H            2.931667418728     1.468494224102     0.256597200479     1.007825032230
         H            2.377913418728     3.090712224102    -0.177485799521     1.007825032230
         H            1.924077418728     2.399577224102     1.386095200479     1.007825032230
         H           -3.712929581272    -0.769531775898    -0.166949799521     1.007825032230
         H           -3.530764581272     0.775439224102    -0.993115799521     1.007825032230
         H           -4.408153781272     0.751400324102     0.642278300479     1.007825032230
         H            0.918733418728    -2.011966775898     1.894413200479     1.007825032230
         H            1.856634418728    -2.889737775898     0.647360200479     1.007825032230
         H            0.107607418728    -2.625127775898     0.443338200479     1.007825032230

  Basis Set: AUG-CC-PVTZ
    Blend: AUG-CC-PVTZ
  Basis Set: (AUG-CC-PVTZ AUX)
    Blend: AUG-CC-PVTZ-JKFIT
	 Reference Energy          =    -460.9857228250123740 [Eh]
	 Singles Energy            =      -0.0000000000000000 [Eh]
	 Same-Spin Energy          =      -0.4687765942883593 [Eh]
	 Opposite-Spin Energy      =      -1.5693702827249614 [Eh]
	 Correlation Energy        =      -2.0381468770133209 [Eh]
	 Total Energy              =    -463.0238697020257064 [Eh]

	 ================> DF-SCS-MP2 Energies <==================
	-----------------------------------------------------------
	 SCS Same-Spin Scale       =       0.3333333333333333 [-]
	 SCS Opposite-Spin Scale   =       1.2000000000000000 [-]
	 SCS Same-Spin Energy      =      -0.1562588647627864 [Eh]
	 SCS Opposite-Spin Energy  =      -1.8832443392699536 [Eh]
	 SCS Correlation Energy    =      -2.0395032040327399 [Eh]
	 SCS Total Energy          =    -463.0252260290450863 [Eh]
	-----------------------------------------------------------

  Dipole Moment: [D]
     X:    -1.6970      Y:     1.3874      Z:     3.5632     Total:     4.1834

*** Psi4 exiting successfully. Buy a developer a beer!
