                               Psi4 1.4a3.dev225

  ==> Input File <==

--------------------------------------------------------------------------
#psi4
#
memory 32 gb

molecule  {
0 1
  O       -1.1540860    -0.8257380    -1.1262130
  O        2.2598080    -0.8403330    -0.7659410
  C        0.4122950     0.2355920     0.3463500
  C        0.8678900     1.5298080    -0.3436410
  C       -0.9920820    -0.1169500    -0.1343550
  C        1.3451220    -0.9372140     0.0454070
  C       -2.1564290     0.4678700     0.6381050
  C        2.1205030     2.1275510     0.2909850
  C        1.0642330    -2.2268080     0.7816390
  C       -3.4959710     0.2572470    -0.0522250
  H        0.3847180     0.3911920     1.4358330
  H        1.0510700     1.2964920    -1.3965080
  H        0.0539330     2.2643490    -0.3080990
  H       -1.9574920     1.5325250     0.8155200
  H       -2.1465810     0.0009680     1.6335740
  H        2.9579070     1.4317780     0.2172300
  H        2.4041530     3.0539960    -0.2168530
  H        1.9503170     2.3628610     1.3467280
  H       -3.6866900    -0.8062480    -0.2063170
  H       -3.5045250     0.7387230    -1.0324830
  H       -4.2333958     0.6379999     0.4930849
  H        0.9449730    -2.0486830     1.8550460
  H        1.8828740    -2.9264540     0.6079930
  H        0.1338470    -2.6618440     0.4039710
units angstrom
no_reorient  #important for SAPT in psi4, default
symmetry c1  #important for SAPT in psi4, default
}

set PROPERTIES_ORIGIN ["COM"]
properties('MP2/aug-cc-pvtz', properties = ['dipole'])
--------------------------------------------------------------------------

    Molecular point group: c1
  Charge       = 0
  Multiplicity = 1
  Basis Set: AUG-CC-PVTZ
    Blend: AUG-CC-PVTZ
  Basis Set: (AUG-CC-PVTZ AUX)
    Blend: AUG-CC-PVTZ-JKFIT

    Orbital Energies [Eh]
    ---------------------

    Doubly Occupied:

       1A    -20.557511     2A    -20.548449     3A    -11.345172
       4A    -11.337988     5A    -11.258103     6A    -11.252029
       7A    -11.237205     8A    -11.235380     9A    -11.217783
      10A    -11.213270    11A     -1.391681    12A     -1.378199
      13A     -1.107352    14A     -1.063325    15A     -1.022227
      16A     -0.970745    17A     -0.902725    18A     -0.837371
      19A     -0.769057    20A     -0.723021    21A     -0.684340
      22A     -0.673620    23A     -0.643753    24A     -0.626071
      25A     -0.623822    26A     -0.599156    27A     -0.592213
      28A     -0.571738    29A     -0.558706    30A     -0.544180
      31A     -0.537015    32A     -0.522456    33A     -0.509529
      34A     -0.506499    35A     -0.491809    36A     -0.483944
      37A     -0.482487    38A     -0.426847    39A     -0.407258

  @DF-RHF Final Energy:  -460.98598151827161

   => Energetics <=

    Nuclear Repulsion Energy =            551.5816580969001279
    One-Electron Energy =               -1721.4272056017891828
    Two-Electron Energy =                 708.8595659866174401
    Total Energy =                       -460.9859815182716147
  Basis Set: (AUG-CC-PVTZ AUX)
    Blend: AUG-CC-PVTZ-RI
    Molecular point group: c1

    Geometry (in Angstrom), charge = 0, multiplicity = 1:

       Center              X                  Y                   Z               Mass
    ------------   -----------------  -----------------  -----------------  -----------------
         O           -1.181378932536    -0.788477901206    -1.086066868650    15.994914619570
         O            2.232515067464    -0.803072901206    -0.725794868650    15.994914619570
         C            0.385002067464     0.272852098794     0.386496131350    12.000000000000
         C            0.840597067464     1.567068098794    -0.303494868650    12.000000000000
         C           -1.019374932536    -0.079689901206    -0.094208868650    12.000000000000
         C            1.317829067464    -0.899953901206     0.085553131350    12.000000000000
         C           -2.183721932536     0.505130098794     0.678251131350    12.000000000000
         C            2.093210067464     2.164811098794     0.331131131350    12.000000000000
         C            1.036940067464    -2.189547901206     0.821785131350    12.000000000000
         C           -3.523263932536     0.294507098794    -0.012078868650    12.000000000000
         H            0.357425067464     0.428452098794     1.475979131350     1.007825032230
         H            1.023777067464     1.333752098794    -1.356361868650     1.007825032230
         H            0.026640067464     2.301609098794    -0.267952868650     1.007825032230
         H           -1.984784932536     1.569785098794     0.855666131350     1.007825032230
         H           -2.173873932536     0.038228098794     1.673720131350     1.007825032230
         H            2.930614067464     1.469038098794     0.257376131350     1.007825032230
         H            2.376860067464     3.091256098794    -0.176706868650     1.007825032230
         H            1.923024067464     2.400121098794     1.386874131350     1.007825032230
         H           -3.713982932536    -0.768987901206    -0.166170868650     1.007825032230
         H           -3.531817932536     0.775983098794    -0.992336868650     1.007825032230
         H           -4.260688732536     0.675259998794     0.533231031350     1.007825032230
         H            0.917680067464    -2.011422901206     1.895192131350     1.007825032230
         H            1.855581067464    -2.889193901206     0.648139131350     1.007825032230
         H            0.106554067464    -2.624583901206     0.444117131350     1.007825032230

  Basis Set: AUG-CC-PVTZ
    Blend: AUG-CC-PVTZ
  Basis Set: (AUG-CC-PVTZ AUX)
    Blend: AUG-CC-PVTZ-JKFIT
	 Reference Energy          =    -460.9859815182716147 [Eh]
	 Singles Energy            =      -0.0000000000000000 [Eh]
	 Same-Spin Energy          =      -0.4689340062010345 [Eh]
	 Opposite-Spin Energy      =      -1.5682512604442702 [Eh]
	 Correlation Energy        =      -2.0371852666453050 [Eh]
	 Total Energy              =    -463.0231667849168957 [Eh]

	 ================> DF-SCS-MP2 Energies <==================
	-----------------------------------------------------------
	 SCS Same-Spin Scale       =       0.3333333333333333 [-]
	 SCS Opposite-Spin Scale   =       1.2000000000000000 [-]
	 SCS Same-Spin Energy      =      -0.1563113354003448 [Eh]
	 SCS Opposite-Spin Energy  =      -1.8819015125331242 [Eh]
	 SCS Correlation Energy    =      -2.0382128479334689 [Eh]
	 SCS Total Energy          =    -463.0241943662051085 [Eh]
	-----------------------------------------------------------

  Dipole Moment: [D]
     X:    -1.8328      Y:     1.4272      Z:     3.6107     Total:     4.2934

*** Psi4 exiting successfully. Buy a developer a beer!
