                               Psi4 1.4a3.dev225

  ==> Input File <==

--------------------------------------------------------------------------
#psi4
#
memory 32 gb

molecule  {
0 1
  O       -1.1540860    -0.8257380    -1.1262130
  O        2.2598080    -0.8403330    -0.7659410
  C        0.4122950     0.2355920     0.3463500
  C        0.9601346     1.5216859    -0.2896403
  C       -0.9920820    -0.1169500    -0.1343550
  C        1.3451220    -0.9372140     0.0454070
  C       -2.1564290     0.4678700     0.6381050
  C        2.1205030     2.1275510     0.2909850
  C        1.0642330    -2.2268080     0.7816390
  C       -3.4959710     0.2572470    -0.0522250
  H        0.3847180     0.3911920     1.4358330
  H        1.0510700     1.2964920    -1.3965080
  H        0.0539330     2.2643490    -0.3080990
  H       -1.9574920     1.5325250     0.8155200
  H       -2.1465810     0.0009680     1.6335740
  H        2.9579070     1.4317780     0.2172300
  H        2.4041530     3.0539960    -0.2168530
  H        1.9503170     2.3628610     1.3467280
  H       -3.6866900    -0.8062480    -0.2063170
  H       -3.5045250     0.7387230    -1.0324830
  H       -4.3076550     0.6763420     0.5479980
  H        0.9449730    -2.0486830     1.8550460
  H        1.8828740    -2.9264540     0.6079930
  H        0.1338470    -2.6618440     0.4039710
units angstrom
no_reorient  #important for SAPT in psi4, default
symmetry c1  #important for SAPT in psi4, default
}

set PROPERTIES_ORIGIN ["COM"]
properties('MP2/aug-cc-pvtz', properties = ['dipole'])
--------------------------------------------------------------------------

    Molecular point group: c1
  Charge       = 0
  Multiplicity = 1
  Basis Set: AUG-CC-PVTZ
    Blend: AUG-CC-PVTZ
  Basis Set: (AUG-CC-PVTZ AUX)
    Blend: AUG-CC-PVTZ-JKFIT

    Orbital Energies [Eh]
    ---------------------

    Doubly Occupied:

       1A    -20.560492     2A    -20.548891     3A    -11.347938
       4A    -11.337590     5A    -11.259289     6A    -11.253032
       7A    -11.242865     8A    -11.235092     9A    -11.226111
      10A    -11.214567    11A     -1.393803    12A     -1.379060
      13A     -1.111643    14A     -1.063439    15A     -1.028976
      16A     -0.977292    17A     -0.896068    18A     -0.825842
      19A     -0.769629    20A     -0.723521    21A     -0.684990
      22A     -0.672574    23A     -0.644330    24A     -0.626824
      25A     -0.624602    26A     -0.599198    27A     -0.592786
      28A     -0.573143    29A     -0.562304    30A     -0.545744
      31A     -0.536001    32A     -0.523820    33A     -0.521595
      34A     -0.499988    35A     -0.490781    36A     -0.476412
      37A     -0.464012    38A     -0.430741    39A     -0.406313

  @DF-RHF Final Energy:  -460.97852398581642

   => Energetics <=

    Nuclear Repulsion Energy =            551.5083380026795794
    One-Electron Energy =               -1721.2311290448230920
    Two-Electron Energy =                 708.7442670563269758
    Total Energy =                       -460.9785239858164232
  Basis Set: (AUG-CC-PVTZ AUX)
    Blend: AUG-CC-PVTZ-RI
    Molecular point group: c1

    Geometry (in Angstrom), charge = 0, multiplicity = 1:

       Center              X                  Y                   Z               Mass
    ------------   -----------------  -----------------  -----------------  -----------------
         O           -1.188642123421    -0.788063943933    -1.091016582001    15.994914619570
         O            2.225251876579    -0.802658943933    -0.730744582001    15.994914619570
         C            0.377738876579     0.273266056067     0.381546417999    12.000000000000
         C            0.925578476579     1.559359956067    -0.254443882001    12.000000000000
         C           -1.026638123421    -0.079275943933    -0.099158582001    12.000000000000
         C            1.310565876579    -0.899539943933     0.080603417999    12.000000000000
         C           -2.190985123421     0.505544056067     0.673301417999    12.000000000000
         C            2.085946876579     2.165225056067     0.326181417999    12.000000000000
         C            1.029676876579    -2.189133943933     0.816835417999    12.000000000000
         C           -3.530527123421     0.294921056067    -0.017028582001    12.000000000000
         H            0.350161876579     0.428866056067     1.471029417999     1.007825032230
         H            1.016513876579     1.334166056067    -1.361311582001     1.007825032230
         H            0.019376876579     2.302023056067    -0.272902582001     1.007825032230
         H           -1.992048123421     1.570199056067     0.850716417999     1.007825032230
         H           -2.181137123421     0.038642056067     1.668770417999     1.007825032230
         H            2.923350876579     1.469452056067     0.252426417999     1.007825032230
         H            2.369596876579     3.091670056067    -0.181656582001     1.007825032230
         H            1.915760876579     2.400535056067     1.381924417999     1.007825032230
         H           -3.721246123421    -0.768573943933    -0.171120582001     1.007825032230
         H           -3.539081123421     0.776397056067    -0.997286582001     1.007825032230
         H           -4.342211123421     0.714016056067     0.583194417999     1.007825032230
         H            0.910416876579    -2.011008943933     1.890242417999     1.007825032230
         H            1.848317876579    -2.888779943933     0.643189417999     1.007825032230
         H            0.099290876579    -2.624169943933     0.439167417999     1.007825032230

  Basis Set: AUG-CC-PVTZ
    Blend: AUG-CC-PVTZ
  Basis Set: (AUG-CC-PVTZ AUX)
    Blend: AUG-CC-PVTZ-JKFIT
	 Reference Energy          =    -460.9785239858164232 [Eh]
	 Singles Energy            =      -0.0000000000000000 [Eh]
	 Same-Spin Energy          =      -0.4697826629685330 [Eh]
	 Opposite-Spin Energy      =      -1.5700076152028866 [Eh]
	 Correlation Energy        =      -2.0397902781714197 [Eh]
	 Total Energy              =    -463.0183142639878611 [Eh]

	 ================> DF-SCS-MP2 Energies <==================
	-----------------------------------------------------------
	 SCS Same-Spin Scale       =       0.3333333333333333 [-]
	 SCS Opposite-Spin Scale   =       1.2000000000000000 [-]
	 SCS Same-Spin Energy      =      -0.1565942209895110 [Eh]
	 SCS Opposite-Spin Energy  =      -1.8840091382434638 [Eh]
	 SCS Correlation Energy    =      -2.0406033592329749 [Eh]
	 SCS Total Energy          =    -463.0191273450494123 [Eh]
	-----------------------------------------------------------

  Dipole Moment: [D]
     X:    -1.7377      Y:     1.3987      Z:     3.5949     Total:     4.2308

*** Psi4 exiting successfully. Buy a developer a beer!
