                               Psi4 1.4a3.dev225

  ==> Input File <==

--------------------------------------------------------------------------
#psi4
#
memory 32 gb

molecule  {
0 1
  O       -1.1540860    -0.8257380    -1.1262130
  O        2.2598080    -0.8403330    -0.7659410
  C        0.4122950     0.2355920     0.3463500
  C        0.8678900     1.5298080    -0.3436410
  C       -0.9920820    -0.1169500    -0.1343550
  C        1.3451220    -0.9372140     0.0454070
  C       -2.1564290     0.4678700     0.6381050
  C        2.1205030     2.1275510     0.2909850
  C        1.0642330    -2.2268080     0.7816390
  C       -3.4959710     0.2572470    -0.0522250
  H        0.3847180     0.3911920     1.4358330
  H        1.0510700     1.2964920    -1.3965080
  H        0.0539330     2.2643490    -0.3080990
  H       -1.9574920     1.5325250     0.8155200
  H       -2.1465810     0.0009680     1.6335740
  H        2.9579070     1.4317780     0.2172300
  H        2.4041530     3.0539960    -0.2168530
  H        1.9503170     2.3628610     1.3467280
  H       -3.6866900    -0.8062480    -0.2063170
  H       -3.5045250     0.7387230    -1.0324830
  H       -4.3076550     0.6763420     0.5479980
  H        0.9740423    -2.0726046     1.8615654
  H        1.8828740    -2.9264540     0.6079930
  H        0.1338470    -2.6618440     0.4039710
units angstrom
no_reorient  #important for SAPT in psi4, default
symmetry c1  #important for SAPT in psi4, default
}

set PROPERTIES_ORIGIN ["COM"]
properties('MP2/aug-cc-pvtz', properties = ['dipole'])
--------------------------------------------------------------------------

    Molecular point group: c1
  Charge       = 0
  Multiplicity = 1
  Basis Set: AUG-CC-PVTZ
    Blend: AUG-CC-PVTZ
  Basis Set: (AUG-CC-PVTZ AUX)
    Blend: AUG-CC-PVTZ-JKFIT

    Orbital Energies [Eh]
    ---------------------

    Doubly Occupied:

       1A    -20.558158     2A    -20.549055     3A    -11.345862
       4A    -11.338609     5A    -11.258511     6A    -11.252805
       7A    -11.237493     8A    -11.235445     9A    -11.225875
      10A    -11.218021    11A     -1.392354    12A     -1.378735
      13A     -1.107548    14A     -1.060645    15A     -1.022193
      16A     -0.969640    17A     -0.894753    18A     -0.837724
      19A     -0.768755    20A     -0.723538    21A     -0.683109
      22A     -0.673362    23A     -0.644449    24A     -0.625818
      25A     -0.623207    26A     -0.599331    27A     -0.592439
      28A     -0.568169    29A     -0.555202    30A     -0.537295
      31A     -0.534519    32A     -0.522671    33A     -0.510047
      34A     -0.506736    35A     -0.492418    36A     -0.484550
      37A     -0.482931    38A     -0.427292    39A     -0.407640

  @DF-RHF Final Energy:  -460.99201768722503

   => Energetics <=

    Nuclear Repulsion Energy =            551.0264513860211082
    One-Electron Energy =               -1720.3431324163179852
    Two-Electron Energy =                 708.3246633430718475
    Total Energy =                       -460.9920176872250295
  Basis Set: (AUG-CC-PVTZ AUX)
    Blend: AUG-CC-PVTZ-RI
    Molecular point group: c1

    Geometry (in Angstrom), charge = 0, multiplicity = 1:

       Center              X                  Y                   Z               Mass
    ------------   -----------------  -----------------  -----------------  -----------------
         O           -1.181058427883    -0.788580177099    -1.086502572250    15.994914619570
         O            2.232835572117    -0.803175177099    -0.726230572250    15.994914619570
         C            0.385322572117     0.272749822901     0.386060427750    12.000000000000
         C            0.840917572117     1.566965822901    -0.303930572250    12.000000000000
         C           -1.019054427883    -0.079792177099    -0.094644572250    12.000000000000
         C            1.318149572117    -0.900056177099     0.085117427750    12.000000000000
         C           -2.183401427883     0.505027822901     0.677815427750    12.000000000000
         C            2.093530572117     2.164708822901     0.330695427750    12.000000000000
         C            1.037260572117    -2.189650177099     0.821349427750    12.000000000000
         C           -3.522943427883     0.294404822901    -0.012514572250    12.000000000000
         H            0.357745572117     0.428349822901     1.475543427750     1.007825032230
         H            1.024097572117     1.333649822901    -1.356797572250     1.007825032230
         H            0.026960572117     2.301506822901    -0.268388572250     1.007825032230
         H           -1.984464427883     1.569682822901     0.855230427750     1.007825032230
         H           -2.173553427883     0.038125822901     1.673284427750     1.007825032230
         H            2.930934572117     1.468935822901     0.256940427750     1.007825032230
         H            2.377180572117     3.091153822901    -0.177142572250     1.007825032230
         H            1.923344572117     2.400018822901     1.386438427750     1.007825032230
         H           -3.713662427883    -0.769090177099    -0.166606572250     1.007825032230
         H           -3.531497427883     0.775880822901    -0.992772572250     1.007825032230
         H           -4.334627427883     0.713499822901     0.587708427750     1.007825032230
         H            0.947069872117    -2.035446777099     1.901275827750     1.007825032230
         H            1.855901572117    -2.889296177099     0.647703427750     1.007825032230
         H            0.106874572117    -2.624686177099     0.443681427750     1.007825032230

  Basis Set: AUG-CC-PVTZ
    Blend: AUG-CC-PVTZ
  Basis Set: (AUG-CC-PVTZ AUX)
    Blend: AUG-CC-PVTZ-JKFIT
	 Reference Energy          =    -460.9920176872250295 [Eh]
	 Singles Energy            =      -0.0000000000000000 [Eh]
	 Same-Spin Energy          =      -0.4688263483528638 [Eh]
	 Opposite-Spin Energy      =      -1.5686818133121458 [Eh]
	 Correlation Energy        =      -2.0375081616650097 [Eh]
	 Total Energy              =    -463.0295258488900458 [Eh]

	 ================> DF-SCS-MP2 Energies <==================
	-----------------------------------------------------------
	 SCS Same-Spin Scale       =       0.3333333333333333 [-]
	 SCS Opposite-Spin Scale   =       1.2000000000000000 [-]
	 SCS Same-Spin Energy      =      -0.1562754494509546 [Eh]
	 SCS Opposite-Spin Energy  =      -1.8824181759745748 [Eh]
	 SCS Correlation Energy    =      -2.0386936254255295 [Eh]
	 SCS Total Energy          =    -463.0307113126505669 [Eh]
	-----------------------------------------------------------

  Dipole Moment: [D]
     X:    -1.7597      Y:     1.4082      Z:     3.5969     Total:     4.2447

*** Psi4 exiting successfully. Buy a developer a beer!
