                               Psi4 1.4a3.dev225

  ==> Input File <==

--------------------------------------------------------------------------
#psi4
#
memory 32 gb

molecule  {
0 1
  O       -1.1540860    -0.8257380    -1.1262130
  O        2.2598080    -0.8403330    -0.7659410
  C        0.4122950     0.2355920     0.3463500
  C        0.8678900     1.5298080    -0.3436410
  C       -0.9920820    -0.1169500    -0.1343550
  C        1.3451220    -0.9372140     0.0454070
  C       -2.1564290     0.4678700     0.6381050
  C        2.1205030     2.1275510     0.2909850
  C        1.0642330    -2.2268080     0.7816390
  C       -3.4959710     0.2572470    -0.0522250
  H        0.3847180     0.3911920     1.4358330
  H        1.0510700     1.2964920    -1.3965080
  H        0.0539330     2.2643490    -0.3080990
  H       -1.9574920     1.5325250     0.8155200
  H       -2.1465810     0.0009680     1.6335740
  H        2.9579070     1.4317780     0.2172300
  H        2.4041530     3.0539960    -0.2168530
  H        1.9503170     2.3628610     1.3467280
  H       -3.6866900    -0.8062480    -0.2063170
  H       -3.5045250     0.7387230    -1.0324830
  H       -4.3076550     0.6763420     0.5479980
  H        0.9594917    -2.0606185     1.8584697
  H        1.8828740    -2.9264540     0.6079930
  H        0.1338470    -2.6618440     0.4039710
units angstrom
no_reorient  #important for SAPT in psi4, default
symmetry c1  #important for SAPT in psi4, default
}

set PROPERTIES_ORIGIN ["COM"]
properties('MP2/aug-cc-pvtz', properties = ['dipole'])
--------------------------------------------------------------------------

    Molecular point group: c1
  Charge       = 0
  Multiplicity = 1
  Basis Set: AUG-CC-PVTZ
    Blend: AUG-CC-PVTZ
  Basis Set: (AUG-CC-PVTZ AUX)
    Blend: AUG-CC-PVTZ-JKFIT

    Orbital Energies [Eh]
    ---------------------

    Doubly Occupied:

       1A    -20.558170     2A    -20.548918     3A    -11.345873
       4A    -11.338465     5A    -11.258535     6A    -11.252837
       7A    -11.237504     8A    -11.235547     9A    -11.225898
      10A    -11.218017    11A     -1.392348    12A     -1.378657
      13A     -1.107583    14A     -1.060674    15A     -1.022340
      16A     -0.969632    17A     -0.894757    18A     -0.837663
      19A     -0.768696    20A     -0.723459    21A     -0.683122
      22A     -0.673352    23A     -0.644372    24A     -0.625924
      25A     -0.623199    26A     -0.599195    27A     -0.592155
      28A     -0.568154    29A     -0.555856    30A     -0.537474
      31A     -0.534749    32A     -0.522663    33A     -0.510048
      34A     -0.506833    35A     -0.492338    36A     -0.484425
      37A     -0.482923    38A     -0.427252    39A     -0.407554

  @DF-RHF Final Energy:  -460.99211961159955

   => Energetics <=

    Nuclear Repulsion Energy =            551.0577906846008318
    One-Electron Energy =               -1720.4054981268200208
    Two-Electron Energy =                 708.3555878306196973
    Total Energy =                       -460.9921196115994917
  Basis Set: (AUG-CC-PVTZ AUX)
    Blend: AUG-CC-PVTZ-RI
    Molecular point group: c1

    Geometry (in Angstrom), charge = 0, multiplicity = 1:

       Center              X                  Y                   Z               Mass
    ------------   -----------------  -----------------  -----------------  -----------------
         O           -1.180955229270    -0.788665187263    -1.086480616321    15.994914619570
         O            2.232938770730    -0.803260187263    -0.726208616321    15.994914619570
         C            0.385425770730     0.272664812737     0.386082383679    12.000000000000
         C            0.841020770730     1.566880812737    -0.303908616321    12.000000000000
         C           -1.018951229270    -0.079877187263    -0.094622616321    12.000000000000
         C            1.318252770730    -0.900141187263     0.085139383679    12.000000000000
         C           -2.183298229270     0.504942812737     0.677837383679    12.000000000000
         C            2.093633770730     2.164623812737     0.330717383679    12.000000000000
         C            1.037363770730    -2.189735187263     0.821371383679    12.000000000000
         C           -3.522840229270     0.294319812737    -0.012492616321    12.000000000000
         H            0.357848770730     0.428264812737     1.475565383679     1.007825032230
         H            1.024200770730     1.333564812737    -1.356775616321     1.007825032230
         H            0.027063770730     2.301421812737    -0.268366616321     1.007825032230
         H           -1.984361229270     1.569597812737     0.855252383679     1.007825032230
         H           -2.173450229270     0.038040812737     1.673306383679     1.007825032230
         H            2.931037770730     1.468850812737     0.256962383679     1.007825032230
         H            2.377283770730     3.091068812737    -0.177120616321     1.007825032230
         H            1.923447770730     2.399933812737     1.386460383679     1.007825032230
         H           -3.713559229270    -0.769175187263    -0.166584616321     1.007825032230
         H           -3.531394229270     0.775795812737    -0.992750616321     1.007825032230
         H           -4.334524229270     0.713414812737     0.587730383679     1.007825032230
         H            0.932622470730    -2.023545687263     1.898202083679     1.007825032230
         H            1.856004770730    -2.889381187263     0.647725383679     1.007825032230
         H            0.106977770730    -2.624771187263     0.443703383679     1.007825032230

  Basis Set: AUG-CC-PVTZ
    Blend: AUG-CC-PVTZ
  Basis Set: (AUG-CC-PVTZ AUX)
    Blend: AUG-CC-PVTZ-JKFIT
	 Reference Energy          =    -460.9921196115995485 [Eh]
	 Singles Energy            =      -0.0000000000000000 [Eh]
	 Same-Spin Energy          =      -0.4688345173089733 [Eh]
	 Opposite-Spin Energy      =      -1.5686876998538981 [Eh]
	 Correlation Energy        =      -2.0375222171628713 [Eh]
	 Total Energy              =    -463.0296418287624078 [Eh]

	 ================> DF-SCS-MP2 Energies <==================
	-----------------------------------------------------------
	 SCS Same-Spin Scale       =       0.3333333333333333 [-]
	 SCS Opposite-Spin Scale   =       1.2000000000000000 [-]
	 SCS Same-Spin Energy      =      -0.1562781724363244 [Eh]
	 SCS Opposite-Spin Energy  =      -1.8824252398246777 [Eh]
	 SCS Correlation Energy    =      -2.0387034122610022 [Eh]
	 SCS Total Energy          =    -463.0308230238605347 [Eh]
	-----------------------------------------------------------

  Dipole Moment: [D]
     X:    -1.7666      Y:     1.4092      Z:     3.5938     Total:     4.2452

*** Psi4 exiting successfully. Buy a developer a beer!
