                               Psi4 1.4a3.dev225

  ==> Input File <==

--------------------------------------------------------------------------
#psi4
#
memory 32 gb

molecule  {
0 1
  O       -1.1540860    -0.8257380    -1.1262130
  O        2.2598080    -0.8403330    -0.7659410
  C        0.3855945     0.2044002     0.3804157
  C        0.8678900     1.5298080    -0.3436410
  C       -0.9920820    -0.1169500    -0.1343550
  C        1.3451220    -0.9372140     0.0454070
  C       -2.1564290     0.4678700     0.6381050
  C        2.1205030     2.1275510     0.2909850
  C        1.0642330    -2.2268080     0.7816390
  C       -3.4959710     0.2572470    -0.0522250
  H        0.3847180     0.3911920     1.4358330
  H        1.0510700     1.2964920    -1.3965080
  H        0.0539330     2.2643490    -0.3080990
  H       -1.9574920     1.5325250     0.8155200
  H       -2.1465810     0.0009680     1.6335740
  H        2.9579070     1.4317780     0.2172300
  H        2.4041530     3.0539960    -0.2168530
  H        1.9503170     2.3628610     1.3467280
  H       -3.6866900    -0.8062480    -0.2063170
  H       -3.5045250     0.7387230    -1.0324830
  H       -4.3076550     0.6763420     0.5479980
  H        0.9449730    -2.0486830     1.8550460
  H        1.8828740    -2.9264540     0.6079930
  H        0.1338470    -2.6618440     0.4039710
units angstrom
no_reorient  #important for SAPT in psi4, default
symmetry c1  #important for SAPT in psi4, default
}

set PROPERTIES_ORIGIN ["COM"]
properties('MP2/aug-cc-pvtz', properties = ['dipole'])
--------------------------------------------------------------------------

    Molecular point group: c1
  Charge       = 0
  Multiplicity = 1
  Basis Set: AUG-CC-PVTZ
    Blend: AUG-CC-PVTZ
  Basis Set: (AUG-CC-PVTZ AUX)
    Blend: AUG-CC-PVTZ-JKFIT

    Orbital Energies [Eh]
    ---------------------

    Doubly Occupied:

       1A    -20.557263     2A    -20.550240     3A    -11.345237
       4A    -11.339160     5A    -11.257278     6A    -11.252185
       7A    -11.241379     8A    -11.234155     9A    -11.225414
      10A    -11.218815    11A     -1.392088    12A     -1.378813
      13A     -1.106211    14A     -1.059504    15A     -1.022522
      16A     -0.971514    17A     -0.894014    18A     -0.835686
      19A     -0.770519    20A     -0.726932    21A     -0.685377
      22A     -0.672132    23A     -0.643987    24A     -0.625870
      25A     -0.623029    26A     -0.599009    27A     -0.590117
      28A     -0.570392    29A     -0.556471    30A     -0.537830
      31A     -0.535136    32A     -0.522982    33A     -0.509883
      34A     -0.506223    35A     -0.493395    36A     -0.484343
      37A     -0.477675    38A     -0.426795    39A     -0.408587

  @DF-RHF Final Energy:  -460.98969799917325

   => Energetics <=

    Nuclear Repulsion Energy =            550.9281668559455056
    One-Electron Energy =               -1720.1394064856942805
    Two-Electron Energy =                 708.2215416305756435
    Total Energy =                       -460.9896979991732451
  Basis Set: (AUG-CC-PVTZ AUX)
    Blend: AUG-CC-PVTZ-RI
    Molecular point group: c1

    Geometry (in Angstrom), charge = 0, multiplicity = 1:

       Center              X                  Y                   Z               Mass
    ------------   -----------------  -----------------  -----------------  -----------------
         O           -1.178597454661    -0.786115755273    -1.089333112301    15.994914619570
         O            2.235296545339    -0.800710755273    -0.729061112301    15.994914619570
         C            0.361083045339     0.244022444727     0.417295587699    12.000000000000
         C            0.843378545339     1.569430244727    -0.306761112301    12.000000000000
         C           -1.016593454661    -0.077327755273    -0.097475112301    12.000000000000
         C            1.320610545339    -0.897591755273     0.082286887699    12.000000000000
         C           -2.180940454661     0.507492244727     0.674984887699    12.000000000000
         C            2.095991545339     2.167173244727     0.327864887699    12.000000000000
         C            1.039721545339    -2.187185755273     0.818518887699    12.000000000000
         C           -3.520482454661     0.296869244727    -0.015345112301    12.000000000000
         H            0.360206545339     0.430814244727     1.472712887699     1.007825032230
         H            1.026558545339     1.336114244727    -1.359628112301     1.007825032230
         H            0.029421545339     2.303971244727    -0.271219112301     1.007825032230
         H           -1.982003454661     1.572147244727     0.852399887699     1.007825032230
         H           -2.171092454661     0.040590244727     1.670453887699     1.007825032230
         H            2.933395545339     1.471400244727     0.254109887699     1.007825032230
         H            2.379641545339     3.093618244727    -0.179973112301     1.007825032230
         H            1.925805545339     2.402483244727     1.383607887699     1.007825032230
         H           -3.711201454661    -0.766625755273    -0.169437112301     1.007825032230
         H           -3.529036454661     0.778345244727    -0.995603112301     1.007825032230
         H           -4.332166454661     0.715964244727     0.584877887699     1.007825032230
         H            0.920461545339    -2.009060755273     1.891925887699     1.007825032230
         H            1.858362545339    -2.886831755273     0.644872887699     1.007825032230
         H            0.109335545339    -2.622221755273     0.440850887699     1.007825032230

  Basis Set: AUG-CC-PVTZ
    Blend: AUG-CC-PVTZ
  Basis Set: (AUG-CC-PVTZ AUX)
    Blend: AUG-CC-PVTZ-JKFIT
	 Reference Energy          =    -460.9896979991732451 [Eh]
	 Singles Energy            =      -0.0000000000000000 [Eh]
	 Same-Spin Energy          =      -0.4688704505421755 [Eh]
	 Opposite-Spin Energy      =      -1.5687853981686728 [Eh]
	 Correlation Energy        =      -2.0376558487108483 [Eh]
	 Total Energy              =    -463.0273538478841147 [Eh]

	 ================> DF-SCS-MP2 Energies <==================
	-----------------------------------------------------------
	 SCS Same-Spin Scale       =       0.3333333333333333 [-]
	 SCS Opposite-Spin Scale   =       1.2000000000000000 [-]
	 SCS Same-Spin Energy      =      -0.1562901501807252 [Eh]
	 SCS Opposite-Spin Energy  =      -1.8825424778024074 [Eh]
	 SCS Correlation Energy    =      -2.0388326279831324 [Eh]
	 SCS Total Energy          =    -463.0285306271563854 [Eh]
	-----------------------------------------------------------

  Dipole Moment: [D]
     X:    -1.6876      Y:     1.4570      Z:     3.6094     Total:     4.2425

*** Psi4 exiting successfully. Buy a developer a beer!
