                               Psi4 1.4a3.dev225

  ==> Input File <==

--------------------------------------------------------------------------
#psi4
#
memory 32 gb

molecule  {
0 1
  O       -1.1540860    -0.8257380    -1.1262130
  O        2.2598080    -0.8403330    -0.7659410
  C        0.4122950     0.2355920     0.3463500
  C        0.8678900     1.5298080    -0.3436410
  C       -0.9920820    -0.1169500    -0.1343550
  C        1.3451220    -0.9372140     0.0454070
  C       -2.1564290     0.4678700     0.6381050
  C        2.1205030     2.1275510     0.2909850
  C        1.0642330    -2.2268080     0.7816390
  C       -3.4959710     0.2572470    -0.0522250
  H        0.3847180     0.3911920     1.4358330
  H        1.0343237     1.3178217    -1.3002552
  H        0.0539330     2.2643490    -0.3080990
  H       -1.9574920     1.5325250     0.8155200
  H       -2.1465810     0.0009680     1.6335740
  H        2.9579070     1.4317780     0.2172300
  H        2.4041530     3.0539960    -0.2168530
  H        1.9503170     2.3628610     1.3467280
  H       -3.6866900    -0.8062480    -0.2063170
  H       -3.5045250     0.7387230    -1.0324830
  H       -4.3076550     0.6763420     0.5479980
  H        0.9449730    -2.0486830     1.8550460
  H        1.8828740    -2.9264540     0.6079930
  H        0.1338470    -2.6618440     0.4039710
units angstrom
no_reorient  #important for SAPT in psi4, default
symmetry c1  #important for SAPT in psi4, default
}

set PROPERTIES_ORIGIN ["COM"]
properties('MP2/aug-cc-pvtz', properties = ['dipole'])
--------------------------------------------------------------------------

    Molecular point group: c1
  Charge       = 0
  Multiplicity = 1
  Basis Set: AUG-CC-PVTZ
    Blend: AUG-CC-PVTZ
  Basis Set: (AUG-CC-PVTZ AUX)
    Blend: AUG-CC-PVTZ-JKFIT

    Orbital Energies [Eh]
    ---------------------

    Doubly Occupied:

       1A    -20.558230     2A    -20.548959     3A    -11.345874
       4A    -11.338405     5A    -11.257903     6A    -11.252784
       7A    -11.235620     8A    -11.226025     9A    -11.225907
      10A    -11.217388    11A     -1.392461    12A     -1.378752
      13A     -1.109810    14A     -1.061420    15A     -1.024068
      16A     -0.969901    17A     -0.894886    18A     -0.846328
      19A     -0.769102    20A     -0.725723    21A     -0.684013
      22A     -0.674620    23A     -0.644729    24A     -0.626752
      25A     -0.624256    26A     -0.602307    27A     -0.591674
      28A     -0.568738    29A     -0.556332    30A     -0.537523
      31A     -0.534886    32A     -0.522824    33A     -0.512995
      34A     -0.506896    35A     -0.498311    36A     -0.487007
      37A     -0.482724    38A     -0.427089    39A     -0.407455

  @DF-RHF Final Energy:  -460.98641676121753

   => Energetics <=

    Nuclear Repulsion Energy =            551.5809566644509232
    One-Electron Energy =               -1721.3933904303628424
    Two-Electron Energy =                 708.8260170046943358
    Total Energy =                       -460.9864167612175834
  Basis Set: (AUG-CC-PVTZ AUX)
    Blend: AUG-CC-PVTZ-RI
    Molecular point group: c1

    Geometry (in Angstrom), charge = 0, multiplicity = 1:

       Center              X                  Y                   Z               Mass
    ------------   -----------------  -----------------  -----------------  -----------------
         O           -1.180733485517    -0.788901117225    -1.087138997032    15.994914619570
         O            2.233160514483    -0.803496117225    -0.726866997032    15.994914619570
         C            0.385647514483     0.272428882775     0.385424002968    12.000000000000
         C            0.841242514483     1.566644882775    -0.304566997032    12.000000000000
         C           -1.018729485517    -0.080113117225    -0.095280997032    12.000000000000
         C            1.318474514483    -0.900377117225     0.084481002968    12.000000000000
         C           -2.183076485517     0.504706882775     0.677179002968    12.000000000000
         C            2.093855514483     2.164387882775     0.330059002968    12.000000000000
         C            1.037585514483    -2.189971117225     0.820713002968    12.000000000000
         C           -3.522618485517     0.294083882775    -0.013150997032    12.000000000000
         H            0.358070514483     0.428028882775     1.474907002968     1.007825032230
         H            1.007676214483     1.354658582775    -1.261181197032     1.007825032230
         H            0.027285514483     2.301185882775    -0.269024997032     1.007825032230
         H           -1.984139485517     1.569361882775     0.854594002968     1.007825032230
         H           -2.173228485517     0.037804882775     1.672648002968     1.007825032230
         H            2.931259514483     1.468614882775     0.256304002968     1.007825032230
         H            2.377505514483     3.090832882775    -0.177778997032     1.007825032230
         H            1.923669514483     2.399697882775     1.385802002968     1.007825032230
         H           -3.713337485517    -0.769411117225    -0.167242997032     1.007825032230
         H           -3.531172485517     0.775559882775    -0.993408997032     1.007825032230
         H           -4.334302485517     0.713178882775     0.587072002968     1.007825032230
         H            0.918325514483    -2.011846117225     1.894120002968     1.007825032230
         H            1.856226514483    -2.889617117225     0.647067002968     1.007825032230
         H            0.107199514483    -2.625007117225     0.443045002968     1.007825032230

  Basis Set: AUG-CC-PVTZ
    Blend: AUG-CC-PVTZ
  Basis Set: (AUG-CC-PVTZ AUX)
    Blend: AUG-CC-PVTZ-JKFIT
	 Reference Energy          =    -460.9864167612175265 [Eh]
	 Singles Energy            =      -0.0000000000000000 [Eh]
	 Same-Spin Energy          =      -0.4686853148090984 [Eh]
	 Opposite-Spin Energy      =      -1.5680196135837741 [Eh]
	 Correlation Energy        =      -2.0367049283928722 [Eh]
	 Total Energy              =    -463.0231216896103774 [Eh]

	 ================> DF-SCS-MP2 Energies <==================
	-----------------------------------------------------------
	 SCS Same-Spin Scale       =       0.3333333333333333 [-]
	 SCS Opposite-Spin Scale   =       1.2000000000000000 [-]
	 SCS Same-Spin Energy      =      -0.1562284382696995 [Eh]
	 SCS Opposite-Spin Energy  =      -1.8816235363005287 [Eh]
	 SCS Correlation Energy    =      -2.0378519745702279 [Eh]
	 SCS Total Energy          =    -463.0242687357877571 [Eh]
	-----------------------------------------------------------

  Dipole Moment: [D]
     X:    -1.7834      Y:     1.4168      Z:     3.5678     Total:     4.2329

*** Psi4 exiting successfully. Buy a developer a beer!
