                               Psi4 1.4a3.dev225

  ==> Input File <==

--------------------------------------------------------------------------
#psi4
#
memory 32 gb

molecule  {
0 1
  O       -1.1540860    -0.8257380    -1.1262130
  O        2.2598080    -0.8403330    -0.7659410
  C        0.4122950     0.2355920     0.3463500
  C        0.8678900     1.5298080    -0.3436410
  C       -0.9920820    -0.1169500    -0.1343550
  C        1.3451220    -0.9372140     0.0454070
  C       -2.1564290     0.4678700     0.6381050
  C        2.1205030     2.1275510     0.2909850
  C        1.0642330    -2.2268080     0.7816390
  C       -3.4959710     0.2572470    -0.0522250
  H        0.3847180     0.3911920     1.4358330
  H        1.0510700     1.2964920    -1.3965080
  H        0.0910333     2.2308685    -0.3097190
  H       -1.9574920     1.5325250     0.8155200
  H       -2.1465810     0.0009680     1.6335740
  H        2.9579070     1.4317780     0.2172300
  H        2.4041530     3.0539960    -0.2168530
  H        1.9503170     2.3628610     1.3467280
  H       -3.6866900    -0.8062480    -0.2063170
  H       -3.5045250     0.7387230    -1.0324830
  H       -4.3076550     0.6763420     0.5479980
  H        0.9449730    -2.0486830     1.8550460
  H        1.8828740    -2.9264540     0.6079930
  H        0.1338470    -2.6618440     0.4039710
units angstrom
no_reorient  #important for SAPT in psi4, default
symmetry c1  #important for SAPT in psi4, default
}

set PROPERTIES_ORIGIN ["COM"]
properties('MP2/aug-cc-pvtz', properties = ['dipole'])
--------------------------------------------------------------------------

    Molecular point group: c1
  Charge       = 0
  Multiplicity = 1
  Basis Set: AUG-CC-PVTZ
    Blend: AUG-CC-PVTZ
  Basis Set: (AUG-CC-PVTZ AUX)
    Blend: AUG-CC-PVTZ-JKFIT

    Orbital Energies [Eh]
    ---------------------

    Doubly Occupied:

       1A    -20.558198     2A    -20.548414     3A    -11.345841
       4A    -11.337905     5A    -11.258075     6A    -11.253112
       7A    -11.235392     8A    -11.231149     9A    -11.226071
      10A    -11.217484    11A     -1.392291    12A     -1.378240
      13A     -1.108509    14A     -1.061098    15A     -1.023002
      16A     -0.969606    17A     -0.894797    18A     -0.842083
      19A     -0.768541    20A     -0.723375    21A     -0.683145
      22A     -0.674530    23A     -0.645045    24A     -0.626306
      25A     -0.623240    26A     -0.600417    27A     -0.592193
      28A     -0.568047    29A     -0.556314    30A     -0.537547
      31A     -0.534918    32A     -0.522765    33A     -0.511180
      34A     -0.508927    35A     -0.492224    36A     -0.484698
      37A     -0.483124    38A     -0.427043    39A     -0.407448

  @DF-RHF Final Energy:  -460.99127515675150

   => Energetics <=

    Nuclear Repulsion Energy =            551.3328455973893369
    One-Electron Energy =               -1720.9436499968467160
    Two-Electron Energy =                 708.6195292427057666
    Total Energy =                       -460.9912751567514988
  Basis Set: (AUG-CC-PVTZ AUX)
    Blend: AUG-CC-PVTZ-RI
    Molecular point group: c1

    Geometry (in Angstrom), charge = 0, multiplicity = 1:

       Center              X                  Y                   Z               Mass
    ------------   -----------------  -----------------  -----------------  -----------------
         O           -1.181115386913    -0.788512381597    -1.086444844404    15.994914619570
         O            2.232778613087    -0.803107381597    -0.726172844404    15.994914619570
         C            0.385265613087     0.272817618403     0.386118155596    12.000000000000
         C            0.840860613087     1.567033618403    -0.303872844404    12.000000000000
         C           -1.019111386913    -0.079724381597    -0.094586844404    12.000000000000
         C            1.318092613087    -0.899988381597     0.085175155596    12.000000000000
         C           -2.183458386913     0.505095618403     0.677873155596    12.000000000000
         C            2.093473613087     2.164776618403     0.330753155596    12.000000000000
         C            1.037203613087    -2.189582381597     0.821407155596    12.000000000000
         C           -3.523000386913     0.294472618403    -0.012456844404    12.000000000000
         H            0.357688613087     0.428417618403     1.475601155596     1.007825032230
         H            1.024040613087     1.333717618403    -1.356739844404     1.007825032230
         H            0.064003913087     2.268094118403    -0.269950844404     1.007825032230
         H           -1.984521386913     1.569750618403     0.855288155596     1.007825032230
         H           -2.173610386913     0.038193618403     1.673342155596     1.007825032230
         H            2.930877613087     1.469003618403     0.256998155596     1.007825032230
         H            2.377123613087     3.091221618403    -0.177084844404     1.007825032230
         H            1.923287613087     2.400086618403     1.386496155596     1.007825032230
         H           -3.713719386913    -0.769022381597    -0.166548844404     1.007825032230
         H           -3.531554386913     0.775948618403    -0.992714844404     1.007825032230
         H           -4.334684386913     0.713567618403     0.587766155596     1.007825032230
         H            0.917943613087    -2.011457381597     1.894814155596     1.007825032230
         H            1.855844613087    -2.889228381597     0.647761155596     1.007825032230
         H            0.106817613087    -2.624618381597     0.443739155596     1.007825032230

  Basis Set: AUG-CC-PVTZ
    Blend: AUG-CC-PVTZ
  Basis Set: (AUG-CC-PVTZ AUX)
    Blend: AUG-CC-PVTZ-JKFIT
	 Reference Energy          =    -460.9912751567514988 [Eh]
	 Singles Energy            =      -0.0000000000000000 [Eh]
	 Same-Spin Energy          =      -0.4688210170114224 [Eh]
	 Opposite-Spin Energy      =      -1.5683767317761346 [Eh]
	 Correlation Energy        =      -2.0371977487875572 [Eh]
	 Total Energy              =    -463.0284729055390471 [Eh]

	 ================> DF-SCS-MP2 Energies <==================
	-----------------------------------------------------------
	 SCS Same-Spin Scale       =       0.3333333333333333 [-]
	 SCS Opposite-Spin Scale   =       1.2000000000000000 [-]
	 SCS Same-Spin Energy      =      -0.1562736723371408 [Eh]
	 SCS Opposite-Spin Energy  =      -1.8820520781313614 [Eh]
	 SCS Correlation Energy    =      -2.0383257504685024 [Eh]
	 SCS Total Energy          =    -463.0296009072200150 [Eh]
	-----------------------------------------------------------

  Dipole Moment: [D]
     X:    -1.8022      Y:     1.4319      Z:     3.5858     Total:     4.2610

*** Psi4 exiting successfully. Buy a developer a beer!
