                               Psi4 1.4a3.dev225

  ==> Input File <==

--------------------------------------------------------------------------
#psi4
#
memory 32 gb

molecule  {
0 1
  O       -1.1540860    -0.8257380    -1.1262130
  O        2.2598080    -0.8403330    -0.7659410
  C        0.4122950     0.2355920     0.3463500
  C        0.8678900     1.5298080    -0.3436410
  C       -0.9920820    -0.1169500    -0.1343550
  C        1.3451220    -0.9372140     0.0454070
  C       -2.1564290     0.4678700     0.6381050
  C        2.1205030     2.1275510     0.2909850
  C        1.0642330    -2.2268080     0.7816390
  C       -3.4959710     0.2572470    -0.0522250
  H        0.3847180     0.3911920     1.4358330
  H        1.0477207     1.3007579    -1.3772574
  H        0.0539330     2.2643490    -0.3080990
  H       -1.9574920     1.5325250     0.8155200
  H       -2.1465810     0.0009680     1.6335740
  H        2.9579070     1.4317780     0.2172300
  H        2.4041530     3.0539960    -0.2168530
  H        1.9503170     2.3628610     1.3467280
  H       -3.6866900    -0.8062480    -0.2063170
  H       -3.5045250     0.7387230    -1.0324830
  H       -4.3076550     0.6763420     0.5479980
  H        0.9449730    -2.0486830     1.8550460
  H        1.8828740    -2.9264540     0.6079930
  H        0.1338470    -2.6618440     0.4039710
units angstrom
no_reorient  #important for SAPT in psi4, default
symmetry c1  #important for SAPT in psi4, default
}

set PROPERTIES_ORIGIN ["COM"]
properties('MP2/aug-cc-pvtz', properties = ['dipole'])
--------------------------------------------------------------------------

    Molecular point group: c1
  Charge       = 0
  Multiplicity = 1
  Basis Set: AUG-CC-PVTZ
    Blend: AUG-CC-PVTZ
  Basis Set: (AUG-CC-PVTZ AUX)
    Blend: AUG-CC-PVTZ-JKFIT

    Orbital Energies [Eh]
    ---------------------

    Doubly Occupied:

       1A    -20.558190     2A    -20.548815     3A    -11.345880
       4A    -11.338336     5A    -11.258412     6A    -11.252848
       7A    -11.235642     8A    -11.235261     9A    -11.225916
      10A    -11.217873    11A     -1.392366    12A     -1.378614
      13A     -1.107968    14A     -1.060819    15A     -1.022764
      16A     -0.969659    17A     -0.894775    18A     -0.839125
      19A     -0.768721    20A     -0.723807    21A     -0.683282
      22A     -0.673602    23A     -0.644369    24A     -0.626139
      25A     -0.623420    26A     -0.599757    27A     -0.591762
      28A     -0.568251    29A     -0.556470    30A     -0.537642
      31A     -0.534903    32A     -0.522666    33A     -0.510403
      34A     -0.506916    35A     -0.493419    36A     -0.485284
      37A     -0.482865    38A     -0.427184    39A     -0.407462

  @DF-RHF Final Energy:  -460.99224418471493

   => Energetics <=

    Nuclear Repulsion Energy =            551.1837242557264744
    One-Electron Energy =               -1720.6487594783245640
    Two-Electron Energy =                 708.4727910378830984
    Total Energy =                       -460.9922441847149912
  Basis Set: (AUG-CC-PVTZ AUX)
    Blend: AUG-CC-PVTZ-RI
    Molecular point group: c1

    Geometry (in Angstrom), charge = 0, multiplicity = 1:

       Center              X                  Y                   Z               Mass
    ------------   -----------------  -----------------  -----------------  -----------------
         O           -1.180828502343    -0.788780094003    -1.086592866958    15.994914619570
         O            2.233065497657    -0.803375094003    -0.726320866958    15.994914619570
         C            0.385552497657     0.272549905997     0.385970133042    12.000000000000
         C            0.841147497657     1.566765905997    -0.304020866958    12.000000000000
         C           -1.018824502343    -0.079992094003    -0.094734866958    12.000000000000
         C            1.318379497657    -0.900256094003     0.085027133042    12.000000000000
         C           -2.183171502343     0.504827905997     0.677725133042    12.000000000000
         C            2.093760497657     2.164508905997     0.330605133042    12.000000000000
         C            1.037490497657    -2.189850094003     0.821259133042    12.000000000000
         C           -3.522713502343     0.294204905997    -0.012604866958    12.000000000000
         H            0.357975497657     0.428149905997     1.475453133042     1.007825032230
         H            1.020978197657     1.337715805997    -1.337637266958     1.007825032230
         H            0.027190497657     2.301306905997    -0.268478866958     1.007825032230
         H           -1.984234502343     1.569482905997     0.855140133042     1.007825032230
         H           -2.173323502343     0.037925905997     1.673194133042     1.007825032230
         H            2.931164497657     1.468735905997     0.256850133042     1.007825032230
         H            2.377410497657     3.090953905997    -0.177232866958     1.007825032230
         H            1.923574497657     2.399818905997     1.386348133042     1.007825032230
         H           -3.713432502343    -0.769290094003    -0.166696866958     1.007825032230
         H           -3.531267502343     0.775680905997    -0.992862866958     1.007825032230
         H           -4.334397502343     0.713299905997     0.587618133042     1.007825032230
         H            0.918230497657    -2.011725094003     1.894666133042     1.007825032230
         H            1.856131497657    -2.889496094003     0.647613133042     1.007825032230
         H            0.107104497657    -2.624886094003     0.443591133042     1.007825032230

  Basis Set: AUG-CC-PVTZ
    Blend: AUG-CC-PVTZ
  Basis Set: (AUG-CC-PVTZ AUX)
    Blend: AUG-CC-PVTZ-JKFIT
	 Reference Energy          =    -460.9922441847149344 [Eh]
	 Singles Energy            =      -0.0000000000000000 [Eh]
	 Same-Spin Energy          =      -0.4688095161092573 [Eh]
	 Opposite-Spin Energy      =      -1.5685360250527693 [Eh]
	 Correlation Energy        =      -2.0373455411620265 [Eh]
	 Total Energy              =    -463.0295897258769742 [Eh]

	 ================> DF-SCS-MP2 Energies <==================
	-----------------------------------------------------------
	 SCS Same-Spin Scale       =       0.3333333333333333 [-]
	 SCS Opposite-Spin Scale   =       1.2000000000000000 [-]
	 SCS Same-Spin Energy      =      -0.1562698387030858 [Eh]
	 SCS Opposite-Spin Energy  =      -1.8822432300633232 [Eh]
	 SCS Correlation Energy    =      -2.0385130687664090 [Eh]
	 SCS Total Energy          =    -463.0307572534813403 [Eh]
	-----------------------------------------------------------

  Dipole Moment: [D]
     X:    -1.7753      Y:     1.4115      Z:     3.5849     Total:     4.2421

*** Psi4 exiting successfully. Buy a developer a beer!
