                               Psi4 1.4a3.dev225

  ==> Input File <==

--------------------------------------------------------------------------
#psi4
#
memory 32 gb

molecule  {
0 1
  O       -1.1540860    -0.8257380    -1.1262130
  O        2.2598080    -0.8403330    -0.7659410
  C        0.4122950     0.2355920     0.3463500
  C        0.8678900     1.5298080    -0.3436410
  C       -0.9920820    -0.1169500    -0.1343550
  C        1.3451220    -0.9372140     0.0454070
  C       -2.1564290     0.4678700     0.6381050
  C        2.1205030     2.1275510     0.2909850
  C        1.0642330    -2.2268080     0.7816390
  C       -3.4959710     0.2572470    -0.0522250
  H        0.3847180     0.3911920     1.4358330
  H        1.0510700     1.2964920    -1.3965080
  H        0.0539330     2.2643490    -0.3080990
  H       -1.9574920     1.5325250     0.8155200
  H       -2.1465810     0.0009680     1.6335740
  H        2.9579070     1.4317780     0.2172300
  H        2.4041530     3.0539960    -0.2168530
  H        1.9503170     2.3628610     1.3467280
  H       -3.7504427    -0.7980093    -0.1654413
  H       -3.5045250     0.7387230    -1.0324830
  H       -4.3076550     0.6763420     0.5479980
  H        0.9449730    -2.0486830     1.8550460
  H        1.8828740    -2.9264540     0.6079930
  H        0.1338470    -2.6618440     0.4039710
units angstrom
no_reorient  #important for SAPT in psi4, default
symmetry c1  #important for SAPT in psi4, default
}

set PROPERTIES_ORIGIN ["COM"]
properties('MP2/aug-cc-pvtz', properties = ['dipole'])
--------------------------------------------------------------------------

    Molecular point group: c1
  Charge       = 0
  Multiplicity = 1
  Basis Set: AUG-CC-PVTZ
    Blend: AUG-CC-PVTZ
  Basis Set: (AUG-CC-PVTZ AUX)
    Blend: AUG-CC-PVTZ-JKFIT

    Orbital Energies [Eh]
    ---------------------

    Doubly Occupied:

       1A    -20.557952     2A    -20.548717     3A    -11.345681
       4A    -11.338270     5A    -11.258501     6A    -11.253430
       7A    -11.237513     8A    -11.235577     9A    -11.226156
      10A    -11.218005    11A     -1.392067    12A     -1.378479
      13A     -1.107582    14A     -1.060523    15A     -1.022442
      16A     -0.969584    17A     -0.895505    18A     -0.837601
      19A     -0.768825    20A     -0.723259    21A     -0.682490
      22A     -0.673191    23A     -0.645035    24A     -0.626605
      25A     -0.622353    26A     -0.599153    27A     -0.591898
      28A     -0.567187    29A     -0.556637    30A     -0.537901
      31A     -0.535311    32A     -0.521238    33A     -0.510888
      34A     -0.506842    35A     -0.492346    36A     -0.484226
      37A     -0.482806    38A     -0.427042    39A     -0.407384

  @DF-RHF Final Energy:  -460.99168180429791

   => Energetics <=

    Nuclear Repulsion Energy =            550.9599888445236502
    One-Electron Energy =               -1720.2109371031497176
    Two-Electron Energy =                 708.2592664543280989
    Total Energy =                       -460.9916818042979685
  Basis Set: (AUG-CC-PVTZ AUX)
    Blend: AUG-CC-PVTZ-RI
    Molecular point group: c1

    Geometry (in Angstrom), charge = 0, multiplicity = 1:

       Center              X                  Y                   Z               Mass
    ------------   -----------------  -----------------  -----------------  -----------------
         O           -1.180400097527    -0.788808270673    -1.086746240725    15.994914619570
         O            2.233493902473    -0.803403270673    -0.726474240725    15.994914619570
         C            0.385980902473     0.272521729327     0.385816759275    12.000000000000
         C            0.841575902473     1.566737729327    -0.304174240725    12.000000000000
         C           -1.018396097527    -0.080020270673    -0.094888240725    12.000000000000
         C            1.318807902473    -0.900284270673     0.084873759275    12.000000000000
         C           -2.182743097527     0.504799729327     0.677571759275    12.000000000000
         C            2.094188902473     2.164480729327     0.330451759275    12.000000000000
         C            1.037918902473    -2.189878270673     0.821105759275    12.000000000000
         C           -3.522285097527     0.294176729327    -0.012758240725    12.000000000000
         H            0.358403902473     0.428121729327     1.475299759275     1.007825032230
         H            1.024755902473     1.333421729327    -1.357041240725     1.007825032230
         H            0.027618902473     2.301278729327    -0.268632240725     1.007825032230
         H           -1.983806097527     1.569454729327     0.854986759275     1.007825032230
         H           -2.172895097527     0.037897729327     1.673040759275     1.007825032230
         H            2.931592902473     1.468707729327     0.256696759275     1.007825032230
         H            2.377838902473     3.090925729327    -0.177386240725     1.007825032230
         H            1.924002902473     2.399790729327     1.386194759275     1.007825032230
         H           -3.776756797527    -0.761079570673    -0.125974540725     1.007825032230
         H           -3.530839097527     0.775652729327    -0.993016240725     1.007825032230
         H           -4.333969097527     0.713271729327     0.587464759275     1.007825032230
         H            0.918658902473    -2.011753270673     1.894512759275     1.007825032230
         H            1.856559902473    -2.889524270673     0.647459759275     1.007825032230
         H            0.107532902473    -2.624914270673     0.443437759275     1.007825032230

  Basis Set: AUG-CC-PVTZ
    Blend: AUG-CC-PVTZ
  Basis Set: (AUG-CC-PVTZ AUX)
    Blend: AUG-CC-PVTZ-JKFIT
	 Reference Energy          =    -460.9916818042979116 [Eh]
	 Singles Energy            =      -0.0000000000000000 [Eh]
	 Same-Spin Energy          =      -0.4688184768749966 [Eh]
	 Opposite-Spin Energy      =      -1.5686777819619957 [Eh]
	 Correlation Energy        =      -2.0374962588369923 [Eh]
	 Total Energy              =    -463.0291780631349070 [Eh]

	 ================> DF-SCS-MP2 Energies <==================
	-----------------------------------------------------------
	 SCS Same-Spin Scale       =       0.3333333333333333 [-]
	 SCS Opposite-Spin Scale   =       1.2000000000000000 [-]
	 SCS Same-Spin Energy      =      -0.1562728256249988 [Eh]
	 SCS Opposite-Spin Energy  =      -1.8824133383543948 [Eh]
	 SCS Correlation Energy    =      -2.0386861639793938 [Eh]
	 SCS Total Energy          =    -463.0303679682772895 [Eh]
	-----------------------------------------------------------

  Dipole Moment: [D]
     X:    -1.7949      Y:     1.4066      Z:     3.6061     Total:     4.2666

*** Psi4 exiting successfully. Buy a developer a beer!
