                               Psi4 1.4a3.dev225

  ==> Input File <==

--------------------------------------------------------------------------
#psi4
#
memory 32 gb

molecule  {
0 1
  O       -1.1540860    -0.8257380    -1.1262130
  O        2.2598080    -0.8403330    -0.7659410
  C        0.4122950     0.2355920     0.3463500
  C        0.8678900     1.5298080    -0.3436410
  C       -0.9920820    -0.1169500    -0.1343550
  C        1.3451220    -0.9372140     0.0454070
  C       -2.1564290     0.4678700     0.6381050
  C        2.1205030     2.1275510     0.2909850
  C        1.0642330    -2.2268080     0.7816390
  C       -3.4959710     0.2572470    -0.0522250
  H        0.3847180     0.3911920     1.4358330
  H        1.0510700     1.2964920    -1.3965080
  H        0.0539330     2.2643490    -0.3080990
  H       -1.9574920     1.5325250     0.8155200
  H       -2.1465810     0.0009680     1.6335740
  H        2.9579070     1.4317780     0.2172300
  H        2.4041530     3.0539960    -0.2168530
  H        1.9503170     2.3628610     1.3467280
  H       -3.7818734    -0.7919586    -0.1447840
  H       -3.5045250     0.7387230    -1.0324830
  H       -4.3076550     0.6763420     0.5479980
  H        0.9449730    -2.0486830     1.8550460
  H        1.8828740    -2.9264540     0.6079930
  H        0.1338470    -2.6618440     0.4039710
units angstrom
no_reorient  #important for SAPT in psi4, default
symmetry c1  #important for SAPT in psi4, default
}

set PROPERTIES_ORIGIN ["COM"]
properties('MP2/aug-cc-pvtz', properties = ['dipole'])
--------------------------------------------------------------------------

    Molecular point group: c1
  Charge       = 0
  Multiplicity = 1
  Basis Set: AUG-CC-PVTZ
    Blend: AUG-CC-PVTZ
  Basis Set: (AUG-CC-PVTZ AUX)
    Blend: AUG-CC-PVTZ-JKFIT

    Orbital Energies [Eh]
    ---------------------

    Doubly Occupied:

       1A    -20.557855     2A    -20.548691     3A    -11.345591
       4A    -11.338248     5A    -11.258479     6A    -11.253719
       7A    -11.237514     8A    -11.235543     9A    -11.226265
      10A    -11.218003    11A     -1.391950    12A     -1.378437
      13A     -1.107570    14A     -1.060464    15A     -1.022418
      16A     -0.969576    17A     -0.895926    18A     -0.837603
      19A     -0.768930    20A     -0.723207    21A     -0.682229
      22A     -0.673131    23A     -0.645427    24A     -0.626871
      25A     -0.621972    26A     -0.599175    27A     -0.591966
      28A     -0.566784    29A     -0.556786    30A     -0.538269
      31A     -0.536169    32A     -0.519405    33A     -0.511165
      34A     -0.506789    35A     -0.492306    36A     -0.484197
      37A     -0.482745    38A     -0.426964    39A     -0.407345

  @DF-RHF Final Energy:  -460.99103071238477

   => Energetics <=

    Nuclear Repulsion Energy =            550.8985630290773088
    One-Electron Energy =               -1720.0878192299467173
    Two-Electron Energy =                 708.1982254884844679
    Total Energy =                       -460.9910307123848270
  Basis Set: (AUG-CC-PVTZ AUX)
    Blend: AUG-CC-PVTZ-RI
    Molecular point group: c1

    Geometry (in Angstrom), charge = 0, multiplicity = 1:

       Center              X                  Y                   Z               Mass
    ------------   -----------------  -----------------  -----------------  -----------------
         O           -1.180177178565    -0.788851184632    -1.086892750471    15.994914619570
         O            2.233716821435    -0.803446184632    -0.726620750471    15.994914619570
         C            0.386203821435     0.272478815368     0.385670249529    12.000000000000
         C            0.841798821435     1.566694815368    -0.304320750471    12.000000000000
         C           -1.018173178565    -0.080063184632    -0.095034750471    12.000000000000
         C            1.319030821435    -0.900327184632     0.084727249529    12.000000000000
         C           -2.182520178565     0.504756815368     0.677425249529    12.000000000000
         C            2.094411821435     2.164437815368     0.330305249529    12.000000000000
         C            1.038141821435    -2.189921184632     0.820959249529    12.000000000000
         C           -3.522062178565     0.294133815368    -0.012904750471    12.000000000000
         H            0.358626821435     0.428078815368     1.475153249529     1.007825032230
         H            1.024978821435     1.333378815368    -1.357187750471     1.007825032230
         H            0.027841821435     2.301235815368    -0.268778750471     1.007825032230
         H           -1.983583178565     1.569411815368     0.854840249529     1.007825032230
         H           -2.172672178565     0.037854815368     1.672894249529     1.007825032230
         H            2.931815821435     1.468664815368     0.256550249529     1.007825032230
         H            2.378061821435     3.090882815368    -0.177532750471     1.007825032230
         H            1.924225821435     2.399747815368     1.386048249529     1.007825032230
         H           -3.807964578565    -0.755071784632    -0.105463750471     1.007825032230
         H           -3.530616178565     0.775609815368    -0.993162750471     1.007825032230
         H           -4.333746178565     0.713228815368     0.587318249529     1.007825032230
         H            0.918881821435    -2.011796184632     1.894366249529     1.007825032230
         H            1.856782821435    -2.889567184632     0.647313249529     1.007825032230
         H            0.107755821435    -2.624957184632     0.443291249529     1.007825032230

  Basis Set: AUG-CC-PVTZ
    Blend: AUG-CC-PVTZ
  Basis Set: (AUG-CC-PVTZ AUX)
    Blend: AUG-CC-PVTZ-JKFIT
	 Reference Energy          =    -460.9910307123847701 [Eh]
	 Singles Energy            =      -0.0000000000000000 [Eh]
	 Same-Spin Energy          =      -0.4688264615837793 [Eh]
	 Opposite-Spin Energy      =      -1.5686957223619418 [Eh]
	 Correlation Energy        =      -2.0375221839457209 [Eh]
	 Total Energy              =    -463.0285528963304955 [Eh]

	 ================> DF-SCS-MP2 Energies <==================
	-----------------------------------------------------------
	 SCS Same-Spin Scale       =       0.3333333333333333 [-]
	 SCS Opposite-Spin Scale   =       1.2000000000000000 [-]
	 SCS Same-Spin Energy      =      -0.1562754871945931 [Eh]
	 SCS Opposite-Spin Energy  =      -1.8824348668343300 [Eh]
	 SCS Correlation Energy    =      -2.0387103540289231 [Eh]
	 SCS Total Energy          =    -463.0297410664136919 [Eh]
	-----------------------------------------------------------

  Dipole Moment: [D]
     X:    -1.8055      Y:     1.4056      Z:     3.6145     Total:     4.2779

*** Psi4 exiting successfully. Buy a developer a beer!
