                               Psi4 1.4a3.dev225

  ==> Input File <==

--------------------------------------------------------------------------
#psi4
#
memory 32 gb

molecule  {
0 1
  O       -1.1540860    -0.8257380    -1.1262130
  O        2.2598080    -0.8403330    -0.7659410
  C        0.4122950     0.2355920     0.3463500
  C        0.8678900     1.5298080    -0.3436410
  C       -1.0088993    -0.1251861    -0.1530163
  C        1.3451220    -0.9372140     0.0454070
  C       -2.1564290     0.4678700     0.6381050
  C        2.1205030     2.1275510     0.2909850
  C        1.0642330    -2.2268080     0.7816390
  C       -3.4959710     0.2572470    -0.0522250
  H        0.3847180     0.3911920     1.4358330
  H        1.0510700     1.2964920    -1.3965080
  H        0.0539330     2.2643490    -0.3080990
  H       -1.9574920     1.5325250     0.8155200
  H       -2.1465810     0.0009680     1.6335740
  H        2.9579070     1.4317780     0.2172300
  H        2.4041530     3.0539960    -0.2168530
  H        1.9503170     2.3628610     1.3467280
  H       -3.6866900    -0.8062480    -0.2063170
  H       -3.5045250     0.7387230    -1.0324830
  H       -4.3076550     0.6763420     0.5479980
  H        0.9449730    -2.0486830     1.8550460
  H        1.8828740    -2.9264540     0.6079930
  H        0.1338470    -2.6618440     0.4039710
units angstrom
no_reorient  #important for SAPT in psi4, default
symmetry c1  #important for SAPT in psi4, default
}

set PROPERTIES_ORIGIN ["COM"]
properties('MP2/aug-cc-pvtz', properties = ['dipole'])
--------------------------------------------------------------------------

    Molecular point group: c1
  Charge       = 0
  Multiplicity = 1
  Basis Set: AUG-CC-PVTZ
    Blend: AUG-CC-PVTZ
  Basis Set: (AUG-CC-PVTZ AUX)
    Blend: AUG-CC-PVTZ-JKFIT

    Orbital Energies [Eh]
    ---------------------

    Doubly Occupied:

       1A    -20.560403     2A    -20.547825     3A    -11.344509
       4A    -11.337019     5A    -11.257067     6A    -11.252322
       7A    -11.235901     8A    -11.235247     9A    -11.225980
      10A    -11.216974    11A     -1.406450    12A     -1.378854
      13A     -1.104173    14A     -1.060996    15A     -1.021502
      16A     -0.966613    17A     -0.893912    18A     -0.836010
      19A     -0.766218    20A     -0.723560    21A     -0.684946
      22A     -0.672647    23A     -0.644805    24A     -0.629025
      25A     -0.625376    26A     -0.598414    27A     -0.591089
      28A     -0.568069    29A     -0.555792    30A     -0.539312
      31A     -0.535636    32A     -0.524544    33A     -0.510458
      34A     -0.507430    35A     -0.494065    36A     -0.485436
      37A     -0.483043    38A     -0.424997    39A     -0.404173

  @DF-RHF Final Energy:  -460.99378100058686

   => Energetics <=

    Nuclear Repulsion Energy =            551.1159273290759302
    One-Electron Energy =               -1720.5178318540172313
    Two-Electron Energy =                 708.4081235243544370
    Total Energy =                       -460.9937810005868641
  Basis Set: (AUG-CC-PVTZ AUX)
    Blend: AUG-CC-PVTZ-RI
    Molecular point group: c1

    Geometry (in Angstrom), charge = 0, multiplicity = 1:

       Center              X                  Y                   Z               Mass
    ------------   -----------------  -----------------  -----------------  -----------------
         O           -1.179432070549    -0.788054316867    -1.084880425728    15.994914619570
         O            2.234461929451    -0.802649316867    -0.724608425728    15.994914619570
         C            0.386948929451     0.273275683133     0.387682574272    12.000000000000
         C            0.842543929451     1.567491683133    -0.302308425728    12.000000000000
         C           -1.034245370549    -0.087502416867    -0.111683725728    12.000000000000
         C            1.319775929451    -0.899530316867     0.086739574272    12.000000000000
         C           -2.181775070549     0.505553683133     0.679437574272    12.000000000000
         C            2.095156929451     2.165234683133     0.332317574272    12.000000000000
         C            1.038886929451    -2.189124316867     0.822971574272    12.000000000000
         C           -3.521317070549     0.294930683133    -0.010892425728    12.000000000000
         H            0.359371929451     0.428875683133     1.477165574272     1.007825032230
         H            1.025723929451     1.334175683133    -1.355175425728     1.007825032230
         H            0.028586929451     2.302032683133    -0.266766425728     1.007825032230
         H           -1.982838070549     1.570208683133     0.856852574272     1.007825032230
         H           -2.171927070549     0.038651683133     1.674906574272     1.007825032230
         H            2.932560929451     1.469461683133     0.258562574272     1.007825032230
         H            2.378806929451     3.091679683133    -0.175520425728     1.007825032230
         H            1.924970929451     2.400544683133     1.388060574272     1.007825032230
         H           -3.712036070549    -0.768564316867    -0.164984425728     1.007825032230
         H           -3.529871070549     0.776406683133    -0.991150425728     1.007825032230
         H           -4.333001070549     0.714025683133     0.589330574272     1.007825032230
         H            0.919626929451    -2.010999316867     1.896378574272     1.007825032230
         H            1.857527929451    -2.888770316867     0.649325574272     1.007825032230
         H            0.108500929451    -2.624160316867     0.445303574272     1.007825032230

  Basis Set: AUG-CC-PVTZ
    Blend: AUG-CC-PVTZ
  Basis Set: (AUG-CC-PVTZ AUX)
    Blend: AUG-CC-PVTZ-JKFIT
	 Reference Energy          =    -460.9937810005868641 [Eh]
	 Singles Energy            =      -0.0000000000000000 [Eh]
	 Same-Spin Energy          =      -0.4681959942843629 [Eh]
	 Opposite-Spin Energy      =      -1.5673468282589835 [Eh]
	 Correlation Energy        =      -2.0355428225433463 [Eh]
	 Total Energy              =    -463.0293238231301984 [Eh]

	 ================> DF-SCS-MP2 Energies <==================
	-----------------------------------------------------------
	 SCS Same-Spin Scale       =       0.3333333333333333 [-]
	 SCS Opposite-Spin Scale   =       1.2000000000000000 [-]
	 SCS Same-Spin Energy      =      -0.1560653314281210 [Eh]
	 SCS Opposite-Spin Energy  =      -1.8808161939107801 [Eh]
	 SCS Correlation Energy    =      -2.0368815253389010 [Eh]
	 SCS Total Energy          =    -463.0306625259257771 [Eh]
	-----------------------------------------------------------

  Dipole Moment: [D]
     X:    -1.8807      Y:     1.3614      Z:     3.5343     Total:     4.2286

*** Psi4 exiting successfully. Buy a developer a beer!
