                               Psi4 1.4a3.dev225

  ==> Input File <==

--------------------------------------------------------------------------
#psi4
#
memory 32 gb

molecule  {
0 1
  O       -1.1540860    -0.8257380    -1.1262130
  O        2.2598080    -0.8403330    -0.7659410
  C        0.4122950     0.2355920     0.3463500
  C        0.8678900     1.5298080    -0.3436410
  C       -0.9920820    -0.1169500    -0.1343550
  C        1.3451220    -0.9372140     0.0454070
  C       -2.1564290     0.4678700     0.6381050
  C        2.1205030     2.1275510     0.2909850
  C        1.0642330    -2.2268080     0.7816390
  C       -3.4959710     0.2572470    -0.0522250
  H        0.3847180     0.3911920     1.4358330
  H        1.0510700     1.2964920    -1.3965080
  H        0.0539330     2.2643490    -0.3080990
  H       -1.9574920     1.5325250     0.8155200
  H       -2.1465810     0.0009680     1.6335740
  H        2.9643131     1.4367864     0.3311614
  H        2.4041530     3.0539960    -0.2168530
  H        1.9503170     2.3628610     1.3467280
  H       -3.6866900    -0.8062480    -0.2063170
  H       -3.5045250     0.7387230    -1.0324830
  H       -4.3076550     0.6763420     0.5479980
  H        0.9449730    -2.0486830     1.8550460
  H        1.8828740    -2.9264540     0.6079930
  H        0.1338470    -2.6618440     0.4039710
units angstrom
no_reorient  #important for SAPT in psi4, default
symmetry c1  #important for SAPT in psi4, default
}

set PROPERTIES_ORIGIN ["COM"]
properties('MP2/aug-cc-pvtz', properties = ['dipole'])
--------------------------------------------------------------------------

    Molecular point group: c1
  Charge       = 0
  Multiplicity = 1
  Basis Set: AUG-CC-PVTZ
    Blend: AUG-CC-PVTZ
  Basis Set: (AUG-CC-PVTZ AUX)
    Blend: AUG-CC-PVTZ-JKFIT

    Orbital Energies [Eh]
    ---------------------

    Doubly Occupied:

       1A    -20.558263     2A    -20.548550     3A    -11.345937
       4A    -11.338089     5A    -11.258687     6A    -11.252948
       7A    -11.238393     8A    -11.235620     9A    -11.225980
      10A    -11.218455    11A     -1.392355    12A     -1.378296
      13A     -1.107664    14A     -1.060746    15A     -1.022335
      16A     -0.969620    17A     -0.894902    18A     -0.839288
      19A     -0.768720    20A     -0.723443    21A     -0.683033
      22A     -0.672664    23A     -0.644867    24A     -0.626446
      25A     -0.622892    26A     -0.596619    27A     -0.592261
      28A     -0.568074    29A     -0.558107    30A     -0.537077
      31A     -0.534312    32A     -0.522540    33A     -0.513409
      34A     -0.507026    35A     -0.492095    36A     -0.483948
      37A     -0.480678    38A     -0.427252    39A     -0.407570

  @DF-RHF Final Energy:  -460.99103390531809

   => Energetics <=

    Nuclear Repulsion Energy =            551.0157657034534395
    One-Electron Energy =               -1720.3152789018242856
    Two-Electron Energy =                 708.3084792930526419
    Total Energy =                       -460.9910339053180905
  Basis Set: (AUG-CC-PVTZ AUX)
    Blend: AUG-CC-PVTZ-RI
    Molecular point group: c1

    Geometry (in Angstrom), charge = 0, multiplicity = 1:

       Center              X                  Y                   Z               Mass
    ------------   -----------------  -----------------  -----------------  -----------------
         O           -1.180897691500    -0.788785360107    -1.087264380659    15.994914619570
         O            2.232996308500    -0.803380360107    -0.726992380659    15.994914619570
         C            0.385483308500     0.272544639893     0.385298619341    12.000000000000
         C            0.841078308500     1.566760639893    -0.304692380659    12.000000000000
         C           -1.018893691500    -0.079997360107    -0.095406380659    12.000000000000
         C            1.318310308500    -0.900261360107     0.084355619341    12.000000000000
         C           -2.183240691500     0.504822639893     0.677053619341    12.000000000000
         C            2.093691308500     2.164503639893     0.329933619341    12.000000000000
         C            1.037421308500    -2.189855360107     0.820587619341    12.000000000000
         C           -3.522782691500     0.294199639893    -0.013276380659    12.000000000000
         H            0.357906308500     0.428144639893     1.474781619341     1.007825032230
         H            1.024258308500     1.333444639893    -1.357559380659     1.007825032230
         H            0.027121308500     2.301301639893    -0.269150380659     1.007825032230
         H           -1.984303691500     1.569477639893     0.854468619341     1.007825032230
         H           -2.173392691500     0.037920639893     1.672522619341     1.007825032230
         H            2.937501408500     1.473739039893     0.370110019341     1.007825032230
         H            2.377341308500     3.090948639893    -0.177904380659     1.007825032230
         H            1.923505308500     2.399813639893     1.385676619341     1.007825032230
         H           -3.713501691500    -0.769295360107    -0.167368380659     1.007825032230
         H           -3.531336691500     0.775675639893    -0.993534380659     1.007825032230
         H           -4.334466691500     0.713294639893     0.586946619341     1.007825032230
         H            0.918161308500    -2.011730360107     1.893994619341     1.007825032230
         H            1.856062308500    -2.889501360107     0.646941619341     1.007825032230
         H            0.107035308500    -2.624891360107     0.442919619341     1.007825032230

  Basis Set: AUG-CC-PVTZ
    Blend: AUG-CC-PVTZ
  Basis Set: (AUG-CC-PVTZ AUX)
    Blend: AUG-CC-PVTZ-JKFIT
	 Reference Energy          =    -460.9910339053180905 [Eh]
	 Singles Energy            =      -0.0000000000000000 [Eh]
	 Same-Spin Energy          =      -0.4688441597920676 [Eh]
	 Opposite-Spin Energy      =      -1.5687201034823746 [Eh]
	 Correlation Energy        =      -2.0375642632744420 [Eh]
	 Total Energy              =    -463.0285981685925094 [Eh]

	 ================> DF-SCS-MP2 Energies <==================
	-----------------------------------------------------------
	 SCS Same-Spin Scale       =       0.3333333333333333 [-]
	 SCS Opposite-Spin Scale   =       1.2000000000000000 [-]
	 SCS Same-Spin Energy      =      -0.1562813865973559 [Eh]
	 SCS Opposite-Spin Energy  =      -1.8824641241788493 [Eh]
	 SCS Correlation Energy    =      -2.0387455107762054 [Eh]
	 SCS Total Energy          =    -463.0297794160942999 [Eh]
	-----------------------------------------------------------

  Dipole Moment: [D]
     X:    -1.7764      Y:     1.4094      Z:     3.6174     Total:     4.2694

*** Psi4 exiting successfully. Buy a developer a beer!
