                               Psi4 1.4a3.dev225

  ==> Input File <==

--------------------------------------------------------------------------
#psi4
#
memory 32 gb

molecule  {
0 1
  O       -1.1540860    -0.8257380    -1.1262130
  O        2.2598080    -0.8403330    -0.7659410
  C        0.4122950     0.2355920     0.3463500
  C        0.8678900     1.5298080    -0.3436410
  C       -0.9756193    -0.1085358    -0.1154584
  C        1.3451220    -0.9372140     0.0454070
  C       -2.1564290     0.4678700     0.6381050
  C        2.1205030     2.1275510     0.2909850
  C        1.0642330    -2.2268080     0.7816390
  C       -3.4959710     0.2572470    -0.0522250
  H        0.3847180     0.3911920     1.4358330
  H        1.0510700     1.2964920    -1.3965080
  H        0.0539330     2.2643490    -0.3080990
  H       -1.9574920     1.5325250     0.8155200
  H       -2.1465810     0.0009680     1.6335740
  H        2.9579070     1.4317780     0.2172300
  H        2.4041530     3.0539960    -0.2168530
  H        1.9503170     2.3628610     1.3467280
  H       -3.6866900    -0.8062480    -0.2063170
  H       -3.5045250     0.7387230    -1.0324830
  H       -4.3076550     0.6763420     0.5479980
  H        0.9449730    -2.0486830     1.8550460
  H        1.8828740    -2.9264540     0.6079930
  H        0.1338470    -2.6618440     0.4039710
units angstrom
no_reorient  #important for SAPT in psi4, default
symmetry c1  #important for SAPT in psi4, default
}

set PROPERTIES_ORIGIN ["COM"]
properties('MP2/aug-cc-pvtz', properties = ['dipole'])
--------------------------------------------------------------------------

    Molecular point group: c1
  Charge       = 0
  Multiplicity = 1
  Basis Set: AUG-CC-PVTZ
    Blend: AUG-CC-PVTZ
  Basis Set: (AUG-CC-PVTZ AUX)
    Blend: AUG-CC-PVTZ-JKFIT

    Orbital Energies [Eh]
    ---------------------

    Doubly Occupied:

       1A    -20.555957     2A    -20.549663     3A    -11.347364
       4A    -11.339578     5A    -11.259763     6A    -11.253581
       7A    -11.239126     8A    -11.236014     9A    -11.225938
      10A    -11.219015    11A     -1.384361    12A     -1.372565
      13A     -1.111196    14A     -1.060477    15A     -1.023470
      16A     -0.972622    17A     -0.895663    18A     -0.839174
      19A     -0.771329    20A     -0.723227    21A     -0.681862
      22A     -0.673748    23A     -0.644093    24A     -0.626631
      25A     -0.617419    26A     -0.599842    27A     -0.592465
      28A     -0.568272    29A     -0.557243    30A     -0.537513
      31A     -0.533457    32A     -0.520853    33A     -0.509798
      34A     -0.506803    35A     -0.492056    36A     -0.484489
      37A     -0.478487    38A     -0.429160    39A     -0.410090

  @DF-RHF Final Energy:  -460.98851682483001

   => Energetics <=

    Nuclear Repulsion Energy =            551.0710375005319293
    One-Electron Energy =               -1720.4303781767089276
    Two-Electron Energy =                 708.3708238513470405
    Total Energy =                       -460.9885168248299578
  Basis Set: (AUG-CC-PVTZ AUX)
    Blend: AUG-CC-PVTZ-RI
    Molecular point group: c1

    Geometry (in Angstrom), charge = 0, multiplicity = 1:

       Center              X                  Y                   Z               Mass
    ------------   -----------------  -----------------  -----------------  -----------------
         O           -1.182242498018    -0.789460400416    -1.088052113043    15.994914619570
         O            2.231651501982    -0.804055400416    -0.727780113043    15.994914619570
         C            0.384138501982     0.271869599584     0.384510886957    12.000000000000
         C            0.839733501982     1.566085599584    -0.305480113043    12.000000000000
         C           -1.003775798018    -0.072258200416    -0.077297513043    12.000000000000
         C            1.316965501982    -0.900936400416     0.083567886957    12.000000000000
         C           -2.184585498018     0.504147599584     0.676265886957    12.000000000000
         C            2.092346501982     2.163828599584     0.329145886957    12.000000000000
         C            1.036076501982    -2.190530400416     0.819799886957    12.000000000000
         C           -3.524127498018     0.293524599584    -0.014064113043    12.000000000000
         H            0.356561501982     0.427469599584     1.473993886957     1.007825032230
         H            1.022913501982     1.332769599584    -1.358347113043     1.007825032230
         H            0.025776501982     2.300626599584    -0.269938113043     1.007825032230
         H           -1.985648498018     1.568802599584     0.853680886957     1.007825032230
         H           -2.174737498018     0.037245599584     1.671734886957     1.007825032230
         H            2.929750501982     1.468055599584     0.255390886957     1.007825032230
         H            2.375996501982     3.090273599584    -0.178692113043     1.007825032230
         H            1.922160501982     2.399138599584     1.384888886957     1.007825032230
         H           -3.714846498018    -0.769970400416    -0.168156113043     1.007825032230
         H           -3.532681498018     0.775000599584    -0.994322113043     1.007825032230
         H           -4.335811498018     0.712619599584     0.586158886957     1.007825032230
         H            0.916816501982    -2.012405400416     1.893206886957     1.007825032230
         H            1.854717501982    -2.890176400416     0.646153886957     1.007825032230
         H            0.105690501982    -2.625566400416     0.442131886957     1.007825032230

  Basis Set: AUG-CC-PVTZ
    Blend: AUG-CC-PVTZ
  Basis Set: (AUG-CC-PVTZ AUX)
    Blend: AUG-CC-PVTZ-JKFIT
	 Reference Energy          =    -460.9885168248300147 [Eh]
	 Singles Energy            =      -0.0000000000000000 [Eh]
	 Same-Spin Energy          =      -0.4695852420324694 [Eh]
	 Opposite-Spin Energy      =      -1.5701962564364882 [Eh]
	 Correlation Energy        =      -2.0397814984689577 [Eh]
	 Total Energy              =    -463.0282983232989977 [Eh]

	 ================> DF-SCS-MP2 Energies <==================
	-----------------------------------------------------------
	 SCS Same-Spin Scale       =       0.3333333333333333 [-]
	 SCS Opposite-Spin Scale   =       1.2000000000000000 [-]
	 SCS Same-Spin Energy      =      -0.1565284140108231 [Eh]
	 SCS Opposite-Spin Energy  =      -1.8842355077237858 [Eh]
	 SCS Correlation Energy    =      -2.0407639217346087 [Eh]
	 SCS Total Energy          =    -463.0292807465646092 [Eh]
	-----------------------------------------------------------

  Dipole Moment: [D]
     X:    -1.6758      Y:     1.4569      Z:     3.6423     Total:     4.2659

*** Psi4 exiting successfully. Buy a developer a beer!
