                               Psi4 1.4a3.dev225

  ==> Input File <==

--------------------------------------------------------------------------
#psi4
#
memory 32 gb

molecule  {
0 1
  O       -1.1540860    -0.8257380    -1.1262130
  O        2.2598080    -0.8403330    -0.7659410
  C        0.4122950     0.2355920     0.3463500
  C        0.8678900     1.5298080    -0.3436410
  C       -0.9920820    -0.1169500    -0.1343550
  C        1.3451220    -0.9372140     0.0454070
  C       -2.1564290     0.4678700     0.6381050
  C        2.1205030     2.1275510     0.2909850
  C        1.0642330    -2.2268080     0.7816390
  C       -3.4959710     0.2572470    -0.0522250
  H        0.3847180     0.3911920     1.4358330
  H        1.0510700     1.2964920    -1.3965080
  H        0.0687731     2.2509568    -0.3087470
  H       -1.9574920     1.5325250     0.8155200
  H       -2.1465810     0.0009680     1.6335740
  H        2.9579070     1.4317780     0.2172300
  H        2.4041530     3.0539960    -0.2168530
  H        1.9503170     2.3628610     1.3467280
  H       -3.6866900    -0.8062480    -0.2063170
  H       -3.5045250     0.7387230    -1.0324830
  H       -4.3076550     0.6763420     0.5479980
  H        0.9449730    -2.0486830     1.8550460
  H        1.8828740    -2.9264540     0.6079930
  H        0.1338470    -2.6618440     0.4039710
units angstrom
no_reorient  #important for SAPT in psi4, default
symmetry c1  #important for SAPT in psi4, default
}

set PROPERTIES_ORIGIN ["COM"]
properties('MP2/aug-cc-pvtz', properties = ['dipole'])
--------------------------------------------------------------------------

    Molecular point group: c1
  Charge       = 0
  Multiplicity = 1
  Basis Set: AUG-CC-PVTZ
    Blend: AUG-CC-PVTZ
  Basis Set: (AUG-CC-PVTZ AUX)
    Blend: AUG-CC-PVTZ-JKFIT

    Orbital Energies [Eh]
    ---------------------

    Doubly Occupied:

       1A    -20.558188     2A    -20.548627     3A    -11.345866
       4A    -11.338148     5A    -11.258358     6A    -11.252970
       7A    -11.235543     8A    -11.234985     9A    -11.225983
      10A    -11.217794    11A     -1.392320    12A     -1.378438
      13A     -1.107943    14A     -1.060853    15A     -1.022677
      16A     -0.969608    17A     -0.894776    18A     -0.839310
      19A     -0.768598    20A     -0.723370    21A     -0.683132
      22A     -0.673796    23A     -0.644588    24A     -0.626145
      25A     -0.623210    26A     -0.599610    27A     -0.591981
      28A     -0.568100    29A     -0.556429    30A     -0.537624
      31A     -0.534914    32A     -0.522698    33A     -0.510192
      34A     -0.508008    35A     -0.492243    36A     -0.484417
      37A     -0.483092    38A     -0.427141    39A     -0.407459

  @DF-RHF Final Energy:  -460.99221068979080

   => Energetics <=

    Nuclear Repulsion Energy =            551.1853148837697063
    One-Electron Energy =               -1720.6567881473649777
    Two-Electron Energy =                 708.4792625738044762
    Total Energy =                       -460.9922106897907952
  Basis Set: (AUG-CC-PVTZ AUX)
    Blend: AUG-CC-PVTZ-RI
    Molecular point group: c1

    Geometry (in Angstrom), charge = 0, multiplicity = 1:

       Center              X                  Y                   Z               Mass
    ------------   -----------------  -----------------  -----------------  -----------------
         O           -1.180957508766    -0.788654855770    -1.086451738213    15.994914619570
         O            2.232936491234    -0.803249855770    -0.726179738213    15.994914619570
         C            0.385423491234     0.272675144230     0.386111261787    12.000000000000
         C            0.841018491234     1.566891144230    -0.303879738213    12.000000000000
         C           -1.018953508766    -0.079866855770    -0.094593738213    12.000000000000
         C            1.318250491234    -0.900130855770     0.085168261787    12.000000000000
         C           -2.183300508766     0.504953144230     0.677866261787    12.000000000000
         C            2.093631491234     2.164634144230     0.330746261787    12.000000000000
         C            1.037361491234    -2.189724855770     0.821400261787    12.000000000000
         C           -3.522842508766     0.294330144230    -0.012463738213    12.000000000000
         H            0.357846491234     0.428275144230     1.475594261787     1.007825032230
         H            1.024198491234     1.333575144230    -1.356746738213     1.007825032230
         H            0.041901591234     2.288039944230    -0.268985738213     1.007825032230
         H           -1.984363508766     1.569608144230     0.855281261787     1.007825032230
         H           -2.173452508766     0.038051144230     1.673335261787     1.007825032230
         H            2.931035491234     1.468861144230     0.256991261787     1.007825032230
         H            2.377281491234     3.091079144230    -0.177091738213     1.007825032230
         H            1.923445491234     2.399944144230     1.386489261787     1.007825032230
         H           -3.713561508766    -0.769164855770    -0.166555738213     1.007825032230
         H           -3.531396508766     0.775806144230    -0.992721738213     1.007825032230
         H           -4.334526508766     0.713425144230     0.587759261787     1.007825032230
         H            0.918101491234    -2.011599855770     1.894807261787     1.007825032230
         H            1.856002491234    -2.889370855770     0.647754261787     1.007825032230
         H            0.106975491234    -2.624760855770     0.443732261787     1.007825032230

  Basis Set: AUG-CC-PVTZ
    Blend: AUG-CC-PVTZ
  Basis Set: (AUG-CC-PVTZ AUX)
    Blend: AUG-CC-PVTZ-JKFIT
	 Reference Energy          =    -460.9922106897907952 [Eh]
	 Singles Energy            =      -0.0000000000000000 [Eh]
	 Same-Spin Energy          =      -0.4688352409648874 [Eh]
	 Opposite-Spin Energy      =      -1.5685619672955600 [Eh]
	 Correlation Energy        =      -2.0373972082604475 [Eh]
	 Total Energy              =    -463.0296078980512675 [Eh]

	 ================> DF-SCS-MP2 Energies <==================
	-----------------------------------------------------------
	 SCS Same-Spin Scale       =       0.3333333333333333 [-]
	 SCS Opposite-Spin Scale   =       1.2000000000000000 [-]
	 SCS Same-Spin Energy      =      -0.1562784136549625 [Eh]
	 SCS Opposite-Spin Energy  =      -1.8822743607546719 [Eh]
	 SCS Correlation Energy    =      -2.0385527744096343 [Eh]
	 SCS Total Energy          =    -463.0307634642004473 [Eh]
	-----------------------------------------------------------

  Dipole Moment: [D]
     X:    -1.7853      Y:     1.4192      Z:     3.5886     Total:     4.2520

*** Psi4 exiting successfully. Buy a developer a beer!
