                               Psi4 1.4a3.dev225

  ==> Input File <==

--------------------------------------------------------------------------
#psi4
#
memory 32 gb

molecule  {
0 1
  O       -1.1540860    -0.8257380    -1.1262130
  O        2.2598080    -0.8403330    -0.7659410
  C        0.4122950     0.2355920     0.3463500
  C        0.8678900     1.5298080    -0.3436410
  C       -0.9920820    -0.1169500    -0.1343550
  C        1.3451220    -0.9372140     0.0454070
  C       -2.1564290     0.4678700     0.6381050
  C        2.1205030     2.1275510     0.2909850
  C        1.0642330    -2.2268080     0.7816390
  C       -3.4959710     0.2572470    -0.0522250
  H        0.3847180     0.3911920     1.4358330
  H        1.0510700     1.2964920    -1.3965080
  H        0.0539330     2.2643490    -0.3080990
  H       -1.9574920     1.5325250     0.8155200
  H       -2.1465810     0.0009680     1.6335740
  H        2.9423262     1.4343926     0.1041066
  H        2.4041530     3.0539960    -0.2168530
  H        1.9503170     2.3628610     1.3467280
  H       -3.6866900    -0.8062480    -0.2063170
  H       -3.5045250     0.7387230    -1.0324830
  H       -4.3076550     0.6763420     0.5479980
  H        0.9449730    -2.0486830     1.8550460
  H        1.8828740    -2.9264540     0.6079930
  H        0.1338470    -2.6618440     0.4039710
units angstrom
no_reorient  #important for SAPT in psi4, default
symmetry c1  #important for SAPT in psi4, default
}

set PROPERTIES_ORIGIN ["COM"]
properties('MP2/aug-cc-pvtz', properties = ['dipole'])
--------------------------------------------------------------------------

    Molecular point group: c1
  Charge       = 0
  Multiplicity = 1
  Basis Set: AUG-CC-PVTZ
    Blend: AUG-CC-PVTZ
  Basis Set: (AUG-CC-PVTZ AUX)
    Blend: AUG-CC-PVTZ-JKFIT

    Orbital Energies [Eh]
    ---------------------

    Doubly Occupied:

       1A    -20.558110     2A    -20.548987     3A    -11.345844
       4A    -11.338525     5A    -11.258469     6A    -11.252787
       7A    -11.236731     8A    -11.235671     9A    -11.225859
      10A    -11.217630    11A     -1.392333    12A     -1.378823
      13A     -1.107640    14A     -1.060687    15A     -1.022753
      16A     -0.969823    17A     -0.894664    18A     -0.836118
      19A     -0.768570    20A     -0.723357    21A     -0.683322
      22A     -0.674088    23A     -0.643801    24A     -0.625782
      25A     -0.623680    26A     -0.602019    27A     -0.591434
      28A     -0.569171    29A     -0.554501    30A     -0.538487
      31A     -0.535201    32A     -0.522752    33A     -0.509752
      34A     -0.503526    35A     -0.492435    36A     -0.485966
      37A     -0.481452    38A     -0.427159    39A     -0.407271

  @DF-RHF Final Energy:  -460.99070893756448

   => Energetics <=

    Nuclear Repulsion Energy =            551.1653863318429103
    One-Electron Energy =               -1720.6218290483413966
    Two-Electron Energy =                 708.4657337789340090
    Total Energy =                       -460.9907089375644773
  Basis Set: (AUG-CC-PVTZ AUX)
    Blend: AUG-CC-PVTZ-RI
    Molecular point group: c1

    Geometry (in Angstrom), charge = 0, multiplicity = 1:

       Center              X                  Y                   Z               Mass
    ------------   -----------------  -----------------  -----------------  -----------------
         O           -1.180741751705    -0.788768382330    -1.085654018167    15.994914619570
         O            2.233152248295    -0.803363382330    -0.725382018167    15.994914619570
         C            0.385639248295     0.272561617670     0.386908981833    12.000000000000
         C            0.841234248295     1.566777617670    -0.303082018167    12.000000000000
         C           -1.018737751705    -0.079980382330    -0.093796018167    12.000000000000
         C            1.318466248295    -0.900244382330     0.085965981833    12.000000000000
         C           -2.183084751705     0.504839617670     0.678663981833    12.000000000000
         C            2.093847248295     2.164520617670     0.331543981833    12.000000000000
         C            1.037577248295    -2.189838382330     0.822197981833    12.000000000000
         C           -3.522626751705     0.294216617670    -0.011666018167    12.000000000000
         H            0.358062248295     0.428161617670     1.476391981833     1.007825032230
         H            1.024414248295     1.333461617670    -1.355949018167     1.007825032230
         H            0.027277248295     2.301318617670    -0.267540018167     1.007825032230
         H           -1.984147751705     1.569494617670     0.856078981833     1.007825032230
         H           -2.173236751705     0.037937617670     1.674132981833     1.007825032230
         H            2.915670448295     1.471362217670     0.144665581833     1.007825032230
         H            2.377497248295     3.090965617670    -0.176294018167     1.007825032230
         H            1.923661248295     2.399830617670     1.387286981833     1.007825032230
         H           -3.713345751705    -0.769278382330    -0.165758018167     1.007825032230
         H           -3.531180751705     0.775692617670    -0.991924018167     1.007825032230
         H           -4.334310751705     0.713311617670     0.588556981833     1.007825032230
         H            0.918317248295    -2.011713382330     1.895604981833     1.007825032230
         H            1.856218248295    -2.889484382330     0.648551981833     1.007825032230
         H            0.107191248295    -2.624874382330     0.444529981833     1.007825032230

  Basis Set: AUG-CC-PVTZ
    Blend: AUG-CC-PVTZ
  Basis Set: (AUG-CC-PVTZ AUX)
    Blend: AUG-CC-PVTZ-JKFIT
	 Reference Energy          =    -460.9907089375644773 [Eh]
	 Singles Energy            =      -0.0000000000000000 [Eh]
	 Same-Spin Energy          =      -0.4689616992598068 [Eh]
	 Opposite-Spin Energy      =      -1.5688492168638548 [Eh]
	 Correlation Energy        =      -2.0378109161236617 [Eh]
	 Total Energy              =    -463.0285198536881239 [Eh]

	 ================> DF-SCS-MP2 Energies <==================
	-----------------------------------------------------------
	 SCS Same-Spin Scale       =       0.3333333333333333 [-]
	 SCS Opposite-Spin Scale   =       1.2000000000000000 [-]
	 SCS Same-Spin Energy      =      -0.1563205664199356 [Eh]
	 SCS Opposite-Spin Energy  =      -1.8826190602366257 [Eh]
	 SCS Correlation Energy    =      -2.0389396266565614 [Eh]
	 SCS Total Energy          =    -463.0296485642210200 [Eh]
	-----------------------------------------------------------

  Dipole Moment: [D]
     X:    -1.7729      Y:     1.4129      Z:     3.5670     Total:     4.2264

*** Psi4 exiting successfully. Buy a developer a beer!
