                               Psi4 1.4a3.dev225

  ==> Input File <==

--------------------------------------------------------------------------
#psi4
#
memory 32 gb

molecule  {
0 1
  O       -1.1540860    -0.8257380    -1.1262130
  O        2.2598080    -0.8403330    -0.7659410
  C        0.4122950     0.2355920     0.3463500
  C        0.8678900     1.5298080    -0.3436410
  C       -0.9920820    -0.1169500    -0.1343550
  C        1.3451220    -0.9372140     0.0454070
  C       -2.1564290     0.4678700     0.6381050
  C        2.1205030     2.1275510     0.2909850
  C        1.0642330    -2.2268080     0.7816390
  C       -3.4959710     0.2572470    -0.0522250
  H        0.3847180     0.3911920     1.4358330
  H        1.0510700     1.2964920    -1.3965080
  H        0.0390929     2.2777412    -0.3074510
  H       -1.9574920     1.5325250     0.8155200
  H       -2.1465810     0.0009680     1.6335740
  H        2.9579070     1.4317780     0.2172300
  H        2.4041530     3.0539960    -0.2168530
  H        1.9503170     2.3628610     1.3467280
  H       -3.6866900    -0.8062480    -0.2063170
  H       -3.5045250     0.7387230    -1.0324830
  H       -4.3076550     0.6763420     0.5479980
  H        0.9449730    -2.0486830     1.8550460
  H        1.8828740    -2.9264540     0.6079930
  H        0.1338470    -2.6618440     0.4039710
units angstrom
no_reorient  #important for SAPT in psi4, default
symmetry c1  #important for SAPT in psi4, default
}

set PROPERTIES_ORIGIN ["COM"]
properties('MP2/aug-cc-pvtz', properties = ['dipole'])
--------------------------------------------------------------------------

    Molecular point group: c1
  Charge       = 0
  Multiplicity = 1
  Basis Set: AUG-CC-PVTZ
    Blend: AUG-CC-PVTZ
  Basis Set: (AUG-CC-PVTZ AUX)
    Blend: AUG-CC-PVTZ-JKFIT

    Orbital Energies [Eh]
    ---------------------

    Doubly Occupied:

       1A    -20.558179     2A    -20.548938     3A    -11.345909
       4A    -11.338506     5A    -11.258772     6A    -11.252766
       7A    -11.240021     8A    -11.235764     9A    -11.225856
      10A    -11.218244    11A     -1.392368    12A     -1.378724
      13A     -1.107340    14A     -1.060562    15A     -1.022344
      16A     -0.969660    17A     -0.894749    18A     -0.836009
      19A     -0.768685    20A     -0.723405    21A     -0.683147
      22A     -0.672929    23A     -0.644032    24A     -0.626005
      25A     -0.623168    26A     -0.598692    27A     -0.591560
      28A     -0.568186    29A     -0.556600    30A     -0.537745
      31A     -0.534909    32A     -0.522603    33A     -0.510057
      34A     -0.505722    35A     -0.492276    36A     -0.484272
      37A     -0.482529    38A     -0.427287    39A     -0.407473

  @DF-RHF Final Energy:  -460.99161812674640

   => Energetics <=

    Nuclear Repulsion Energy =            550.9962423985026589
    One-Electron Energy =               -1720.2837340558091910
    Two-Electron Energy =                 708.2958735305600158
    Total Energy =                       -460.9916181267464026
  Basis Set: (AUG-CC-PVTZ AUX)
    Blend: AUG-CC-PVTZ-RI
    Molecular point group: c1

    Geometry (in Angstrom), charge = 0, multiplicity = 1:

       Center              X                  Y                   Z               Mass
    ------------   -----------------  -----------------  -----------------  -----------------
         O           -1.180747005042    -0.788844821334    -1.086460929958    15.994914619570
         O            2.233146994958    -0.803439821334    -0.726188929958    15.994914619570
         C            0.385633994958     0.272485178666     0.386102070042    12.000000000000
         C            0.841228994958     1.566701178666    -0.303888929958    12.000000000000
         C           -1.018743005042    -0.080056821334    -0.094602929958    12.000000000000
         C            1.318460994958    -0.900320821334     0.085159070042    12.000000000000
         C           -2.183090005042     0.504763178666     0.677857070042    12.000000000000
         C            2.093841994958     2.164444178666     0.330737070042    12.000000000000
         C            1.037571994958    -2.189914821334     0.821391070042    12.000000000000
         C           -3.522632005042     0.294140178666    -0.012472929958    12.000000000000
         H            0.358056994958     0.428085178666     1.475585070042     1.007825032230
         H            1.024408994958     1.333385178666    -1.356755929958     1.007825032230
         H            0.012431894958     2.314634378666    -0.267698929958     1.007825032230
         H           -1.984153005042     1.569418178666     0.855272070042     1.007825032230
         H           -2.173242005042     0.037861178666     1.673326070042     1.007825032230
         H            2.931245994958     1.468671178666     0.256982070042     1.007825032230
         H            2.377491994958     3.090889178666    -0.177100929958     1.007825032230
         H            1.923655994958     2.399754178666     1.386480070042     1.007825032230
         H           -3.713351005042    -0.769354821334    -0.166564929958     1.007825032230
         H           -3.531186005042     0.775616178666    -0.992730929958     1.007825032230
         H           -4.334316005042     0.713235178666     0.587750070042     1.007825032230
         H            0.918311994958    -2.011789821334     1.894798070042     1.007825032230
         H            1.856212994958    -2.889560821334     0.647745070042     1.007825032230
         H            0.107185994958    -2.624950821334     0.443723070042     1.007825032230

  Basis Set: AUG-CC-PVTZ
    Blend: AUG-CC-PVTZ
  Basis Set: (AUG-CC-PVTZ AUX)
    Blend: AUG-CC-PVTZ-JKFIT
	 Reference Energy          =    -460.9916181267464026 [Eh]
	 Singles Energy            =      -0.0000000000000000 [Eh]
	 Same-Spin Energy          =      -0.4688585041671370 [Eh]
	 Opposite-Spin Energy      =      -1.5688443140306738 [Eh]
	 Correlation Energy        =      -2.0377028181978107 [Eh]
	 Total Energy              =    -463.0293209449442315 [Eh]

	 ================> DF-SCS-MP2 Energies <==================
	-----------------------------------------------------------
	 SCS Same-Spin Scale       =       0.3333333333333333 [-]
	 SCS Opposite-Spin Scale   =       1.2000000000000000 [-]
	 SCS Same-Spin Energy      =      -0.1562861680557123 [Eh]
	 SCS Opposite-Spin Energy  =      -1.8826131768368084 [Eh]
	 SCS Correlation Energy    =      -2.0388993448925206 [Eh]
	 SCS Total Energy          =    -463.0305174716389160 [Eh]
	-----------------------------------------------------------

  Dipole Moment: [D]
     X:    -1.7608      Y:     1.4004      Z:     3.5925     Total:     4.2388

*** Psi4 exiting successfully. Buy a developer a beer!
