                               Psi4 1.4a3.dev225

  ==> Input File <==

--------------------------------------------------------------------------
#psi4
#
memory 32 gb

molecule  {
0 1
  O       -1.1540860    -0.8257380    -1.1262130
  O        2.2598080    -0.8403330    -0.7659410
  C        0.4122950     0.2355920     0.3463500
  C        0.8678900     1.5298080    -0.3436410
  C       -0.9736719    -0.1123285    -0.1280534
  C        1.3451220    -0.9372140     0.0454070
  C       -2.1564290     0.4678700     0.6381050
  C        2.1205030     2.1275510     0.2909850
  C        1.0642330    -2.2268080     0.7816390
  C       -3.4959710     0.2572470    -0.0522250
  H        0.3847180     0.3911920     1.4358330
  H        1.0510700     1.2964920    -1.3965080
  H        0.0539330     2.2643490    -0.3080990
  H       -1.9574920     1.5325250     0.8155200
  H       -2.1465810     0.0009680     1.6335740
  H        2.9579070     1.4317780     0.2172300
  H        2.4041530     3.0539960    -0.2168530
  H        1.9503170     2.3628610     1.3467280
  H       -3.6866900    -0.8062480    -0.2063170
  H       -3.5045250     0.7387230    -1.0324830
  H       -4.3076550     0.6763420     0.5479980
  H        0.9449730    -2.0486830     1.8550460
  H        1.8828740    -2.9264540     0.6079930
  H        0.1338470    -2.6618440     0.4039710
units angstrom
no_reorient  #important for SAPT in psi4, default
symmetry c1  #important for SAPT in psi4, default
}

set PROPERTIES_ORIGIN ["COM"]
properties('MP2/aug-cc-pvtz', properties = ['dipole'])
--------------------------------------------------------------------------

    Molecular point group: c1
  Charge       = 0
  Multiplicity = 1
  Basis Set: AUG-CC-PVTZ
    Blend: AUG-CC-PVTZ
  Basis Set: (AUG-CC-PVTZ AUX)
    Blend: AUG-CC-PVTZ-JKFIT

    Orbital Energies [Eh]
    ---------------------

    Doubly Occupied:

       1A    -20.557038     2A    -20.549569     3A    -11.346432
       4A    -11.339321     5A    -11.259242     6A    -11.252929
       7A    -11.238824     8A    -11.236109     9A    -11.225466
      10A    -11.218836    11A     -1.387463    12A     -1.377224
      13A     -1.110491    14A     -1.058882    15A     -1.023421
      16A     -0.972072    17A     -0.893831    18A     -0.838954
      19A     -0.770752    20A     -0.723536    21A     -0.682555
      22A     -0.673697    23A     -0.643631    24A     -0.626341
      25A     -0.620101    26A     -0.599832    27A     -0.592379
      28A     -0.568696    29A     -0.556911    30A     -0.537436
      31A     -0.534090    32A     -0.521323    33A     -0.509703
      34A     -0.507165    35A     -0.492265    36A     -0.484554
      37A     -0.481261    38A     -0.428562    39A     -0.408723

  @DF-RHF Final Energy:  -460.99043225935094

   => Energetics <=

    Nuclear Repulsion Energy =            551.1524206708733118
    One-Electron Energy =               -1720.5864734454355585
    Two-Electron Energy =                 708.4436205152111370
    Total Energy =                       -460.9904322593509960
  Basis Set: (AUG-CC-PVTZ AUX)
    Blend: AUG-CC-PVTZ-RI
    Molecular point group: c1

    Geometry (in Angstrom), charge = 0, multiplicity = 1:

       Center              X                  Y                   Z               Mass
    ------------   -----------------  -----------------  -----------------  -----------------
         O           -1.182406951938    -0.789140114711    -1.086988491229    15.994914619570
         O            2.231487048062    -0.803735114711    -0.726716491229    15.994914619570
         C            0.383974048062     0.272189885289     0.385574508771    12.000000000000
         C            0.839569048062     1.566405885289    -0.304416491229    12.000000000000
         C           -1.001992851938    -0.075730614711    -0.088828891229    12.000000000000
         C            1.316801048062    -0.900616114711     0.084631508771    12.000000000000
         C           -2.184749951938     0.504467885289     0.677329508771    12.000000000000
         C            2.092182048062     2.164148885289     0.330209508771    12.000000000000
         C            1.035912048062    -2.190210114711     0.820863508771    12.000000000000
         C           -3.524291951938     0.293844885289    -0.013000491229    12.000000000000
         H            0.356397048062     0.427789885289     1.475057508771     1.007825032230
         H            1.022749048062     1.333089885289    -1.357283491229     1.007825032230
         H            0.025612048062     2.300946885289    -0.268874491229     1.007825032230
         H           -1.985812951938     1.569122885289     0.854744508771     1.007825032230
         H           -2.174901951938     0.037565885289     1.672798508771     1.007825032230
         H            2.929586048062     1.468375885289     0.256454508771     1.007825032230
         H            2.375832048062     3.090593885289    -0.177628491229     1.007825032230
         H            1.921996048062     2.399458885289     1.385952508771     1.007825032230
         H           -3.715010951938    -0.769650114711    -0.167092491229     1.007825032230
         H           -3.532845951938     0.775320885289    -0.993258491229     1.007825032230
         H           -4.335975951938     0.712939885289     0.587222508771     1.007825032230
         H            0.916652048062    -2.012085114711     1.894270508771     1.007825032230
         H            1.854553048062    -2.889856114711     0.647217508771     1.007825032230
         H            0.105526048062    -2.625246114711     0.443195508771     1.007825032230

  Basis Set: AUG-CC-PVTZ
    Blend: AUG-CC-PVTZ
  Basis Set: (AUG-CC-PVTZ AUX)
    Blend: AUG-CC-PVTZ-JKFIT
	 Reference Energy          =    -460.9904322593509391 [Eh]
	 Singles Energy            =      -0.0000000000000000 [Eh]
	 Same-Spin Energy          =      -0.4692043641294230 [Eh]
	 Opposite-Spin Energy      =      -1.5694190984057506 [Eh]
	 Correlation Energy        =      -2.0386234625351736 [Eh]
	 Total Energy              =    -463.0290557218860954 [Eh]

	 ================> DF-SCS-MP2 Energies <==================
	-----------------------------------------------------------
	 SCS Same-Spin Scale       =       0.3333333333333333 [-]
	 SCS Opposite-Spin Scale   =       1.2000000000000000 [-]
	 SCS Same-Spin Energy      =      -0.1564014547098077 [Eh]
	 SCS Opposite-Spin Energy  =      -1.8833029180869005 [Eh]
	 SCS Correlation Energy    =      -2.0397043727967081 [Eh]
	 SCS Total Energy          =    -463.0301366321476735 [Eh]
	-----------------------------------------------------------

  Dipole Moment: [D]
     X:    -1.6650      Y:     1.4299      Z:     3.6075     Total:     4.2227

*** Psi4 exiting successfully. Buy a developer a beer!
