                               Psi4 1.4a3.dev225

  ==> Input File <==

--------------------------------------------------------------------------
#psi4
#
memory 32 gb

molecule  {
0 1
  O       -1.1540860    -0.8257380    -1.1262130
  O        2.2598080    -0.8403330    -0.7659410
  C        0.4122950     0.2355920     0.3463500
  C        0.7255048     1.5301648    -0.4182613
  C       -0.9920820    -0.1169500    -0.1343550
  C        1.3451220    -0.9372140     0.0454070
  C       -2.1564290     0.4678700     0.6381050
  C        2.1205030     2.1275510     0.2909850
  C        1.0642330    -2.2268080     0.7816390
  C       -3.4959710     0.2572470    -0.0522250
  H        0.3847180     0.3911920     1.4358330
  H        1.0510700     1.2964920    -1.3965080
  H        0.0539330     2.2643490    -0.3080990
  H       -1.9574920     1.5325250     0.8155200
  H       -2.1465810     0.0009680     1.6335740
  H        2.9579070     1.4317780     0.2172300
  H        2.4041530     3.0539960    -0.2168530
  H        1.9503170     2.3628610     1.3467280
  H       -3.6866900    -0.8062480    -0.2063170
  H       -3.5045250     0.7387230    -1.0324830
  H       -4.3076550     0.6763420     0.5479980
  H        0.9449730    -2.0486830     1.8550460
  H        1.8828740    -2.9264540     0.6079930
  H        0.1338470    -2.6618440     0.4039710
units angstrom
no_reorient  #important for SAPT in psi4, default
symmetry c1  #important for SAPT in psi4, default
}

set PROPERTIES_ORIGIN ["COM"]
properties('MP2/aug-cc-pvtz', properties = ['dipole'])
--------------------------------------------------------------------------

    Molecular point group: c1
  Charge       = 0
  Multiplicity = 1
  Basis Set: AUG-CC-PVTZ
    Blend: AUG-CC-PVTZ
  Basis Set: (AUG-CC-PVTZ AUX)
    Blend: AUG-CC-PVTZ-JKFIT

    Orbital Energies [Eh]
    ---------------------

    Doubly Occupied:

       1A    -20.554593     2A    -20.549269     3A    -11.343497
       4A    -11.340097     5A    -11.260243     6A    -11.252587
       7A    -11.236879     8A    -11.235383     9A    -11.225559
      10A    -11.223136    11A     -1.390525    12A     -1.378401
      13A     -1.106269    14A     -1.058496    15A     -1.017936
      16A     -0.958372    17A     -0.893141    18A     -0.853913
      19A     -0.768151    20A     -0.723069    21A     -0.683950
      22A     -0.675476    23A     -0.645930    24A     -0.628822
      25A     -0.620470    26A     -0.605986    27A     -0.591031
      28A     -0.566583    29A     -0.553192    30A     -0.536313
      31A     -0.532834    32A     -0.528576    33A     -0.520894
      34A     -0.501925    35A     -0.491490    36A     -0.488185
      37A     -0.467570    38A     -0.421444    39A     -0.403818

  @DF-RHF Final Energy:  -460.97012412001709

   => Energetics <=

    Nuclear Repulsion Energy =            550.6863950103326033
    One-Electron Energy =               -1719.6450220990784601
    Two-Electron Energy =                 707.9885029687286533
    Total Energy =                       -460.9701241200170898
  Basis Set: (AUG-CC-PVTZ AUX)
    Blend: AUG-CC-PVTZ-RI
    Molecular point group: c1

    Geometry (in Angstrom), charge = 0, multiplicity = 1:

       Center              X                  Y                   Z               Mass
    ------------   -----------------  -----------------  -----------------  -----------------
         O           -1.168828119967    -0.788779969578    -1.080154803410    15.994914619570
         O            2.245065880033    -0.803374969578    -0.719882803410    15.994914619570
         C            0.397552880033     0.272550030422     0.392408196590    12.000000000000
         C            0.710762680033     1.567122830422    -0.372203103410    12.000000000000
         C           -1.006824119967    -0.079991969578    -0.088296803410    12.000000000000
         C            1.330379880033    -0.900255969578     0.091465196590    12.000000000000
         C           -2.171171119967     0.504828030422     0.684163196590    12.000000000000
         C            2.105760880033     2.164509030422     0.337043196590    12.000000000000
         C            1.049490880033    -2.189849969578     0.827697196590    12.000000000000
         C           -3.510713119967     0.294205030422    -0.006166803410    12.000000000000
         H            0.369975880033     0.428150030422     1.481891196590     1.007825032230
         H            1.036327880033     1.333450030422    -1.350449803410     1.007825032230
         H            0.039190880033     2.301307030422    -0.262040803410     1.007825032230
         H           -1.972234119967     1.569483030422     0.861578196590     1.007825032230
         H           -2.161323119967     0.037926030422     1.679632196590     1.007825032230
         H            2.943164880033     1.468736030422     0.263288196590     1.007825032230
         H            2.389410880033     3.090954030422    -0.170794803410     1.007825032230
         H            1.935574880033     2.399819030422     1.392786196590     1.007825032230
         H           -3.701432119967    -0.769289969578    -0.160258803410     1.007825032230
         H           -3.519267119967     0.775681030422    -0.986424803410     1.007825032230
         H           -4.322397119967     0.713300030422     0.594056196590     1.007825032230
         H            0.930230880033    -2.011724969578     1.901104196590     1.007825032230
         H            1.868131880033    -2.889495969578     0.654051196590     1.007825032230
         H            0.119104880033    -2.624885969578     0.450029196590     1.007825032230

  Basis Set: AUG-CC-PVTZ
    Blend: AUG-CC-PVTZ
  Basis Set: (AUG-CC-PVTZ AUX)
    Blend: AUG-CC-PVTZ-JKFIT
	 Reference Energy          =    -460.9701241200170898 [Eh]
	 Singles Energy            =      -0.0000000000000000 [Eh]
	 Same-Spin Energy          =      -0.4690049280621205 [Eh]
	 Opposite-Spin Energy      =      -1.5696876700252749 [Eh]
	 Correlation Energy        =      -2.0386925980873953 [Eh]
	 Total Energy              =    -463.0088167181044696 [Eh]

	 ================> DF-SCS-MP2 Energies <==================
	-----------------------------------------------------------
	 SCS Same-Spin Scale       =       0.3333333333333333 [-]
	 SCS Opposite-Spin Scale   =       1.2000000000000000 [-]
	 SCS Same-Spin Energy      =      -0.1563349760207068 [Eh]
	 SCS Opposite-Spin Energy  =      -1.8836252040303298 [Eh]
	 SCS Correlation Energy    =      -2.0399601800510365 [Eh]
	 SCS Total Energy          =    -463.0100843000681152 [Eh]
	-----------------------------------------------------------

  Dipole Moment: [D]
     X:    -1.7608      Y:     1.4092      Z:     3.6079     Total:     4.2548

*** Psi4 exiting successfully. Buy a developer a beer!
