                               Psi4 1.4a3.dev225

  ==> Input File <==

--------------------------------------------------------------------------
#psi4
#
memory 32 gb

molecule  {
0 1
  O       -1.1540860    -0.8257380    -1.1262130
  O        2.2598080    -0.8403330    -0.7659410
  C        0.4122950     0.2355920     0.3463500
  C        0.8678900     1.5298080    -0.3436410
  C       -0.9284090    -0.0822501    -0.0574146
  C        1.3451220    -0.9372140     0.0454070
  C       -2.1564290     0.4678700     0.6381050
  C        2.1205030     2.1275510     0.2909850
  C        1.0642330    -2.2268080     0.7816390
  C       -3.4959710     0.2572470    -0.0522250
  H        0.3847180     0.3911920     1.4358330
  H        1.0510700     1.2964920    -1.3965080
  H        0.0539330     2.2643490    -0.3080990
  H       -1.9574920     1.5325250     0.8155200
  H       -2.1465810     0.0009680     1.6335740
  H        2.9579070     1.4317780     0.2172300
  H        2.4041530     3.0539960    -0.2168530
  H        1.9503170     2.3628610     1.3467280
  H       -3.6866900    -0.8062480    -0.2063170
  H       -3.5045250     0.7387230    -1.0324830
  H       -4.3076550     0.6763420     0.5479980
  H        0.9449730    -2.0486830     1.8550460
  H        1.8828740    -2.9264540     0.6079930
  H        0.1338470    -2.6618440     0.4039710
units angstrom
no_reorient  #important for SAPT in psi4, default
symmetry c1  #important for SAPT in psi4, default
}

set PROPERTIES_ORIGIN ["COM"]
properties('MP2/aug-cc-pvtz', properties = ['dipole'])
--------------------------------------------------------------------------

    Molecular point group: c1
  Charge       = 0
  Multiplicity = 1
  Basis Set: AUG-CC-PVTZ
    Blend: AUG-CC-PVTZ
  Basis Set: (AUG-CC-PVTZ AUX)
    Blend: AUG-CC-PVTZ-JKFIT

    Orbital Energies [Eh]
    ---------------------

    Doubly Occupied:

       1A    -20.552031     2A    -20.548781     3A    -11.351999
       4A    -11.343178     5A    -11.262000     6A    -11.256481
       7A    -11.244087     8A    -11.236931     9A    -11.226311
      10A    -11.221894    11A     -1.384460    12A     -1.333314
      13A     -1.122518    14A     -1.060165    15A     -1.026379
      16A     -0.981400    17A     -0.898580    18A     -0.843864
      19A     -0.780417    20A     -0.723044    21A     -0.681667
      22A     -0.672278    23A     -0.644788    24A     -0.628033
      25A     -0.602668    26A     -0.601341    27A     -0.594287
      28A     -0.567829    29A     -0.559395    30A     -0.539456
      31A     -0.529977    32A     -0.515822    33A     -0.509799
      34A     -0.506974    35A     -0.494171    36A     -0.486105
      37A     -0.457965    38A     -0.431748    39A     -0.414927

  @DF-RHF Final Energy:  -460.96639540974184

   => Energetics <=

    Nuclear Repulsion Energy =            551.0592527020837679
    One-Electron Energy =               -1720.3771701679927446
    Two-Electron Energy =                 708.3515220561671413
    Total Energy =                       -460.9663954097418355
  Basis Set: (AUG-CC-PVTZ AUX)
    Blend: AUG-CC-PVTZ-RI
    Molecular point group: c1

    Geometry (in Angstrom), charge = 0, multiplicity = 1:

       Center              X                  Y                   Z               Mass
    ------------   -----------------  -----------------  -----------------  -----------------
         O           -1.186229310637    -0.791680173652    -1.092953792428    15.994914619570
         O            2.227664689363    -0.806275173652    -0.732681792428    15.994914619570
         C            0.380151689363     0.269649826348     0.379609207572    12.000000000000
         C            0.835746689363     1.563865826348    -0.310381792428    12.000000000000
         C           -0.960552310637    -0.048192273652    -0.024155392428    12.000000000000
         C            1.312978689363    -0.903156173652     0.078666207572    12.000000000000
         C           -2.188572310637     0.501927826348     0.671364207572    12.000000000000
         C            2.088359689363     2.161608826348     0.324244207572    12.000000000000
         C            1.032089689363    -2.192750173652     0.814898207572    12.000000000000
         C           -3.528114310637     0.291304826348    -0.018965792428    12.000000000000
         H            0.352574689363     0.425249826348     1.469092207572     1.007825032230
         H            1.018926689363     1.330549826348    -1.363248792428     1.007825032230
         H            0.021789689363     2.298406826348    -0.274839792428     1.007825032230
         H           -1.989635310637     1.566582826348     0.848779207572     1.007825032230
         H           -2.178724310637     0.035025826348     1.666833207572     1.007825032230
         H            2.925763689363     1.465835826348     0.250489207572     1.007825032230
         H            2.372009689363     3.088053826348    -0.183593792428     1.007825032230
         H            1.918173689363     2.396918826348     1.379987207572     1.007825032230
         H           -3.718833310637    -0.772190173652    -0.173057792428     1.007825032230
         H           -3.536668310637     0.772780826348    -0.999223792428     1.007825032230
         H           -4.339798310637     0.710399826348     0.581257207572     1.007825032230
         H            0.912829689363    -2.014625173652     1.888305207572     1.007825032230
         H            1.850730689363    -2.892396173652     0.641252207572     1.007825032230
         H            0.101703689363    -2.627786173652     0.437230207572     1.007825032230

  Basis Set: AUG-CC-PVTZ
    Blend: AUG-CC-PVTZ
  Basis Set: (AUG-CC-PVTZ AUX)
    Blend: AUG-CC-PVTZ-JKFIT
	 Reference Energy          =    -460.9663954097418355 [Eh]
	 Singles Energy            =      -0.0000000000000000 [Eh]
	 Same-Spin Energy          =      -0.4723037989647476 [Eh]
	 Opposite-Spin Energy      =      -1.5754944977187453 [Eh]
	 Correlation Energy        =      -2.0477982966834931 [Eh]
	 Total Energy              =    -463.0141937064253170 [Eh]

	 ================> DF-SCS-MP2 Energies <==================
	-----------------------------------------------------------
	 SCS Same-Spin Scale       =       0.3333333333333333 [-]
	 SCS Opposite-Spin Scale   =       1.2000000000000000 [-]
	 SCS Same-Spin Energy      =      -0.1574345996549159 [Eh]
	 SCS Opposite-Spin Energy  =      -1.8905933972624942 [Eh]
	 SCS Correlation Energy    =      -2.0480279969174102 [Eh]
	 SCS Total Energy          =    -463.0144234066592617 [Eh]
	-----------------------------------------------------------

  Dipole Moment: [D]
     X:    -1.4287      Y:     1.5855      Z:     3.7723     Total:     4.3342

*** Psi4 exiting successfully. Buy a developer a beer!
