                               Psi4 1.4a3.dev225

  ==> Input File <==

--------------------------------------------------------------------------
#psi4
#
memory 32 gb

molecule  {
0 1
  O       -1.1540860    -0.8257380    -1.1262130
  O        2.2598080    -0.8403330    -0.7659410
  C        0.4122950     0.2355920     0.3463500
  C        0.8678900     1.5298080    -0.3436410
  C       -0.9920820    -0.1169500    -0.1343550
  C        1.3451220    -0.9372140     0.0454070
  C       -2.1564290     0.4678700     0.6381050
  C        2.1205030     2.1275510     0.2909850
  C        1.0642330    -2.2268080     0.7816390
  C       -3.4959710     0.2572470    -0.0522250
  H        0.3847180     0.3911920     1.4358330
  H        1.0510700     1.2964920    -1.3965080
  H        0.0539330     2.2643490    -0.3080990
  H       -1.9574920     1.5325250     0.8155200
  H       -2.1465810     0.0009680     1.6335740
  H        2.9579070     1.4317780     0.2172300
  H        2.4041530     3.0539960    -0.2168530
  H        1.9503170     2.3628610     1.3467280
  H       -3.6866900    -0.8062480    -0.2063170
  H       -3.5045250     0.7387230    -1.0324830
  H       -4.3076550     0.6763420     0.5479980
  H        0.9395254    -2.0405465     1.9040778
  H        1.8828740    -2.9264540     0.6079930
  H        0.1338470    -2.6618440     0.4039710
units angstrom
no_reorient  #important for SAPT in psi4, default
symmetry c1  #important for SAPT in psi4, default
}

set PROPERTIES_ORIGIN ["COM"]
properties('MP2/aug-cc-pvtz', properties = ['dipole'])
--------------------------------------------------------------------------

    Molecular point group: c1
  Charge       = 0
  Multiplicity = 1
  Basis Set: AUG-CC-PVTZ
    Blend: AUG-CC-PVTZ
  Basis Set: (AUG-CC-PVTZ AUX)
    Blend: AUG-CC-PVTZ-JKFIT

    Orbital Energies [Eh]
    ---------------------

    Doubly Occupied:

       1A    -20.558219     2A    -20.549306     3A    -11.345914
       4A    -11.338886     5A    -11.258531     6A    -11.252834
       7A    -11.241663     8A    -11.237514     9A    -11.225904
      10A    -11.218026    11A     -1.392452    12A     -1.378992
      13A     -1.107531    14A     -1.060647    15A     -1.020358
      16A     -0.968376    17A     -0.894624    18A     -0.837304
      19A     -0.768462    20A     -0.722808    21A     -0.683210
      22A     -0.672165    23A     -0.644250    24A     -0.626298
      25A     -0.623185    26A     -0.599518    27A     -0.586464
      28A     -0.567663    29A     -0.555486    30A     -0.537755
      31A     -0.534312    32A     -0.522398    33A     -0.510034
      34A     -0.506435    35A     -0.492129    36A     -0.483955
      37A     -0.483048    38A     -0.427374    39A     -0.407716

  @DF-RHF Final Energy:  -460.99007175334305

   => Energetics <=

    Nuclear Repulsion Energy =            550.8757206835986153
    One-Electron Energy =               -1720.0480954308543460
    Two-Electron Energy =                 708.1823029939125718
    Total Energy =                       -460.9900717533430452
  Basis Set: (AUG-CC-PVTZ AUX)
    Blend: AUG-CC-PVTZ-RI
    Molecular point group: c1

    Geometry (in Angstrom), charge = 0, multiplicity = 1:

       Center              X                  Y                   Z               Mass
    ------------   -----------------  -----------------  -----------------  -----------------
         O           -1.180813620369    -0.788807545830    -1.086804087014    15.994914619570
         O            2.233080379631    -0.803402545830    -0.726532087014    15.994914619570
         C            0.385567379631     0.272522454170     0.385758912986    12.000000000000
         C            0.841162379631     1.566738454170    -0.304232087014    12.000000000000
         C           -1.018809620369    -0.080019545830    -0.094946087014    12.000000000000
         C            1.318394379631    -0.900283545830     0.084815912986    12.000000000000
         C           -2.183156620369     0.504800454170     0.677513912986    12.000000000000
         C            2.093775379631     2.164481454170     0.330393912986    12.000000000000
         C            1.037505379631    -2.189877545830     0.821047912986    12.000000000000
         C           -3.522698620369     0.294177454170    -0.012816087014    12.000000000000
         H            0.357990379631     0.428122454170     1.475241912986     1.007825032230
         H            1.024342379631     1.333422454170    -1.357099087014     1.007825032230
         H            0.027205379631     2.301279454170    -0.268690087014     1.007825032230
         H           -1.984219620369     1.569455454170     0.854928912986     1.007825032230
         H           -2.173308620369     0.037898454170     1.672982912986     1.007825032230
         H            2.931179379631     1.468708454170     0.256638912986     1.007825032230
         H            2.377425379631     3.090926454170    -0.177444087014     1.007825032230
         H            1.923589379631     2.399791454170     1.386136912986     1.007825032230
         H           -3.713417620369    -0.769317545830    -0.166908087014     1.007825032230
         H           -3.531252620369     0.775653454170    -0.993074087014     1.007825032230
         H           -4.334382620369     0.713272454170     0.587406912986     1.007825032230
         H            0.912797779631    -2.003616045830     1.943486712986     1.007825032230
         H            1.856146379631    -2.889523545830     0.647401912986     1.007825032230
         H            0.107119379631    -2.624913545830     0.443379912986     1.007825032230

  Basis Set: AUG-CC-PVTZ
    Blend: AUG-CC-PVTZ
  Basis Set: (AUG-CC-PVTZ AUX)
    Blend: AUG-CC-PVTZ-JKFIT
	 Reference Energy          =    -460.9900717533430452 [Eh]
	 Singles Energy            =      -0.0000000000000000 [Eh]
	 Same-Spin Energy          =      -0.4688374179388534 [Eh]
	 Opposite-Spin Energy      =      -1.5690085178813564 [Eh]
	 Correlation Energy        =      -2.0378459358202097 [Eh]
	 Total Energy              =    -463.0279176891632460 [Eh]

	 ================> DF-SCS-MP2 Energies <==================
	-----------------------------------------------------------
	 SCS Same-Spin Scale       =       0.3333333333333333 [-]
	 SCS Opposite-Spin Scale   =       1.2000000000000000 [-]
	 SCS Same-Spin Energy      =      -0.1562791393129511 [Eh]
	 SCS Opposite-Spin Energy  =      -1.8828102214576277 [Eh]
	 SCS Correlation Energy    =      -2.0390893607705789 [Eh]
	 SCS Total Energy          =    -463.0291611141136059 [Eh]
	-----------------------------------------------------------

  Dipole Moment: [D]
     X:    -1.7681      Y:     1.4095      Z:     3.5716     Total:     4.2272

*** Psi4 exiting successfully. Buy a developer a beer!
