                               Psi4 1.4a3.dev225

  ==> Input File <==

--------------------------------------------------------------------------
#psi4
#
memory 32 gb

molecule  {
0 1
  O       -1.1540860    -0.8257380    -1.1262130
  O        2.2598080    -0.8403330    -0.7659410
  C        0.4122950     0.2355920     0.3463500
  C        0.8678900     1.5298080    -0.3436410
  C       -0.9920820    -0.1169500    -0.1343550
  C        1.3451220    -0.9372140     0.0454070
  C       -2.1564290     0.4678700     0.6381050
  C        2.1205030     2.1275510     0.2909850
  C        1.0642330    -2.2268080     0.7816390
  C       -3.4959710     0.2572470    -0.0522250
  H        0.3847180     0.3911920     1.4358330
  H        1.0510700     1.2964920    -1.3965080
  H        0.0539330     2.2643490    -0.3080990
  H       -1.9574920     1.5325250     0.8155200
  H       -2.1465810     0.0009680     1.6335740
  H        2.9579070     1.4317780     0.2172300
  H        2.4041530     3.0539960    -0.2168530
  H        1.9503170     2.3628610     1.3467280
  H       -3.6866900    -0.8062480    -0.2063170
  H       -3.5045250     0.7387230    -1.0324830
  H       -4.4561735     0.7530262     0.6578242
  H        0.9449730    -2.0486830     1.8550460
  H        1.8828740    -2.9264540     0.6079930
  H        0.1338470    -2.6618440     0.4039710
units angstrom
no_reorient  #important for SAPT in psi4, default
symmetry c1  #important for SAPT in psi4, default
}

set PROPERTIES_ORIGIN ["COM"]
properties('MP2/aug-cc-pvtz', properties = ['dipole'])
--------------------------------------------------------------------------

    Molecular point group: c1
  Charge       = 0
  Multiplicity = 1
  Basis Set: AUG-CC-PVTZ
    Blend: AUG-CC-PVTZ
  Basis Set: (AUG-CC-PVTZ AUX)
    Blend: AUG-CC-PVTZ-JKFIT

    Orbital Energies [Eh]
    ---------------------

    Doubly Occupied:

       1A    -20.560082     2A    -20.549736     3A    -11.348024
       4A    -11.339291     5A    -11.259890     6A    -11.255332
       7A    -11.249420     8A    -11.238429     9A    -11.236442
      10A    -11.218693    11A     -1.394220    12A     -1.379653
      13A     -1.108739    14A     -1.059188    15A     -1.023323
      16A     -0.969157    17A     -0.885285    18A     -0.838370
      19A     -0.768976    20A     -0.724518    21A     -0.682602
      22A     -0.673424    23A     -0.646194    24A     -0.627223
      25A     -0.623144    26A     -0.599717    27A     -0.592059
      28A     -0.567266    29A     -0.555696    30A     -0.539383
      31A     -0.528045    32A     -0.512525    33A     -0.508247
      34A     -0.499396    35A     -0.493350    36A     -0.485348
      37A     -0.484034    38A     -0.428186    39A     -0.408022

  @DF-RHF Final Energy:  -460.97225068869011

   => Energetics <=

    Nuclear Repulsion Energy =            550.2639260071917988
    One-Electron Energy =               -1718.7510955701861803
    Two-Electron Energy =                 707.5149188743043851
    Total Energy =                       -460.9722506886901101
  Basis Set: (AUG-CC-PVTZ AUX)
    Blend: AUG-CC-PVTZ-RI
    Molecular point group: c1

    Geometry (in Angstrom), charge = 0, multiplicity = 1:

       Center              X                  Y                   Z               Mass
    ------------   -----------------  -----------------  -----------------  -----------------
         O           -1.179798904930    -0.789293713244    -1.087235264956    15.994914619570
         O            2.234095095070    -0.803888713244    -0.726963264956    15.994914619570
         C            0.386582095070     0.272036286756     0.385327735044    12.000000000000
         C            0.842177095070     1.566252286756    -0.304663264956    12.000000000000
         C           -1.017794904930    -0.080505713244    -0.095377264956    12.000000000000
         C            1.319409095070    -0.900769713244     0.084384735044    12.000000000000
         C           -2.182141904930     0.504314286756     0.677082735044    12.000000000000
         C            2.094790095070     2.163995286756     0.329962735044    12.000000000000
         C            1.038520095070    -2.190363713244     0.820616735044    12.000000000000
         C           -3.521683904930     0.293691286756    -0.013247264956    12.000000000000
         H            0.359005095070     0.427636286756     1.474810735044     1.007825032230
         H            1.025357095070     1.332936286756    -1.357530264956     1.007825032230
         H            0.028220095070     2.300793286756    -0.269121264956     1.007825032230
         H           -1.983204904930     1.568969286756     0.854497735044     1.007825032230
         H           -2.172293904930     0.037412286756     1.672551735044     1.007825032230
         H            2.932194095070     1.468222286756     0.256207735044     1.007825032230
         H            2.378440095070     3.090440286756    -0.177875264956     1.007825032230
         H            1.924604095070     2.399305286756     1.385705735044     1.007825032230
         H           -3.712402904930    -0.769803713244    -0.167339264956     1.007825032230
         H           -3.530237904930     0.775167286756    -0.993505264956     1.007825032230
         H           -4.481886404930     0.789470486756     0.696801935044     1.007825032230
         H            0.919260095070    -2.012238713244     1.894023735044     1.007825032230
         H            1.857161095070    -2.890009713244     0.646970735044     1.007825032230
         H            0.108134095070    -2.625399713244     0.442948735044     1.007825032230

  Basis Set: AUG-CC-PVTZ
    Blend: AUG-CC-PVTZ
  Basis Set: (AUG-CC-PVTZ AUX)
    Blend: AUG-CC-PVTZ-JKFIT
	 Reference Energy          =    -460.9722506886901101 [Eh]
	 Singles Energy            =      -0.0000000000000000 [Eh]
	 Same-Spin Energy          =      -0.4686975943086770 [Eh]
	 Opposite-Spin Energy      =      -1.5701744719494459 [Eh]
	 Correlation Energy        =      -2.0388720662581230 [Eh]
	 Total Energy              =    -463.0111227549482464 [Eh]

	 ================> DF-SCS-MP2 Energies <==================
	-----------------------------------------------------------
	 SCS Same-Spin Scale       =       0.3333333333333333 [-]
	 SCS Opposite-Spin Scale   =       1.2000000000000000 [-]
	 SCS Same-Spin Energy      =      -0.1562325314362257 [Eh]
	 SCS Opposite-Spin Energy  =      -1.8842093663393351 [Eh]
	 SCS Correlation Energy    =      -2.0404418977755610 [Eh]
	 SCS Total Energy          =    -463.0126925864656755 [Eh]
	-----------------------------------------------------------

  Dipole Moment: [D]
     X:    -1.6054      Y:     1.3597      Z:     3.5294     Total:     4.1089

*** Psi4 exiting successfully. Buy a developer a beer!
