                               Psi4 1.4a3.dev225

  ==> Input File <==

--------------------------------------------------------------------------
#psi4
#
memory 32 gb

molecule  {
0 1
  O       -1.1540860    -0.8257380    -1.1262130
  O        2.2598080    -0.8403330    -0.7659410
  C        0.4122950     0.2355920     0.3463500
  C        0.8678900     1.5298080    -0.3436410
  C       -0.9920820    -0.1169500    -0.1343550
  C        1.3451220    -0.9372140     0.0454070
  C       -2.1564290     0.4678700     0.6381050
  C        2.1205030     2.1275510     0.2909850
  C        1.0642330    -2.2268080     0.7816390
  C       -3.4959710     0.2572470    -0.0522250
  H        0.3847180     0.3911920     1.4358330
  H        1.0510700     1.2964920    -1.3965080
  H        0.0539330     2.2643490    -0.3080990
  H       -1.9574920     1.5325250     0.8155200
  H       -2.1465810     0.0009680     1.6335740
  H        2.9537264     1.4318022     0.1793709
  H        2.4041530     3.0539960    -0.2168530
  H        1.9503170     2.3628610     1.3467280
  H       -3.6866900    -0.8062480    -0.2063170
  H       -3.5045250     0.7387230    -1.0324830
  H       -4.3076550     0.6763420     0.5479980
  H        0.9449730    -2.0486830     1.8550460
  H        1.8828740    -2.9264540     0.6079930
  H        0.1338470    -2.6618440     0.4039710
units angstrom
no_reorient  #important for SAPT in psi4, default
symmetry c1  #important for SAPT in psi4, default
}

set PROPERTIES_ORIGIN ["COM"]
properties('MP2/aug-cc-pvtz', properties = ['dipole'])
--------------------------------------------------------------------------

    Molecular point group: c1
  Charge       = 0
  Multiplicity = 1
  Basis Set: AUG-CC-PVTZ
    Blend: AUG-CC-PVTZ
  Basis Set: (AUG-CC-PVTZ AUX)
    Blend: AUG-CC-PVTZ-JKFIT

    Orbital Energies [Eh]
    ---------------------

    Doubly Occupied:

       1A    -20.558157     2A    -20.548851     3A    -11.345871
       4A    -11.338394     5A    -11.258525     6A    -11.252842
       7A    -11.237241     8A    -11.235659     9A    -11.225900
      10A    -11.217878    11A     -1.392339    12A     -1.378664
      13A     -1.107620    14A     -1.060694    15A     -1.022571
      16A     -0.969672    17A     -0.894725    18A     -0.837087
      19A     -0.768615    20A     -0.723369    21A     -0.683187
      22A     -0.673588    23A     -0.644128    24A     -0.625958
      25A     -0.623328    26A     -0.600053    27A     -0.591663
      28A     -0.568418    29A     -0.555849    30A     -0.537941
      31A     -0.535036    32A     -0.522687    33A     -0.509660
      34A     -0.506064    35A     -0.492307    36A     -0.484998
      37A     -0.482567    38A     -0.427196    39A     -0.407413

  @DF-RHF Final Energy:  -460.99195757048312

   => Energetics <=

    Nuclear Repulsion Energy =            551.1148298009062501
    One-Electron Energy =               -1720.5201440980572443
    Two-Electron Energy =                 708.4133567266679847
    Total Energy =                       -460.9919575704831232
  Basis Set: (AUG-CC-PVTZ AUX)
    Blend: AUG-CC-PVTZ-RI
    Molecular point group: c1

    Geometry (in Angstrom), charge = 0, multiplicity = 1:

       Center              X                  Y                   Z               Mass
    ------------   -----------------  -----------------  -----------------  -----------------
         O           -1.180822606434    -0.788750010188    -1.086187822367    15.994914619570
         O            2.233071393566    -0.803345010188    -0.725915822367    15.994914619570
         C            0.385558393566     0.272579989812     0.386375177633    12.000000000000
         C            0.841153393566     1.566795989812    -0.303615822367    12.000000000000
         C           -1.018818606434    -0.079962010188    -0.094329822367    12.000000000000
         C            1.318385393566    -0.900226010188     0.085432177633    12.000000000000
         C           -2.183165606434     0.504857989812     0.678130177633    12.000000000000
         C            2.093766393566     2.164538989812     0.331010177633    12.000000000000
         C            1.037496393566    -2.189820010188     0.821664177633    12.000000000000
         C           -3.522707606434     0.294234989812    -0.012199822367    12.000000000000
         H            0.357981393566     0.428179989812     1.475858177633     1.007825032230
         H            1.024333393566     1.333479989812    -1.356482822367     1.007825032230
         H            0.027196393566     2.301336989812    -0.268073822367     1.007825032230
         H           -1.984228606434     1.569512989812     0.855545177633     1.007825032230
         H           -2.173317606434     0.037955989812     1.673599177633     1.007825032230
         H            2.926989793566     1.468790189812     0.219396077633     1.007825032230
         H            2.377416393566     3.090983989812    -0.176827822367     1.007825032230
         H            1.923580393566     2.399848989812     1.386753177633     1.007825032230
         H           -3.713426606434    -0.769260010188    -0.166291822367     1.007825032230
         H           -3.531261606434     0.775710989812    -0.992457822367     1.007825032230
         H           -4.334391606434     0.713329989812     0.588023177633     1.007825032230
         H            0.918236393566    -2.011695010188     1.895071177633     1.007825032230
         H            1.856137393566    -2.889466010188     0.648018177633     1.007825032230
         H            0.107110393566    -2.624856010188     0.443996177633     1.007825032230

  Basis Set: AUG-CC-PVTZ
    Blend: AUG-CC-PVTZ
  Basis Set: (AUG-CC-PVTZ AUX)
    Blend: AUG-CC-PVTZ-JKFIT
	 Reference Energy          =    -460.9919575704831232 [Eh]
	 Singles Energy            =      -0.0000000000000000 [Eh]
	 Same-Spin Energy          =      -0.4688724643154873 [Eh]
	 Opposite-Spin Energy      =      -1.5687302258780336 [Eh]
	 Correlation Energy        =      -2.0376026901935207 [Eh]
	 Total Energy              =    -463.0295602606766465 [Eh]

	 ================> DF-SCS-MP2 Energies <==================
	-----------------------------------------------------------
	 SCS Same-Spin Scale       =       0.3333333333333333 [-]
	 SCS Opposite-Spin Scale   =       1.2000000000000000 [-]
	 SCS Same-Spin Energy      =      -0.1562908214384958 [Eh]
	 SCS Opposite-Spin Energy  =      -1.8824762710536402 [Eh]
	 SCS Correlation Energy    =      -2.0387670924921362 [Eh]
	 SCS Total Energy          =    -463.0307246629752740 [Eh]
	-----------------------------------------------------------

  Dipole Moment: [D]
     X:    -1.7729      Y:     1.4108      Z:     3.5823     Total:     4.2387

*** Psi4 exiting successfully. Buy a developer a beer!
