                               Psi4 1.4a3.dev225

  ==> Input File <==

--------------------------------------------------------------------------
#psi4
#
memory 32 gb

molecule  {
0 1
  O       -1.1540860    -0.8257380    -1.1262130
  O        2.2598080    -0.8403330    -0.7659410
  C        0.4122950     0.2355920     0.3463500
  C        0.8678900     1.5298080    -0.3436410
  C       -0.9920820    -0.1169500    -0.1343550
  C        1.3451220    -0.9372140     0.0454070
  C       -2.1564290     0.4678700     0.6381050
  C        2.1205030     2.1275510     0.2909850
  C        1.0642330    -2.2268080     0.7816390
  C       -3.4959710     0.2572470    -0.0522250
  H        0.3847180     0.3911920     1.4358330
  H        1.0510700     1.2964920    -1.3965080
  H        0.0539330     2.2643490    -0.3080990
  H       -1.9574920     1.5325250     0.8155200
  H       -2.1465810     0.0009680     1.6335740
  H        2.9579070     1.4317780     0.2172300
  H        2.4041530     3.0539960    -0.2168530
  H        1.9503170     2.3628610     1.3467280
  H       -3.6866900    -0.8062480    -0.2063170
  H       -3.5045250     0.7387230    -1.0324830
  H       -4.3447846     0.6955131     0.5754546
  H        0.9449730    -2.0486830     1.8550460
  H        1.8828740    -2.9264540     0.6079930
  H        0.1338470    -2.6618440     0.4039710
units angstrom
no_reorient  #important for SAPT in psi4, default
symmetry c1  #important for SAPT in psi4, default
}

set PROPERTIES_ORIGIN ["COM"]
properties('MP2/aug-cc-pvtz', properties = ['dipole'])
--------------------------------------------------------------------------

    Molecular point group: c1
  Charge       = 0
  Multiplicity = 1
  Basis Set: AUG-CC-PVTZ
    Blend: AUG-CC-PVTZ
  Basis Set: (AUG-CC-PVTZ AUX)
    Blend: AUG-CC-PVTZ-JKFIT

    Orbital Energies [Eh]
    ---------------------

    Doubly Occupied:

       1A    -20.558588     2A    -20.548980     3A    -11.346332
       4A    -11.338527     5A    -11.258840     6A    -11.253387
       7A    -11.237707     8A    -11.235817     9A    -11.232067
      10A    -11.218156    11A     -1.392743    12A     -1.378807
      13A     -1.107833    14A     -1.059931    15A     -1.022667
      16A     -0.969329    17A     -0.891619    18A     -0.837757
      19A     -0.768580    20A     -0.723614    21A     -0.682803
      22A     -0.673277    23A     -0.644676    24A     -0.626261
      25A     -0.623010    26A     -0.599208    27A     -0.591755
      28A     -0.567470    29A     -0.555924    30A     -0.538003
      31A     -0.529741    32A     -0.521364    33A     -0.510325
      34A     -0.507155    35A     -0.492535    36A     -0.484514
      37A     -0.483160    38A     -0.427432    39A     -0.407596

  @DF-RHF Final Energy:  -460.99009912463322

   => Energetics <=

    Nuclear Repulsion Energy =            550.8657817851137679
    One-Electron Energy =               -1720.0167833857394726
    Two-Electron Energy =                 708.1609024759925433
    Total Energy =                       -460.9900991246331614
  Basis Set: (AUG-CC-PVTZ AUX)
    Blend: AUG-CC-PVTZ-RI
    Molecular point group: c1

    Geometry (in Angstrom), charge = 0, multiplicity = 1:

       Center              X                  Y                   Z               Mass
    ------------   -----------------  -----------------  -----------------  -----------------
         O           -1.180588919088    -0.788885807580    -1.086651067158    15.994914619570
         O            2.233305080912    -0.803480807580    -0.726379067158    15.994914619570
         C            0.385792080912     0.272444192420     0.385911932842    12.000000000000
         C            0.841387080912     1.566660192420    -0.304079067158    12.000000000000
         C           -1.018584919088    -0.080097807580    -0.094793067158    12.000000000000
         C            1.318619080912    -0.900361807580     0.084968932842    12.000000000000
         C           -2.182931919088     0.504722192420     0.677666932842    12.000000000000
         C            2.094000080912     2.164403192420     0.330546932842    12.000000000000
         C            1.037730080912    -2.189955807580     0.821200932842    12.000000000000
         C           -3.522473919088     0.294099192420    -0.012663067158    12.000000000000
         H            0.358215080912     0.428044192420     1.475394932842     1.007825032230
         H            1.024567080912     1.333344192420    -1.356946067158     1.007825032230
         H            0.027430080912     2.301201192420    -0.268537067158     1.007825032230
         H           -1.983994919088     1.569377192420     0.855081932842     1.007825032230
         H           -2.173083919088     0.037820192420     1.673135932842     1.007825032230
         H            2.931404080912     1.468630192420     0.256791932842     1.007825032230
         H            2.377650080912     3.090848192420    -0.177291067158     1.007825032230
         H            1.923814080912     2.399713192420     1.386289932842     1.007825032230
         H           -3.713192919088    -0.769395807580    -0.166755067158     1.007825032230
         H           -3.531027919088     0.775575192420    -0.992921067158     1.007825032230
         H           -4.371287519088     0.732365292420     0.615016532842     1.007825032230
         H            0.918470080912    -2.011830807580     1.894607932842     1.007825032230
         H            1.856371080912    -2.889601807580     0.647554932842     1.007825032230
         H            0.107344080912    -2.624991807580     0.443532932842     1.007825032230

  Basis Set: AUG-CC-PVTZ
    Blend: AUG-CC-PVTZ
  Basis Set: (AUG-CC-PVTZ AUX)
    Blend: AUG-CC-PVTZ-JKFIT
	 Reference Energy          =    -460.9900991246332183 [Eh]
	 Singles Energy            =      -0.0000000000000000 [Eh]
	 Same-Spin Energy          =      -0.4688113992538979 [Eh]
	 Opposite-Spin Energy      =      -1.5690138152033737 [Eh]
	 Correlation Energy        =      -2.0378252144572717 [Eh]
	 Total Energy              =    -463.0279243390904753 [Eh]

	 ================> DF-SCS-MP2 Energies <==================
	-----------------------------------------------------------
	 SCS Same-Spin Scale       =       0.3333333333333333 [-]
	 SCS Opposite-Spin Scale   =       1.2000000000000000 [-]
	 SCS Same-Spin Energy      =      -0.1562704664179659 [Eh]
	 SCS Opposite-Spin Energy  =      -1.8828165782440482 [Eh]
	 SCS Correlation Energy    =      -2.0390870446620144 [Eh]
	 SCS Total Energy          =    -463.0291861692952580 [Eh]
	-----------------------------------------------------------

  Dipole Moment: [D]
     X:    -1.7372      Y:     1.3994      Z:     3.5777     Total:     4.2162

*** Psi4 exiting successfully. Buy a developer a beer!
