                               Psi4 1.4a3.dev225

  ==> Input File <==

--------------------------------------------------------------------------
#psi4
#
memory 32 gb

molecule  {
0 1
  O       -1.1540860    -0.8257380    -1.1262130
  O        2.2598080    -0.8403330    -0.7659410
  C        0.4690715     0.2936526     0.2771607
  C        0.8678900     1.5298080    -0.3436410
  C       -0.9920820    -0.1169500    -0.1343550
  C        1.3451220    -0.9372140     0.0454070
  C       -2.1564290     0.4678700     0.6381050
  C        2.1205030     2.1275510     0.2909850
  C        1.0642330    -2.2268080     0.7816390
  C       -3.4959710     0.2572470    -0.0522250
  H        0.3847180     0.3911920     1.4358330
  H        1.0510700     1.2964920    -1.3965080
  H        0.0539330     2.2643490    -0.3080990
  H       -1.9574920     1.5325250     0.8155200
  H       -2.1465810     0.0009680     1.6335740
  H        2.9579070     1.4317780     0.2172300
  H        2.4041530     3.0539960    -0.2168530
  H        1.9503170     2.3628610     1.3467280
  H       -3.6866900    -0.8062480    -0.2063170
  H       -3.5045250     0.7387230    -1.0324830
  H       -4.3076550     0.6763420     0.5479980
  H        0.9449730    -2.0486830     1.8550460
  H        1.8828740    -2.9264540     0.6079930
  H        0.1338470    -2.6618440     0.4039710
units angstrom
no_reorient  #important for SAPT in psi4, default
symmetry c1  #important for SAPT in psi4, default
}

set PROPERTIES_ORIGIN ["COM"]
properties('MP2/aug-cc-pvtz', properties = ['dipole'])
--------------------------------------------------------------------------

    Molecular point group: c1
  Charge       = 0
  Multiplicity = 1
  Basis Set: AUG-CC-PVTZ
    Blend: AUG-CC-PVTZ
  Basis Set: (AUG-CC-PVTZ AUX)
    Blend: AUG-CC-PVTZ-JKFIT

    Orbital Energies [Eh]
    ---------------------

    Doubly Occupied:

       1A    -20.559279     2A    -20.545801     3A    -11.347231
       4A    -11.337286     5A    -11.262343     6A    -11.254072
       7A    -11.238661     8A    -11.230445     9A    -11.226771
      10A    -11.217164    11A     -1.392418    12A     -1.378287
      13A     -1.114211    14A     -1.062997    15A     -1.022456
      16A     -0.965438    17A     -0.896325    18A     -0.842649
      19A     -0.764473    20A     -0.718183    21A     -0.679225
      22A     -0.676573    23A     -0.644854    24A     -0.628902
      25A     -0.621995    26A     -0.600628    27A     -0.595169
      28A     -0.564986    29A     -0.557343    30A     -0.536751
      31A     -0.533802    32A     -0.522002    33A     -0.513800
      34A     -0.509308    35A     -0.491798    36A     -0.484659
      37A     -0.483262    38A     -0.424583    39A     -0.402411

  @DF-RHF Final Energy:  -460.98018035122311

   => Energetics <=

    Nuclear Repulsion Energy =            551.4298178046672092
    One-Electron Energy =               -1721.1229173991125663
    Two-Electron Energy =                 708.7129192432222453
    Total Energy =                       -460.9801803512231118
  Basis Set: (AUG-CC-PVTZ AUX)
    Blend: AUG-CC-PVTZ-RI
    Molecular point group: c1

    Geometry (in Angstrom), charge = 0, multiplicity = 1:

       Center              X                  Y                   Z               Mass
    ------------   -----------------  -----------------  -----------------  -----------------
         O           -1.185646915413    -0.793652936662    -1.080613440177    15.994914619570
         O            2.228247084587    -0.808247936662    -0.720341440177    15.994914619570
         C            0.437510584587     0.325737663338     0.322760259823    12.000000000000
         C            0.836329084587     1.561893063338    -0.298041440177    12.000000000000
         C           -1.023642915413    -0.084864936662    -0.088755440177    12.000000000000
         C            1.313561084587    -0.905128936662     0.091006559823    12.000000000000
         C           -2.187989915413     0.499955063338     0.683704559823    12.000000000000
         C            2.088942084587     2.159636063338     0.336584559823    12.000000000000
         C            1.032672084587    -2.194722936662     0.827238559823    12.000000000000
         C           -3.527531915413     0.289332063338    -0.006625440177    12.000000000000
         H            0.353157084587     0.423277063338     1.481432559823     1.007825032230
         H            1.019509084587     1.328577063338    -1.350908440177     1.007825032230
         H            0.022372084587     2.296434063338    -0.262499440177     1.007825032230
         H           -1.989052915413     1.564610063338     0.861119559823     1.007825032230
         H           -2.178141915413     0.033053063338     1.679173559823     1.007825032230
         H            2.926346084587     1.463863063338     0.262829559823     1.007825032230
         H            2.372592084587     3.086081063338    -0.171253440177     1.007825032230
         H            1.918756084587     2.394946063338     1.392327559823     1.007825032230
         H           -3.718250915413    -0.774162936662    -0.160717440177     1.007825032230
         H           -3.536085915413     0.770808063338    -0.986883440177     1.007825032230
         H           -4.339215915413     0.708427063338     0.593597559823     1.007825032230
         H            0.913412084587    -2.016597936662     1.900645559823     1.007825032230
         H            1.851313084587    -2.894368936662     0.653592559823     1.007825032230
         H            0.102286084587    -2.629758936662     0.449570559823     1.007825032230

  Basis Set: AUG-CC-PVTZ
    Blend: AUG-CC-PVTZ
  Basis Set: (AUG-CC-PVTZ AUX)
    Blend: AUG-CC-PVTZ-JKFIT
	 Reference Energy          =    -460.9801803512231118 [Eh]
	 Singles Energy            =      -0.0000000000000000 [Eh]
	 Same-Spin Energy          =      -0.4695523270007235 [Eh]
	 Opposite-Spin Energy      =      -1.5698552533385728 [Eh]
	 Correlation Energy        =      -2.0394075803392964 [Eh]
	 Total Energy              =    -463.0195879315623984 [Eh]

	 ================> DF-SCS-MP2 Energies <==================
	-----------------------------------------------------------
	 SCS Same-Spin Scale       =       0.3333333333333333 [-]
	 SCS Opposite-Spin Scale   =       1.2000000000000000 [-]
	 SCS Same-Spin Energy      =      -0.1565174423335745 [Eh]
	 SCS Opposite-Spin Energy  =      -1.8838263040062873 [Eh]
	 SCS Correlation Energy    =      -2.0403437463398619 [Eh]
	 SCS Total Energy          =    -463.0205240975629977 [Eh]
	-----------------------------------------------------------

  Dipole Moment: [D]
     X:    -1.9182      Y:     1.3513      Z:     3.5307     Total:     4.2393

*** Psi4 exiting successfully. Buy a developer a beer!
