                               Psi4 1.4a3.dev225

  ==> Input File <==

--------------------------------------------------------------------------
#psi4
#
memory 32 gb

molecule  {
0 1
  O       -1.1540860    -0.8257380    -1.1262130
  O        2.2598080    -0.8403330    -0.7659410
  C        0.4122950     0.2355920     0.3463500
  C        0.8678900     1.5298080    -0.3436410
  C       -0.9920820    -0.1169500    -0.1343550
  C        1.3451220    -0.9372140     0.0454070
  C       -2.1564290     0.4678700     0.6381050
  C        2.1205030     2.1275510     0.2909850
  C        1.0642330    -2.2268080     0.7816390
  C       -3.4959710     0.2572470    -0.0522250
  H        0.3847180     0.3911920     1.4358330
  H        1.0510700     1.2964920    -1.3965080
  H        0.0539330     2.2643490    -0.3080990
  H       -1.9574920     1.5325250     0.8155200
  H       -2.1465810     0.0009680     1.6335740
  H        2.9579070     1.4317780     0.2172300
  H        2.4041530     3.0539960    -0.2168530
  H        1.9503170     2.3628610     1.3467280
  H       -3.6866900    -0.8062480    -0.2063170
  H       -3.5045250     0.7387230    -1.0324830
  H       -4.3076550     0.6763420     0.5479980
  H        0.9160490    -2.0249784     1.8472188
  H        1.8828740    -2.9264540     0.6079930
  H        0.1338470    -2.6618440     0.4039710
units angstrom
no_reorient  #important for SAPT in psi4, default
symmetry c1  #important for SAPT in psi4, default
}

set PROPERTIES_ORIGIN ["COM"]
properties('MP2/aug-cc-pvtz', properties = ['dipole'])
--------------------------------------------------------------------------

    Molecular point group: c1
  Charge       = 0
  Multiplicity = 1
  Basis Set: AUG-CC-PVTZ
    Blend: AUG-CC-PVTZ
  Basis Set: (AUG-CC-PVTZ AUX)
    Blend: AUG-CC-PVTZ-JKFIT

    Orbital Energies [Eh]
    ---------------------

    Doubly Occupied:

       1A    -20.558211     2A    -20.548492     3A    -11.345913
       4A    -11.338037     5A    -11.258611     6A    -11.252937
       7A    -11.237539     8A    -11.235860     9A    -11.225968
      10A    -11.218006    11A     -1.392334    12A     -1.378414
      13A     -1.107701    14A     -1.060764    15A     -1.022834
      16A     -0.969627    17A     -0.894775    18A     -0.837491
      19A     -0.768535    20A     -0.723234    21A     -0.683166
      22A     -0.673348    23A     -0.644186    24A     -0.626448
      25A     -0.623167    26A     -0.599156    27A     -0.590850
      28A     -0.568119    29A     -0.557808    30A     -0.538150
      31A     -0.535080    32A     -0.522616    33A     -0.510057
      34A     -0.507041    35A     -0.492101    36A     -0.484032
      37A     -0.482854    38A     -0.427133    39A     -0.407285

  @DF-RHF Final Energy:  -460.99201327449879

   => Energetics <=

    Nuclear Repulsion Energy =            551.1554281895031409
    One-Electron Energy =               -1720.5991241959211493
    Two-Electron Energy =                 708.4516827319193908
    Total Energy =                       -460.9920132744987313
  Basis Set: (AUG-CC-PVTZ AUX)
    Blend: AUG-CC-PVTZ-RI
    Molecular point group: c1

    Geometry (in Angstrom), charge = 0, multiplicity = 1:

       Center              X                  Y                   Z               Mass
    ------------   -----------------  -----------------  -----------------  -----------------
         O           -1.180647116450    -0.788917960956    -1.086400820486    15.994914619570
         O            2.233246883550    -0.803512960956    -0.726128820486    15.994914619570
         C            0.385733883550     0.272412039044     0.386162179514    12.000000000000
         C            0.841328883550     1.566628039044    -0.303828820486    12.000000000000
         C           -1.018643116450    -0.080129960956    -0.094542820486    12.000000000000
         C            1.318560883550    -0.900393960956     0.085219179514    12.000000000000
         C           -2.182990116450     0.504690039044     0.677917179514    12.000000000000
         C            2.093941883550     2.164371039044     0.330797179514    12.000000000000
         C            1.037671883550    -2.189987960956     0.821451179514    12.000000000000
         C           -3.522532116450     0.294067039044    -0.012412820486    12.000000000000
         H            0.358156883550     0.428012039044     1.475645179514     1.007825032230
         H            1.024508883550     1.333312039044    -1.356695820486     1.007825032230
         H            0.027371883550     2.301169039044    -0.268286820486     1.007825032230
         H           -1.984053116450     1.569345039044     0.855332179514     1.007825032230
         H           -2.173142116450     0.037788039044     1.673386179514     1.007825032230
         H            2.931345883550     1.468598039044     0.257042179514     1.007825032230
         H            2.377591883550     3.090816039044    -0.177040820486     1.007825032230
         H            1.923755883550     2.399681039044     1.386540179514     1.007825032230
         H           -3.713251116450    -0.769427960956    -0.166504820486     1.007825032230
         H           -3.531086116450     0.775543039044    -0.992670820486     1.007825032230
         H           -4.334216116450     0.713162039044     0.587810179514     1.007825032230
         H            0.889487883550    -1.988158360956     1.887030979514     1.007825032230
         H            1.856312883550    -2.889633960956     0.647805179514     1.007825032230
         H            0.107285883550    -2.625023960956     0.443783179514     1.007825032230

  Basis Set: AUG-CC-PVTZ
    Blend: AUG-CC-PVTZ
  Basis Set: (AUG-CC-PVTZ AUX)
    Blend: AUG-CC-PVTZ-JKFIT
	 Reference Energy          =    -460.9920132744987882 [Eh]
	 Singles Energy            =      -0.0000000000000000 [Eh]
	 Same-Spin Energy          =      -0.4688812039146328 [Eh]
	 Opposite-Spin Energy      =      -1.5687350979803036 [Eh]
	 Correlation Energy        =      -2.0376163018949365 [Eh]
	 Total Energy              =    -463.0296295763937451 [Eh]

	 ================> DF-SCS-MP2 Energies <==================
	-----------------------------------------------------------
	 SCS Same-Spin Scale       =       0.3333333333333333 [-]
	 SCS Opposite-Spin Scale   =       1.2000000000000000 [-]
	 SCS Same-Spin Energy      =      -0.1562937346382109 [Eh]
	 SCS Opposite-Spin Energy  =      -1.8824821175763642 [Eh]
	 SCS Correlation Energy    =      -2.0387758522145751 [Eh]
	 SCS Total Energy          =    -463.0307891267133868 [Eh]
	-----------------------------------------------------------

  Dipole Moment: [D]
     X:    -1.7865      Y:     1.4115      Z:     3.5834     Total:     4.2455

*** Psi4 exiting successfully. Buy a developer a beer!
