                               Psi4 1.4a3.dev225

  ==> Input File <==

--------------------------------------------------------------------------
#psi4
#
memory 32 gb

molecule  {
0 1
  O       -1.1540860    -0.8257380    -1.1262130
  O        2.2598080    -0.8403330    -0.7659410
  C        0.4122950     0.2355920     0.3463500
  C        0.8678900     1.5298080    -0.3436410
  C       -0.9920820    -0.1169500    -0.1343550
  C        1.3451220    -0.9372140     0.0454070
  C       -2.1564290     0.4678700     0.6381050
  C        2.1205030     2.1275510     0.2909850
  C        1.0642330    -2.2268080     0.7816390
  C       -3.4959710     0.2572470    -0.0522250
  H        0.3847180     0.3911920     1.4358330
  H        1.0510700     1.2964920    -1.3965080
  H        0.0539330     2.2643490    -0.3080990
  H       -1.9574920     1.5325250     0.8155200
  H       -2.1465810     0.0009680     1.6335740
  H        2.9579070     1.4317780     0.2172300
  H        2.4041530     3.0539960    -0.2168530
  H        1.9503170     2.3628610     1.3467280
  H       -3.7187020    -0.8027744    -0.1859606
  H       -3.5045250     0.7387230    -1.0324830
  H       -4.3076550     0.6763420     0.5479980
  H        0.9449730    -2.0486830     1.8550460
  H        1.8828740    -2.9264540     0.6079930
  H        0.1338470    -2.6618440     0.4039710
units angstrom
no_reorient  #important for SAPT in psi4, default
symmetry c1  #important for SAPT in psi4, default
}

set PROPERTIES_ORIGIN ["COM"]
properties('MP2/aug-cc-pvtz', properties = ['dipole'])
--------------------------------------------------------------------------

    Molecular point group: c1
  Charge       = 0
  Multiplicity = 1
  Basis Set: AUG-CC-PVTZ
    Blend: AUG-CC-PVTZ
  Basis Set: (AUG-CC-PVTZ AUX)
    Blend: AUG-CC-PVTZ-JKFIT

    Orbital Energies [Eh]
    ---------------------

    Doubly Occupied:

       1A    -20.558061     2A    -20.548746     3A    -11.345779
       4A    -11.338294     5A    -11.258528     6A    -11.253146
       7A    -11.237513     8A    -11.235613     9A    -11.226042
      10A    -11.218009    11A     -1.392197    12A     -1.378526
      13A     -1.107599    14A     -1.060603    15A     -1.022468
      16A     -0.969601    17A     -0.895118    18A     -0.837601
      19A     -0.768728    20A     -0.723317    21A     -0.682791
      22A     -0.673263    23A     -0.644660    24A     -0.626336
      25A     -0.622758    26A     -0.599136    27A     -0.591840
      28A     -0.567638    29A     -0.556549    30A     -0.537752
      31A     -0.534773    32A     -0.522388    33A     -0.510521
      34A     -0.506882    35A     -0.492330    36A     -0.484258
      37A     -0.482860    38A     -0.427124    39A     -0.407424

  @DF-RHF Final Energy:  -460.99205598251666

   => Energetics <=

    Nuclear Repulsion Energy =            551.0237119553142975
    One-Electron Energy =               -1720.3379963263146237
    Two-Electron Energy =                 708.3222283884834951
    Total Energy =                       -460.9920559825167174
  Basis Set: (AUG-CC-PVTZ AUX)
    Blend: AUG-CC-PVTZ-RI
    Molecular point group: c1

    Geometry (in Angstrom), charge = 0, multiplicity = 1:

       Center              X                  Y                   Z               Mass
    ------------   -----------------  -----------------  -----------------  -----------------
         O           -1.180625215132    -0.788774474698    -1.086600709730    15.994914619570
         O            2.233268784868    -0.803369474698    -0.726328709730    15.994914619570
         C            0.385755784868     0.272555525302     0.385962290270    12.000000000000
         C            0.841350784868     1.566771525302    -0.304028709730    12.000000000000
         C           -1.018621215132    -0.079986474698    -0.094742709730    12.000000000000
         C            1.318582784868    -0.900250474698     0.085019290270    12.000000000000
         C           -2.182968215132     0.504833525302     0.677717290270    12.000000000000
         C            2.093963784868     2.164514525302     0.330597290270    12.000000000000
         C            1.037693784868    -2.189844474698     0.821251290270    12.000000000000
         C           -3.522510215132     0.294210525302    -0.012612709730    12.000000000000
         H            0.358178784868     0.428155525302     1.475445290270     1.007825032230
         H            1.024530784868     1.333455525302    -1.356895709730     1.007825032230
         H            0.027393784868     2.301312525302    -0.268486709730     1.007825032230
         H           -1.984031215132     1.569488525302     0.855132290270     1.007825032230
         H           -2.173120215132     0.037931525302     1.673186290270     1.007825032230
         H            2.931367784868     1.468741525302     0.256842290270     1.007825032230
         H            2.377613784868     3.090959525302    -0.177240709730     1.007825032230
         H            1.923777784868     2.399824525302     1.386340290270     1.007825032230
         H           -3.745241215132    -0.765810874698    -0.146348309730     1.007825032230
         H           -3.531064215132     0.775686525302    -0.992870709730     1.007825032230
         H           -4.334194215132     0.713305525302     0.587610290270     1.007825032230
         H            0.918433784868    -2.011719474698     1.894658290270     1.007825032230
         H            1.856334784868    -2.889490474698     0.647605290270     1.007825032230
         H            0.107307784868    -2.624880474698     0.443583290270     1.007825032230

  Basis Set: AUG-CC-PVTZ
    Blend: AUG-CC-PVTZ
  Basis Set: (AUG-CC-PVTZ AUX)
    Blend: AUG-CC-PVTZ-JKFIT
	 Reference Energy          =    -460.9920559825166606 [Eh]
	 Singles Energy            =      -0.0000000000000000 [Eh]
	 Same-Spin Energy          =      -0.4688251224260549 [Eh]
	 Opposite-Spin Energy      =      -1.5686789072984144 [Eh]
	 Correlation Energy        =      -2.0375040297244693 [Eh]
	 Total Energy              =    -463.0295600122411201 [Eh]

	 ================> DF-SCS-MP2 Energies <==================
	-----------------------------------------------------------
	 SCS Same-Spin Scale       =       0.3333333333333333 [-]
	 SCS Opposite-Spin Scale   =       1.2000000000000000 [-]
	 SCS Same-Spin Energy      =      -0.1562750408086850 [Eh]
	 SCS Opposite-Spin Energy  =      -1.8824146887580973 [Eh]
	 SCS Correlation Energy    =      -2.0386897295667823 [Eh]
	 SCS Total Energy          =    -463.0307457120834442 [Eh]
	-----------------------------------------------------------

  Dipole Moment: [D]
     X:    -1.7842      Y:     1.4081      Z:     3.5981     Total:     4.2559

*** Psi4 exiting successfully. Buy a developer a beer!
