                               Psi4 1.4a3.dev225

  ==> Input File <==

--------------------------------------------------------------------------
#psi4
#
memory 32 gb

molecule  {
0 1
  O       -1.1540860    -0.8257380    -1.1262130
  O        2.2598080    -0.8403330    -0.7659410
  C        0.4122950     0.2355920     0.3463500
  C        0.8678900     1.5298080    -0.3436410
  C       -1.0104921    -0.1215715    -0.1406566
  C        1.3451220    -0.9372140     0.0454070
  C       -2.1564290     0.4678700     0.6381050
  C        2.1205030     2.1275510     0.2909850
  C        1.0642330    -2.2268080     0.7816390
  C       -3.4959710     0.2572470    -0.0522250
  H        0.3847180     0.3911920     1.4358330
  H        1.0510700     1.2964920    -1.3965080
  H        0.0539330     2.2643490    -0.3080990
  H       -1.9574920     1.5325250     0.8155200
  H       -2.1465810     0.0009680     1.6335740
  H        2.9579070     1.4317780     0.2172300
  H        2.4041530     3.0539960    -0.2168530
  H        1.9503170     2.3628610     1.3467280
  H       -3.6866900    -0.8062480    -0.2063170
  H       -3.5045250     0.7387230    -1.0324830
  H       -4.3076550     0.6763420     0.5479980
  H        0.9449730    -2.0486830     1.8550460
  H        1.8828740    -2.9264540     0.6079930
  H        0.1338470    -2.6618440     0.4039710
units angstrom
no_reorient  #important for SAPT in psi4, default
symmetry c1  #important for SAPT in psi4, default
}

set PROPERTIES_ORIGIN ["COM"]
properties('MP2/aug-cc-pvtz', properties = ['dipole'])
--------------------------------------------------------------------------

    Molecular point group: c1
  Charge       = 0
  Multiplicity = 1
  Basis Set: AUG-CC-PVTZ
    Blend: AUG-CC-PVTZ
  Basis Set: (AUG-CC-PVTZ AUX)
    Blend: AUG-CC-PVTZ-JKFIT

    Orbital Energies [Eh]
    ---------------------

    Doubly Occupied:

       1A    -20.559341     2A    -20.547963     3A    -11.345411
       4A    -11.337308     5A    -11.257717     6A    -11.252893
       7A    -11.236226     8A    -11.235177     9A    -11.226407
      10A    -11.217186    11A     -1.398551    12A     -1.378592
      13A     -1.105012    14A     -1.062493    15A     -1.021576
      16A     -0.967221    17A     -0.895676    18A     -0.836261
      19A     -0.766689    20A     -0.723293    21A     -0.683902
      22A     -0.672770    23A     -0.645172    24A     -0.626466
      25A     -0.625474    26A     -0.598416    27A     -0.591195
      28A     -0.567623    29A     -0.556113    30A     -0.538206
      31A     -0.535556    32A     -0.524036    33A     -0.510480
      34A     -0.506803    35A     -0.492851    36A     -0.484697
      37A     -0.482952    38A     -0.425629    39A     -0.405911

  @DF-RHF Final Energy:  -460.99292865218393

   => Energetics <=

    Nuclear Repulsion Energy =            551.0313871084063067
    One-Electron Energy =               -1720.3581379757761169
    Two-Electron Energy =                 708.3338222151858190
    Total Energy =                       -460.9929286521839913
  Basis Set: (AUG-CC-PVTZ AUX)
    Blend: AUG-CC-PVTZ-RI
    Molecular point group: c1

    Geometry (in Angstrom), charge = 0, multiplicity = 1:

       Center              X                  Y                   Z               Mass
    ------------   -----------------  -----------------  -----------------  -----------------
         O           -1.179297561869    -0.788359562394    -1.085924176942    15.994914619570
         O            2.234596438131    -0.802954562394    -0.725652176942    15.994914619570
         C            0.387083438131     0.272970437606     0.386638823058    12.000000000000
         C            0.842678438131     1.567186437606    -0.303352176942    12.000000000000
         C           -1.035703661869    -0.084193062394    -0.100367776942    12.000000000000
         C            1.319910438131    -0.899835562394     0.085695823058    12.000000000000
         C           -2.181640561869     0.505248437606     0.678393823058    12.000000000000
         C            2.095291438131     2.164929437606     0.331273823058    12.000000000000
         C            1.039021438131    -2.189429562394     0.821927823058    12.000000000000
         C           -3.521182561869     0.294625437606    -0.011936176942    12.000000000000
         H            0.359506438131     0.428570437606     1.476121823058     1.007825032230
         H            1.025858438131     1.333870437606    -1.356219176942     1.007825032230
         H            0.028721438131     2.301727437606    -0.267810176942     1.007825032230
         H           -1.982703561869     1.569903437606     0.855808823058     1.007825032230
         H           -2.171792561869     0.038346437606     1.673862823058     1.007825032230
         H            2.932695438131     1.469156437606     0.257518823058     1.007825032230
         H            2.378941438131     3.091374437606    -0.176564176942     1.007825032230
         H            1.925105438131     2.400239437606     1.387016823058     1.007825032230
         H           -3.711901561869    -0.768869562394    -0.166028176942     1.007825032230
         H           -3.529736561869     0.776101437606    -0.992194176942     1.007825032230
         H           -4.332866561869     0.713720437606     0.588286823058     1.007825032230
         H            0.919761438131    -2.011304562394     1.895334823058     1.007825032230
         H            1.857662438131    -2.889075562394     0.648281823058     1.007825032230
         H            0.108635438131    -2.624465562394     0.444259823058     1.007825032230

  Basis Set: AUG-CC-PVTZ
    Blend: AUG-CC-PVTZ
  Basis Set: (AUG-CC-PVTZ AUX)
    Blend: AUG-CC-PVTZ-JKFIT
	 Reference Energy          =    -460.9929286521839344 [Eh]
	 Singles Energy            =      -0.0000000000000000 [Eh]
	 Same-Spin Energy          =      -0.4685401093937952 [Eh]
	 Opposite-Spin Energy      =      -1.5680645439572962 [Eh]
	 Correlation Energy        =      -2.0366046533510915 [Eh]
	 Total Energy              =    -463.0295333055350397 [Eh]

	 ================> DF-SCS-MP2 Energies <==================
	-----------------------------------------------------------
	 SCS Same-Spin Scale       =       0.3333333333333333 [-]
	 SCS Opposite-Spin Scale   =       1.2000000000000000 [-]
	 SCS Same-Spin Energy      =      -0.1561800364645984 [Eh]
	 SCS Opposite-Spin Energy  =      -1.8816774527487554 [Eh]
	 SCS Correlation Energy    =      -2.0378574892133536 [Eh]
	 SCS Total Energy          =    -463.0307861413973001 [Eh]
	-----------------------------------------------------------

  Dipole Moment: [D]
     X:    -1.8849      Y:     1.3903      Z:     3.5724     Total:     4.2718

*** Psi4 exiting successfully. Buy a developer a beer!
