                               Psi4 1.4a3.dev225

  ==> Input File <==

--------------------------------------------------------------------------
#psi4
#
memory 32 gb

molecule  {
0 1
  O       -1.1540860    -0.8257380    -1.1262130
  O        2.2862195    -0.9634070    -0.7407046
  C        0.4122950     0.2355920     0.3463500
  C        0.8678900     1.5298080    -0.3436410
  C       -0.9920820    -0.1169500    -0.1343550
  C        1.3451220    -0.9372140     0.0454070
  C       -2.1564290     0.4678700     0.6381050
  C        2.1205030     2.1275510     0.2909850
  C        1.0642330    -2.2268080     0.7816390
  C       -3.4959710     0.2572470    -0.0522250
  H        0.3847180     0.3911920     1.4358330
  H        1.0510700     1.2964920    -1.3965080
  H        0.0539330     2.2643490    -0.3080990
  H       -1.9574920     1.5325250     0.8155200
  H       -2.1465810     0.0009680     1.6335740
  H        2.9579070     1.4317780     0.2172300
  H        2.4041530     3.0539960    -0.2168530
  H        1.9503170     2.3628610     1.3467280
  H       -3.6866900    -0.8062480    -0.2063170
  H       -3.5045250     0.7387230    -1.0324830
  H       -4.3076550     0.6763420     0.5479980
  H        0.9449730    -2.0486830     1.8550460
  H        1.8828740    -2.9264540     0.6079930
  H        0.1338470    -2.6618440     0.4039710
units angstrom
no_reorient  #important for SAPT in psi4, default
symmetry c1  #important for SAPT in psi4, default
}

set PROPERTIES_ORIGIN ["COM"]
properties('MP2/aug-cc-pvtz', properties = ['dipole'])
--------------------------------------------------------------------------

    Molecular point group: c1
  Charge       = 0
  Multiplicity = 1
  Basis Set: AUG-CC-PVTZ
    Blend: AUG-CC-PVTZ
  Basis Set: (AUG-CC-PVTZ AUX)
    Blend: AUG-CC-PVTZ-JKFIT

    Orbital Energies [Eh]
    ---------------------

    Doubly Occupied:

       1A    -20.559969     2A    -20.548077     3A    -11.348285
       4A    -11.337447     5A    -11.264007     6A    -11.254588
       7A    -11.241125     8A    -11.228751     9A    -11.227086
      10A    -11.221024    11A     -1.393586    12A     -1.378361
      13A     -1.111506    14A     -1.062559    15A     -1.019257
      16A     -0.969686    17A     -0.896511    18A     -0.840256
      19A     -0.770366    20A     -0.724936    21A     -0.684642
      22A     -0.672683    23A     -0.645168    24A     -0.625040
      25A     -0.624563    26A     -0.599577    27A     -0.590322
      28A     -0.569820    29A     -0.556511    30A     -0.538044
      31A     -0.535390    32A     -0.523790    33A     -0.512394
      34A     -0.507838    35A     -0.493599    36A     -0.486078
      37A     -0.484540    38A     -0.426611    39A     -0.407653

  @DF-RHF Final Energy:  -460.98938992471346

   => Energetics <=

    Nuclear Repulsion Energy =            550.0721993331881094
    One-Electron Energy =               -1718.3598907179696198
    Two-Electron Energy =                 707.2983014600680463
    Total Energy =                       -460.9893899247134641
  Basis Set: (AUG-CC-PVTZ AUX)
    Blend: AUG-CC-PVTZ-RI
    Molecular point group: c1

    Geometry (in Angstrom), charge = 0, multiplicity = 1:

       Center              X                  Y                   Z               Mass
    ------------   -----------------  -----------------  -----------------  -----------------
         O           -1.183825174086    -0.774896448578    -1.089296980288    15.994914619570
         O            2.256480325914    -0.912565448578    -0.703788580288    15.994914619570
         C            0.382555825914     0.286433551422     0.383266019712    12.000000000000
         C            0.838150825914     1.580649551422    -0.306724980288    12.000000000000
         C           -1.021821174086    -0.066108448578    -0.097438980288    12.000000000000
         C            1.315382825914    -0.886372448578     0.082323019712    12.000000000000
         C           -2.186168174086     0.518711551422     0.675021019712    12.000000000000
         C            2.090763825914     2.178392551422     0.327901019712    12.000000000000
         C            1.034493825914    -2.175966448578     0.818555019712    12.000000000000
         C           -3.525710174086     0.308088551422    -0.015308980288    12.000000000000
         H            0.354978825914     0.442033551422     1.472749019712     1.007825032230
         H            1.021330825914     1.347333551422    -1.359591980288     1.007825032230
         H            0.024193825914     2.315190551422    -0.271182980288     1.007825032230
         H           -1.987231174086     1.583366551422     0.852436019712     1.007825032230
         H           -2.176320174086     0.051809551422     1.670490019712     1.007825032230
         H            2.928167825914     1.482619551422     0.254146019712     1.007825032230
         H            2.374413825914     3.104837551422    -0.179936980288     1.007825032230
         H            1.920577825914     2.413702551422     1.383644019712     1.007825032230
         H           -3.716429174086    -0.755406448578    -0.169400980288     1.007825032230
         H           -3.534264174086     0.789564551422    -0.995566980288     1.007825032230
         H           -4.337394174086     0.727183551422     0.584914019712     1.007825032230
         H            0.915233825914    -1.997841448578     1.891962019712     1.007825032230
         H            1.853134825914    -2.875612448578     0.644909019712     1.007825032230
         H            0.104107825914    -2.611002448578     0.440887019712     1.007825032230

  Basis Set: AUG-CC-PVTZ
    Blend: AUG-CC-PVTZ
  Basis Set: (AUG-CC-PVTZ AUX)
    Blend: AUG-CC-PVTZ-JKFIT
	 Reference Energy          =    -460.9893899247134641 [Eh]
	 Singles Energy            =      -0.0000000000000000 [Eh]
	 Same-Spin Energy          =      -0.4686889575628467 [Eh]
	 Opposite-Spin Energy      =      -1.5687150528687712 [Eh]
	 Correlation Energy        =      -2.0374040104316178 [Eh]
	 Total Energy              =    -463.0267939351450650 [Eh]

	 ================> DF-SCS-MP2 Energies <==================
	-----------------------------------------------------------
	 SCS Same-Spin Scale       =       0.3333333333333333 [-]
	 SCS Opposite-Spin Scale   =       1.2000000000000000 [-]
	 SCS Same-Spin Energy      =      -0.1562296525209489 [Eh]
	 SCS Opposite-Spin Energy  =      -1.8824580634425254 [Eh]
	 SCS Correlation Energy    =      -2.0386877159634742 [Eh]
	 SCS Total Energy          =    -463.0280776406769405 [Eh]
	-----------------------------------------------------------

  Dipole Moment: [D]
     X:    -1.8774      Y:     1.7617      Z:     3.5219     Total:     4.3626

*** Psi4 exiting successfully. Buy a developer a beer!
