                               Psi4 1.4a3.dev225

  ==> Input File <==

--------------------------------------------------------------------------
#psi4
#
memory 32 gb

molecule  {
0 1
  O       -1.1540860    -0.8257380    -1.1262130
  O        2.2598080    -0.8403330    -0.7659410
  C        0.4122950     0.2355920     0.3463500
  C        0.8678900     1.5298080    -0.3436410
  C       -0.9920820    -0.1169500    -0.1343550
  C        1.3451220    -0.9372140     0.0454070
  C       -2.1564290     0.4678700     0.6381050
  C        2.1205030     2.1275510     0.2909850
  C        1.0642330    -2.2268080     0.7816390
  C       -3.4959710     0.2572470    -0.0522250
  H        0.3847180     0.3911920     1.4358330
  H        1.0510700     1.2964920    -1.3965080
  H        0.1281336     2.1973880    -0.3113390
  H       -1.9574920     1.5325250     0.8155200
  H       -2.1465810     0.0009680     1.6335740
  H        2.9579070     1.4317780     0.2172300
  H        2.4041530     3.0539960    -0.2168530
  H        1.9503170     2.3628610     1.3467280
  H       -3.6866900    -0.8062480    -0.2063170
  H       -3.5045250     0.7387230    -1.0324830
  H       -4.3076550     0.6763420     0.5479980
  H        0.9449730    -2.0486830     1.8550460
  H        1.8828740    -2.9264540     0.6079930
  H        0.1338470    -2.6618440     0.4039710
units angstrom
no_reorient  #important for SAPT in psi4, default
symmetry c1  #important for SAPT in psi4, default
}

set PROPERTIES_ORIGIN ["COM"]
properties('MP2/aug-cc-pvtz', properties = ['dipole'])
--------------------------------------------------------------------------

    Molecular point group: c1
  Charge       = 0
  Multiplicity = 1
  Basis Set: AUG-CC-PVTZ
    Blend: AUG-CC-PVTZ
  Basis Set: (AUG-CC-PVTZ AUX)
    Blend: AUG-CC-PVTZ-JKFIT

    Orbital Energies [Eh]
    ---------------------

    Doubly Occupied:

       1A    -20.558222     2A    -20.548097     3A    -11.345813
       4A    -11.337547     5A    -11.257657     6A    -11.253329
       7A    -11.235170     8A    -11.226205     9A    -11.224687
      10A    -11.217020    11A     -1.392259    12A     -1.377945
      13A     -1.109704    14A     -1.061562    15A     -1.023697
      16A     -0.969676    17A     -0.894836    18A     -0.847285
      19A     -0.768459    20A     -0.723441    21A     -0.683231
      22A     -0.675900    23A     -0.645872    24A     -0.626673
      25A     -0.623280    26A     -0.601881    27A     -0.592400
      28A     -0.567981    29A     -0.556144    30A     -0.537441
      31A     -0.534929    32A     -0.522873    33A     -0.514214
      34A     -0.509082    35A     -0.492198    36A     -0.485125
      37A     -0.482963    38A     -0.426903    39A     -0.407437

  @DF-RHF Final Energy:  -460.98642031530102

   => Energetics <=

    Nuclear Repulsion Energy =            551.5908340634462093
    One-Electron Energy =               -1721.4362336066533317
    Two-Electron Energy =                 708.8589792279060475
    Total Energy =                       -460.9864203153010749
  Basis Set: (AUG-CC-PVTZ AUX)
    Blend: AUG-CC-PVTZ-RI
    Molecular point group: c1

    Geometry (in Angstrom), charge = 0, multiplicity = 1:

       Center              X                  Y                   Z               Mass
    ------------   -----------------  -----------------  -----------------  -----------------
         O           -1.181378516922    -0.788274924643    -1.086433354723    15.994914619570
         O            2.232515483078    -0.802869924643    -0.726161354723    15.994914619570
         C            0.385002483078     0.273055075357     0.386129645277    12.000000000000
         C            0.840597483078     1.567271075357    -0.303861354723    12.000000000000
         C           -1.019374516922    -0.079486924643    -0.094575354723    12.000000000000
         C            1.317829483078    -0.899750924643     0.085186645277    12.000000000000
         C           -2.183721516922     0.505333075357     0.677884645277    12.000000000000
         C            2.093210483078     2.165014075357     0.330764645277    12.000000000000
         C            1.036940483078    -2.189344924643     0.821418645277    12.000000000000
         C           -3.523263516922     0.294710075357    -0.012445354723    12.000000000000
         H            0.357425483078     0.428655075357     1.475612645277     1.007825032230
         H            1.023777483078     1.333955075357    -1.356728354723     1.007825032230
         H            0.100841083078     2.234851075357    -0.271559354723     1.007825032230
         H           -1.984784516922     1.569988075357     0.855299645277     1.007825032230
         H           -2.173873516922     0.038431075357     1.673353645277     1.007825032230
         H            2.930614483078     1.469241075357     0.257009645277     1.007825032230
         H            2.376860483078     3.091459075357    -0.177073354723     1.007825032230
         H            1.923024483078     2.400324075357     1.386507645277     1.007825032230
         H           -3.713982516922    -0.768784924643    -0.166537354723     1.007825032230
         H           -3.531817516922     0.776186075357    -0.992703354723     1.007825032230
         H           -4.334947516922     0.713805075357     0.587777645277     1.007825032230
         H            0.917680483078    -2.011219924643     1.894825645277     1.007825032230
         H            1.855581483078    -2.888990924643     0.647772645277     1.007825032230
         H            0.106554483078    -2.624380924643     0.443750645277     1.007825032230

  Basis Set: AUG-CC-PVTZ
    Blend: AUG-CC-PVTZ
  Basis Set: (AUG-CC-PVTZ AUX)
    Blend: AUG-CC-PVTZ-JKFIT
	 Reference Energy          =    -460.9864203153010180 [Eh]
	 Singles Energy            =      -0.0000000000000000 [Eh]
	 Same-Spin Energy          =      -0.4688064116844202 [Eh]
	 Opposite-Spin Energy      =      -1.5681302956513359 [Eh]
	 Correlation Energy        =      -2.0369367073357560 [Eh]
	 Total Energy              =    -463.0233570226367874 [Eh]

	 ================> DF-SCS-MP2 Energies <==================
	-----------------------------------------------------------
	 SCS Same-Spin Scale       =       0.3333333333333333 [-]
	 SCS Opposite-Spin Scale   =       1.2000000000000000 [-]
	 SCS Same-Spin Energy      =      -0.1562688038948067 [Eh]
	 SCS Opposite-Spin Energy  =      -1.8817563547816030 [Eh]
	 SCS Correlation Energy    =      -2.0380251586764095 [Eh]
	 SCS Total Energy          =    -463.0244454739774369 [Eh]
	-----------------------------------------------------------

  Dipole Moment: [D]
     X:    -1.8274      Y:     1.4501      Z:     3.5817     Total:     4.2744

*** Psi4 exiting successfully. Buy a developer a beer!
