                               Psi4 1.4a3.dev225

  ==> Input File <==

--------------------------------------------------------------------------
#psi4
#
memory 32 gb

molecule  {
0 1
  O       -1.1540860    -0.8257380    -1.1262130
  O        2.2598080    -0.8403330    -0.7659410
  C        0.3988006     0.2201724     0.3634313
  C        0.8678900     1.5298080    -0.3436410
  C       -0.9920820    -0.1169500    -0.1343550
  C        1.3451220    -0.9372140     0.0454070
  C       -2.1564290     0.4678700     0.6381050
  C        2.1205030     2.1275510     0.2909850
  C        1.0642330    -2.2268080     0.7816390
  C       -3.4959710     0.2572470    -0.0522250
  H        0.3847180     0.3911920     1.4358330
  H        1.0510700     1.2964920    -1.3965080
  H        0.0539330     2.2643490    -0.3080990
  H       -1.9574920     1.5325250     0.8155200
  H       -2.1465810     0.0009680     1.6335740
  H        2.9579070     1.4317780     0.2172300
  H        2.4041530     3.0539960    -0.2168530
  H        1.9503170     2.3628610     1.3467280
  H       -3.6866900    -0.8062480    -0.2063170
  H       -3.5045250     0.7387230    -1.0324830
  H       -4.3076550     0.6763420     0.5479980
  H        0.9449730    -2.0486830     1.8550460
  H        1.8828740    -2.9264540     0.6079930
  H        0.1338470    -2.6618440     0.4039710
units angstrom
no_reorient  #important for SAPT in psi4, default
symmetry c1  #important for SAPT in psi4, default
}

set PROPERTIES_ORIGIN ["COM"]
properties('MP2/aug-cc-pvtz', properties = ['dipole'])
--------------------------------------------------------------------------

    Molecular point group: c1
  Charge       = 0
  Multiplicity = 1
  Basis Set: AUG-CC-PVTZ
    Blend: AUG-CC-PVTZ
  Basis Set: (AUG-CC-PVTZ AUX)
    Blend: AUG-CC-PVTZ-JKFIT

    Orbital Energies [Eh]
    ---------------------

    Doubly Occupied:

       1A    -20.557758     2A    -20.549512     3A    -11.345558
       4A    -11.338718     5A    -11.257865     6A    -11.252534
       7A    -11.239422     8A    -11.234901     9A    -11.225674
      10A    -11.218384    11A     -1.392235    12A     -1.378691
      13A     -1.106792    14A     -1.060097    15A     -1.022502
      16A     -0.970594    17A     -0.894386    18A     -0.836586
      19A     -0.769600    20A     -0.725073    21A     -0.684263
      22A     -0.672709    23A     -0.644148    24A     -0.625850
      25A     -0.623192    26A     -0.599030    27A     -0.590926
      28A     -0.569241    29A     -0.556470    30A     -0.537789
      31A     -0.535044    32A     -0.522828    33A     -0.509880
      34A     -0.506457    35A     -0.492898    36A     -0.484208
      37A     -0.480607    38A     -0.427152    39A     -0.408141

  @DF-RHF Final Energy:  -460.99156584697215

   => Energetics <=

    Nuclear Repulsion Energy =            551.0086280641123722
    One-Electron Energy =               -1720.3049515672707912
    Two-Electron Energy =                 708.3047576561862115
    Total Energy =                       -460.9915658469722075
  Basis Set: (AUG-CC-PVTZ AUX)
    Blend: AUG-CC-PVTZ-RI
    Molecular point group: c1

    Geometry (in Angstrom), charge = 0, multiplicity = 1:

       Center              X                  Y                   Z               Mass
    ------------   -----------------  -----------------  -----------------  -----------------
         O           -1.179712682612    -0.787447685085    -1.087898814696    15.994914619570
         O            2.234181317388    -0.802042685085    -0.727626814696    15.994914619570
         C            0.373173917388     0.258462714915     0.401745485304    12.000000000000
         C            0.842263317388     1.568098314915    -0.305326814696    12.000000000000
         C           -1.017708682612    -0.078659685085    -0.096040814696    12.000000000000
         C            1.319495317388    -0.898923685085     0.083721185304    12.000000000000
         C           -2.182055682612     0.506160314915     0.676419185304    12.000000000000
         C            2.094876317388     2.165841314915     0.329299185304    12.000000000000
         C            1.038606317388    -2.188517685085     0.819953185304    12.000000000000
         C           -3.521597682612     0.295537314915    -0.013910814696    12.000000000000
         H            0.359091317388     0.429482314915     1.474147185304     1.007825032230
         H            1.025443317388     1.334782314915    -1.358193814696     1.007825032230
         H            0.028306317388     2.302639314915    -0.269784814696     1.007825032230
         H           -1.983118682612     1.570815314915     0.853834185304     1.007825032230
         H           -2.172207682612     0.039258314915     1.671888185304     1.007825032230
         H            2.932280317388     1.470068314915     0.255544185304     1.007825032230
         H            2.378526317388     3.092286314915    -0.178538814696     1.007825032230
         H            1.924690317388     2.401151314915     1.385042185304     1.007825032230
         H           -3.712316682612    -0.767957685085    -0.168002814696     1.007825032230
         H           -3.530151682612     0.777013314915    -0.994168814696     1.007825032230
         H           -4.333281682612     0.714632314915     0.586312185304     1.007825032230
         H            0.919346317388    -2.010392685085     1.893360185304     1.007825032230
         H            1.857247317388    -2.888163685085     0.646307185304     1.007825032230
         H            0.108220317388    -2.623553685085     0.442285185304     1.007825032230

  Basis Set: AUG-CC-PVTZ
    Blend: AUG-CC-PVTZ
  Basis Set: (AUG-CC-PVTZ AUX)
    Blend: AUG-CC-PVTZ-JKFIT
	 Reference Energy          =    -460.9915658469721507 [Eh]
	 Singles Energy            =      -0.0000000000000000 [Eh]
	 Same-Spin Energy          =      -0.4688284204020967 [Eh]
	 Opposite-Spin Energy      =      -1.5686869151759106 [Eh]
	 Correlation Energy        =      -2.0375153355780071 [Eh]
	 Total Energy              =    -463.0290811825501578 [Eh]

	 ================> DF-SCS-MP2 Energies <==================
	-----------------------------------------------------------
	 SCS Same-Spin Scale       =       0.3333333333333333 [-]
	 SCS Opposite-Spin Scale   =       1.2000000000000000 [-]
	 SCS Same-Spin Energy      =      -0.1562761401340322 [Eh]
	 SCS Opposite-Spin Energy  =      -1.8824242982110926 [Eh]
	 SCS Correlation Energy    =      -2.0387004383451246 [Eh]
	 SCS Total Energy          =    -463.0302662853172819 [Eh]
	-----------------------------------------------------------

  Dipole Moment: [D]
     X:    -1.7316      Y:     1.4321      Z:     3.6007     Total:     4.2443

*** Psi4 exiting successfully. Buy a developer a beer!
