                               Psi4 1.4a3.dev225

  ==> Input File <==

--------------------------------------------------------------------------
#psi4
#
memory 32 gb

molecule  {
0 1
  O       -1.1540860    -0.8257380    -1.1262130
  O        2.2598080    -0.8403330    -0.7659410
  C        0.4122950     0.2355920     0.3463500
  C        0.8678900     1.5298080    -0.3436410
  C       -0.9920820    -0.1169500    -0.1343550
  C        1.3451220    -0.9372140     0.0454070
  C       -2.1564290     0.4678700     0.6381050
  C        2.1205030     2.1275510     0.2909850
  C        1.0642330    -2.2268080     0.7816390
  C       -3.4959710     0.2572470    -0.0522250
  H        0.3847180     0.3911920     1.4358330
  H        1.0648838     1.2844072    -1.3912536
  H        0.0539330     2.2643490    -0.3080990
  H       -1.9574920     1.5325250     0.8155200
  H       -2.1465810     0.0009680     1.6335740
  H        2.9579070     1.4317780     0.2172300
  H        2.4041530     3.0539960    -0.2168530
  H        1.9503170     2.3628610     1.3467280
  H       -3.6866900    -0.8062480    -0.2063170
  H       -3.5045250     0.7387230    -1.0324830
  H       -4.3076550     0.6763420     0.5479980
  H        0.9449730    -2.0486830     1.8550460
  H        1.8828740    -2.9264540     0.6079930
  H        0.1338470    -2.6618440     0.4039710
units angstrom
no_reorient  #important for SAPT in psi4, default
symmetry c1  #important for SAPT in psi4, default
}

set PROPERTIES_ORIGIN ["COM"]
properties('MP2/aug-cc-pvtz', properties = ['dipole'])
--------------------------------------------------------------------------

    Molecular point group: c1
  Charge       = 0
  Multiplicity = 1
  Basis Set: AUG-CC-PVTZ
    Blend: AUG-CC-PVTZ
  Basis Set: (AUG-CC-PVTZ AUX)
    Blend: AUG-CC-PVTZ-JKFIT

    Orbital Energies [Eh]
    ---------------------

    Doubly Occupied:

       1A    -20.558174     2A    -20.548887     3A    -11.345870
       4A    -11.338416     5A    -11.258450     6A    -11.252887
       7A    -11.237426     8A    -11.235695     9A    -11.225922
      10A    -11.217892    11A     -1.392356    12A     -1.378697
      13A     -1.107667    14A     -1.060729    15A     -1.022550
      16A     -0.969626    17A     -0.894776    18A     -0.837218
      19A     -0.768695    20A     -0.723296    21A     -0.683172
      22A     -0.673772    23A     -0.644242    24A     -0.626020
      25A     -0.623219    26A     -0.599481    27A     -0.591836
      28A     -0.568187    29A     -0.556501    30A     -0.537652
      31A     -0.534924    32A     -0.522673    33A     -0.509678
      34A     -0.507180    35A     -0.492152    36A     -0.484289
      37A     -0.482813    38A     -0.427242    39A     -0.407531

  @DF-RHF Final Energy:  -460.99207882366937

   => Energetics <=

    Nuclear Repulsion Energy =            551.1151951368791515
    One-Electron Energy =               -1720.5189604050738126
    Two-Electron Energy =                 708.4116864445251167
    Total Energy =                       -460.9920788236694307
  Basis Set: (AUG-CC-PVTZ AUX)
    Blend: AUG-CC-PVTZ-RI
    Molecular point group: c1

    Geometry (in Angstrom), charge = 0, multiplicity = 1:

       Center              X                  Y                   Z               Mass
    ------------   -----------------  -----------------  -----------------  -----------------
         O           -1.180950229840    -0.788664128369    -1.086493600369    15.994914619570
         O            2.232943770160    -0.803259128369    -0.726221600369    15.994914619570
         C            0.385430770160     0.272665871631     0.386069399631    12.000000000000
         C            0.841025770160     1.566881871631    -0.303921600369    12.000000000000
         C           -1.018946229840    -0.079876128369    -0.094635600369    12.000000000000
         C            1.318257770160    -0.900140128369     0.085126399631    12.000000000000
         C           -2.183293229840     0.504943871631     0.677824399631    12.000000000000
         C            2.093638770160     2.164624871631     0.330704399631    12.000000000000
         C            1.037368770160    -2.189734128369     0.821358399631    12.000000000000
         C           -3.522835229840     0.294320871631    -0.012505600369    12.000000000000
         H            0.357853770160     0.428265871631     1.475552399631     1.007825032230
         H            1.038019570160     1.321481071631    -1.351534200369     1.007825032230
         H            0.027068770160     2.301422871631    -0.268379600369     1.007825032230
         H           -1.984356229840     1.569598871631     0.855239399631     1.007825032230
         H           -2.173445229840     0.038041871631     1.673293399631     1.007825032230
         H            2.931042770160     1.468851871631     0.256949399631     1.007825032230
         H            2.377288770160     3.091069871631    -0.177133600369     1.007825032230
         H            1.923452770160     2.399934871631     1.386447399631     1.007825032230
         H           -3.713554229840    -0.769174128369    -0.166597600369     1.007825032230
         H           -3.531389229840     0.775796871631    -0.992763600369     1.007825032230
         H           -4.334519229840     0.713415871631     0.587717399631     1.007825032230
         H            0.918108770160    -2.011609128369     1.894765399631     1.007825032230
         H            1.856009770160    -2.889380128369     0.647712399631     1.007825032230
         H            0.106982770160    -2.624770128369     0.443690399631     1.007825032230

  Basis Set: AUG-CC-PVTZ
    Blend: AUG-CC-PVTZ
  Basis Set: (AUG-CC-PVTZ AUX)
    Blend: AUG-CC-PVTZ-JKFIT
	 Reference Energy          =    -460.9920788236693738 [Eh]
	 Singles Energy            =      -0.0000000000000000 [Eh]
	 Same-Spin Energy          =      -0.4688709400889241 [Eh]
	 Opposite-Spin Energy      =      -1.5687315866125195 [Eh]
	 Correlation Energy        =      -2.0376025267014435 [Eh]
	 Total Energy              =    -463.0296813503708222 [Eh]

	 ================> DF-SCS-MP2 Energies <==================
	-----------------------------------------------------------
	 SCS Same-Spin Scale       =       0.3333333333333333 [-]
	 SCS Opposite-Spin Scale   =       1.2000000000000000 [-]
	 SCS Same-Spin Energy      =      -0.1562903133629747 [Eh]
	 SCS Opposite-Spin Energy  =      -1.8824779039350235 [Eh]
	 SCS Correlation Energy    =      -2.0387682172979980 [Eh]
	 SCS Total Energy          =    -463.0308470409673873 [Eh]
	-----------------------------------------------------------

  Dipole Moment: [D]
     X:    -1.7699      Y:     1.4036      Z:     3.5924     Total:     4.2435

*** Psi4 exiting successfully. Buy a developer a beer!
