                               Psi4 1.4a3.dev225

  ==> Input File <==

--------------------------------------------------------------------------
#psi4
#
memory 32 gb

molecule  {
0 1
  O       -1.1540860    -0.8257380    -1.1262130
  O        2.2785493    -0.9223476    -0.7500893
  C        0.4122950     0.2355920     0.3463500
  C        0.8678900     1.5298080    -0.3436410
  C       -0.9920820    -0.1169500    -0.1343550
  C        1.3451220    -0.9372140     0.0454070
  C       -2.1564290     0.4678700     0.6381050
  C        2.1205030     2.1275510     0.2909850
  C        1.0642330    -2.2268080     0.7816390
  C       -3.4959710     0.2572470    -0.0522250
  H        0.3847180     0.3911920     1.4358330
  H        1.0510700     1.2964920    -1.3965080
  H        0.0539330     2.2643490    -0.3080990
  H       -1.9574920     1.5325250     0.8155200
  H       -2.1465810     0.0009680     1.6335740
  H        2.9579070     1.4317780     0.2172300
  H        2.4041530     3.0539960    -0.2168530
  H        1.9503170     2.3628610     1.3467280
  H       -3.6866900    -0.8062480    -0.2063170
  H       -3.5045250     0.7387230    -1.0324830
  H       -4.3076550     0.6763420     0.5479980
  H        0.9449730    -2.0486830     1.8550460
  H        1.8828740    -2.9264540     0.6079930
  H        0.1338470    -2.6618440     0.4039710
units angstrom
no_reorient  #important for SAPT in psi4, default
symmetry c1  #important for SAPT in psi4, default
}

set PROPERTIES_ORIGIN ["COM"]
properties('MP2/aug-cc-pvtz', properties = ['dipole'])
--------------------------------------------------------------------------

    Molecular point group: c1
  Charge       = 0
  Multiplicity = 1
  Basis Set: AUG-CC-PVTZ
    Blend: AUG-CC-PVTZ
  Basis Set: (AUG-CC-PVTZ AUX)
    Blend: AUG-CC-PVTZ-JKFIT

    Orbital Energies [Eh]
    ---------------------

    Doubly Occupied:

       1A    -20.559389     2A    -20.548374     3A    -11.347506
       4A    -11.337734     5A    -11.262200     6A    -11.254034
       7A    -11.239958     8A    -11.231063     9A    -11.226711
      10A    -11.220028    11A     -1.393155    12A     -1.378359
      13A     -1.110247    14A     -1.061960    15A     -1.020300
      16A     -0.969769    17A     -0.895945    18A     -0.839379
      19A     -0.769794    20A     -0.724418    21A     -0.684134
      22A     -0.672860    23A     -0.644874    24A     -0.625272
      25A     -0.624205    26A     -0.599344    27A     -0.590803
      28A     -0.569293    29A     -0.556516    30A     -0.537909
      31A     -0.535277    32A     -0.523425    33A     -0.511626
      34A     -0.507559    35A     -0.493068    36A     -0.485540
      37A     -0.484236    38A     -0.426805    39A     -0.407931

  @DF-RHF Final Energy:  -460.99101320180642

   => Energetics <=

    Nuclear Repulsion Energy =            550.3828774035021070
    One-Electron Energy =               -1719.0057837127505991
    Two-Electron Energy =                 707.6318931074420107
    Total Energy =                       -460.9910132018064814
  Basis Set: (AUG-CC-PVTZ AUX)
    Blend: AUG-CC-PVTZ-RI
    Molecular point group: c1

    Geometry (in Angstrom), charge = 0, multiplicity = 1:

       Center              X                  Y                   Z               Mass
    ------------   -----------------  -----------------  -----------------  -----------------
         O           -1.182961805123    -0.779518154871    -1.088240624690    15.994914619570
         O            2.249673494877    -0.876127754871    -0.712116924690    15.994914619570
         C            0.383419194877     0.281811845129     0.384322375310    12.000000000000
         C            0.839014194877     1.576027845129    -0.305668624690    12.000000000000
         C           -1.020957805123    -0.070730154871    -0.096382624690    12.000000000000
         C            1.316246194877    -0.890994154871     0.083379375310    12.000000000000
         C           -2.185304805123     0.514089845129     0.676077375310    12.000000000000
         C            2.091627194877     2.173770845129     0.328957375310    12.000000000000
         C            1.035357194877    -2.180588154871     0.819611375310    12.000000000000
         C           -3.524846805123     0.303466845129    -0.014252624690    12.000000000000
         H            0.355842194877     0.437411845129     1.473805375310     1.007825032230
         H            1.022194194877     1.342711845129    -1.358535624690     1.007825032230
         H            0.025057194877     2.310568845129    -0.270126624690     1.007825032230
         H           -1.986367805123     1.578744845129     0.853492375310     1.007825032230
         H           -2.175456805123     0.047187845129     1.671546375310     1.007825032230
         H            2.929031194877     1.477997845129     0.255202375310     1.007825032230
         H            2.375277194877     3.100215845129    -0.178880624690     1.007825032230
         H            1.921441194877     2.409080845129     1.384700375310     1.007825032230
         H           -3.715565805123    -0.760028154871    -0.168344624690     1.007825032230
         H           -3.533400805123     0.784942845129    -0.994510624690     1.007825032230
         H           -4.336530805123     0.722561845129     0.585970375310     1.007825032230
         H            0.916097194877    -2.002463154871     1.893018375310     1.007825032230
         H            1.853998194877    -2.880234154871     0.645965375310     1.007825032230
         H            0.104971194877    -2.615624154871     0.441943375310     1.007825032230

  Basis Set: AUG-CC-PVTZ
    Blend: AUG-CC-PVTZ
  Basis Set: (AUG-CC-PVTZ AUX)
    Blend: AUG-CC-PVTZ-JKFIT
	 Reference Energy          =    -460.9910132018064246 [Eh]
	 Singles Energy            =      -0.0000000000000000 [Eh]
	 Same-Spin Energy          =      -0.4687138516243931 [Eh]
	 Opposite-Spin Energy      =      -1.5686525369800060 [Eh]
	 Correlation Energy        =      -2.0373663886043989 [Eh]
	 Total Energy              =    -463.0283795904108501 [Eh]

	 ================> DF-SCS-MP2 Energies <==================
	-----------------------------------------------------------
	 SCS Same-Spin Scale       =       0.3333333333333333 [-]
	 SCS Opposite-Spin Scale   =       1.2000000000000000 [-]
	 SCS Same-Spin Energy      =      -0.1562379505414643 [Eh]
	 SCS Opposite-Spin Energy  =      -1.8823830443760070 [Eh]
	 SCS Correlation Energy    =      -2.0386209949174714 [Eh]
	 SCS Total Energy          =    -463.0296341967239186 [Eh]
	-----------------------------------------------------------

  Dipole Moment: [D]
     X:    -1.8460      Y:     1.6446      Z:     3.5474     Total:     4.3239

*** Psi4 exiting successfully. Buy a developer a beer!
