                               Psi4 1.4a3.dev225

  ==> Input File <==

--------------------------------------------------------------------------
#psi4
#
memory 32 gb

molecule  {
0 1
  O       -1.1540860    -0.8257380    -1.1262130
  O        2.2598080    -0.8403330    -0.7659410
  C        0.4122950     0.2355920     0.3463500
  C        0.8678900     1.5298080    -0.3436410
  C       -1.0260662    -0.1332415    -0.1714367
  C        1.3451220    -0.9372140     0.0454070
  C       -2.1564290     0.4678700     0.6381050
  C        2.1205030     2.1275510     0.2909850
  C        1.0642330    -2.2268080     0.7816390
  C       -3.4959710     0.2572470    -0.0522250
  H        0.3847180     0.3911920     1.4358330
  H        1.0510700     1.2964920    -1.3965080
  H        0.0539330     2.2643490    -0.3080990
  H       -1.9574920     1.5325250     0.8155200
  H       -2.1465810     0.0009680     1.6335740
  H        2.9579070     1.4317780     0.2172300
  H        2.4041530     3.0539960    -0.2168530
  H        1.9503170     2.3628610     1.3467280
  H       -3.6866900    -0.8062480    -0.2063170
  H       -3.5045250     0.7387230    -1.0324830
  H       -4.3076550     0.6763420     0.5479980
  H        0.9449730    -2.0486830     1.8550460
  H        1.8828740    -2.9264540     0.6079930
  H        0.1338470    -2.6618440     0.4039710
units angstrom
no_reorient  #important for SAPT in psi4, default
symmetry c1  #important for SAPT in psi4, default
}

set PROPERTIES_ORIGIN ["COM"]
properties('MP2/aug-cc-pvtz', properties = ['dipole'])
--------------------------------------------------------------------------

    Molecular point group: c1
  Charge       = 0
  Multiplicity = 1
  Basis Set: AUG-CC-PVTZ
    Blend: AUG-CC-PVTZ
  Basis Set: (AUG-CC-PVTZ AUX)
    Blend: AUG-CC-PVTZ-JKFIT

    Orbital Energies [Eh]
    ---------------------

    Doubly Occupied:

       1A    -20.562670     2A    -20.546787     3A    -11.343278
       4A    -11.335652     5A    -11.255248     6A    -11.251965
       7A    -11.234797     8A    -11.234270     9A    -11.226131
      10A    -11.215885    11A     -1.421828    12A     -1.378200
      13A     -1.100866    14A     -1.061354    15A     -1.020476
      16A     -0.963586    17A     -0.893123    18A     -0.834380
      19A     -0.764142    20A     -0.723732    21A     -0.687232
      22A     -0.671790    23A     -0.645659    24A     -0.634697
      25A     -0.624635    26A     -0.597727    27A     -0.590347
      28A     -0.568224    29A     -0.555112    30A     -0.542142
      31A     -0.536075    32A     -0.526385    33A     -0.511100
      34A     -0.508464    35A     -0.496254    36A     -0.485135
      37A     -0.482385    38A     -0.422678    39A     -0.400123

  @DF-RHF Final Energy:  -460.99332176239898

   => Energetics <=

    Nuclear Repulsion Energy =            551.1494802837102043
    One-Electron Energy =               -1720.5765374563613932
    Two-Electron Energy =                 708.4337354102520976
    Total Energy =                       -460.9933217623989776
  Basis Set: (AUG-CC-PVTZ AUX)
    Blend: AUG-CC-PVTZ-RI
    Molecular point group: c1

    Geometry (in Angstrom), charge = 0, multiplicity = 1:

       Center              X                  Y                   Z               Mass
    ------------   -----------------  -----------------  -----------------  -----------------
         O           -1.177982361195    -0.787374054925    -1.083324860880    15.994914619570
         O            2.235911638805    -0.801969054925    -0.723052860880    15.994914619570
         C            0.388398638805     0.273955945075     0.389238139120    12.000000000000
         C            0.843993638805     1.568171945075    -0.300752860880    12.000000000000
         C           -1.049962561195    -0.094877554925    -0.128548560880    12.000000000000
         C            1.321225638805    -0.898850054925     0.088295139120    12.000000000000
         C           -2.180325361195     0.506233945075     0.680993139120    12.000000000000
         C            2.096606638805     2.165914945075     0.333873139120    12.000000000000
         C            1.040336638805    -2.188444054925     0.824527139120    12.000000000000
         C           -3.519867361195     0.295610945075    -0.009336860880    12.000000000000
         H            0.360821638805     0.429555945075     1.478721139120     1.007825032230
         H            1.027173638805     1.334855945075    -1.353619860880     1.007825032230
         H            0.030036638805     2.302712945075    -0.265210860880     1.007825032230
         H           -1.981388361195     1.570888945075     0.858408139120     1.007825032230
         H           -2.170477361195     0.039331945075     1.676462139120     1.007825032230
         H            2.934010638805     1.470141945075     0.260118139120     1.007825032230
         H            2.380256638805     3.092359945075    -0.173964860880     1.007825032230
         H            1.926420638805     2.401224945075     1.389616139120     1.007825032230
         H           -3.710586361195    -0.767884054925    -0.163428860880     1.007825032230
         H           -3.528421361195     0.777086945075    -0.989594860880     1.007825032230
         H           -4.331551361195     0.714705945075     0.590886139120     1.007825032230
         H            0.921076638805    -2.010319054925     1.897934139120     1.007825032230
         H            1.858977638805    -2.888090054925     0.650881139120     1.007825032230
         H            0.109950638805    -2.623480054925     0.446859139120     1.007825032230

  Basis Set: AUG-CC-PVTZ
    Blend: AUG-CC-PVTZ
  Basis Set: (AUG-CC-PVTZ AUX)
    Blend: AUG-CC-PVTZ-JKFIT
	 Reference Energy          =    -460.9933217623989776 [Eh]
	 Singles Energy            =      -0.0000000000000000 [Eh]
	 Same-Spin Energy          =      -0.4676351303266577 [Eh]
	 Opposite-Spin Energy      =      -1.5661439545962652 [Eh]
	 Correlation Energy        =      -2.0337790849229229 [Eh]
	 Total Energy              =    -463.0271008473218899 [Eh]

	 ================> DF-SCS-MP2 Energies <==================
	-----------------------------------------------------------
	 SCS Same-Spin Scale       =       0.3333333333333333 [-]
	 SCS Opposite-Spin Scale   =       1.2000000000000000 [-]
	 SCS Same-Spin Energy      =      -0.1558783767755526 [Eh]
	 SCS Opposite-Spin Energy  =      -1.8793727455155183 [Eh]
	 SCS Correlation Energy    =      -2.0352511222910707 [Eh]
	 SCS Total Energy          =    -463.0285728846900497 [Eh]
	-----------------------------------------------------------

  Dipole Moment: [D]
     X:    -1.9993      Y:     1.3108      Z:     3.4738     Total:     4.2169

*** Psi4 exiting successfully. Buy a developer a beer!
