                               Psi4 1.4a3.dev225

  ==> Input File <==

--------------------------------------------------------------------------
#psi4
#
memory 32 gb

molecule  {
0 1
  O       -1.1540860    -0.8257380    -1.1262130
  O        2.2598080    -0.8403330    -0.7659410
  C        0.4990784     0.3204507     0.2421213
  C        0.8678900     1.5298080    -0.3436410
  C       -0.9920820    -0.1169500    -0.1343550
  C        1.3451220    -0.9372140     0.0454070
  C       -2.1564290     0.4678700     0.6381050
  C        2.1205030     2.1275510     0.2909850
  C        1.0642330    -2.2268080     0.7816390
  C       -3.4959710     0.2572470    -0.0522250
  H        0.3847180     0.3911920     1.4358330
  H        1.0510700     1.2964920    -1.3965080
  H        0.0539330     2.2643490    -0.3080990
  H       -1.9574920     1.5325250     0.8155200
  H       -2.1465810     0.0009680     1.6335740
  H        2.9579070     1.4317780     0.2172300
  H        2.4041530     3.0539960    -0.2168530
  H        1.9503170     2.3628610     1.3467280
  H       -3.6866900    -0.8062480    -0.2063170
  H       -3.5045250     0.7387230    -1.0324830
  H       -4.3076550     0.6763420     0.5479980
  H        0.9449730    -2.0486830     1.8550460
  H        1.8828740    -2.9264540     0.6079930
  H        0.1338470    -2.6618440     0.4039710
units angstrom
no_reorient  #important for SAPT in psi4, default
symmetry c1  #important for SAPT in psi4, default
}

set PROPERTIES_ORIGIN ["COM"]
properties('MP2/aug-cc-pvtz', properties = ['dipole'])
--------------------------------------------------------------------------

    Molecular point group: c1
  Charge       = 0
  Multiplicity = 1
  Basis Set: AUG-CC-PVTZ
    Blend: AUG-CC-PVTZ
  Basis Set: (AUG-CC-PVTZ AUX)
    Blend: AUG-CC-PVTZ-JKFIT

    Orbital Energies [Eh]
    ---------------------

    Doubly Occupied:

       1A    -20.559539     2A    -20.544309     3A    -11.347881
       4A    -11.337157     5A    -11.264804     6A    -11.254578
       7A    -11.240161     8A    -11.227324     9A    -11.227109
      10A    -11.217138    11A     -1.392288    12A     -1.378285
      13A     -1.119932    14A     -1.063885    15A     -1.022356
      16A     -0.963275    17A     -0.897140    18A     -0.845579
      19A     -0.762268    20A     -0.716419    21A     -0.678810
      22A     -0.677893    23A     -0.645100    24A     -0.630917
      25A     -0.621255    26A     -0.602370    27A     -0.596285
      28A     -0.564401    29A     -0.558191    30A     -0.536364
      31A     -0.532803    32A     -0.522190    33A     -0.516486
      34A     -0.510288    35A     -0.492706    36A     -0.483959
      37A     -0.479930    38A     -0.421501    39A     -0.398331

  @DF-RHF Final Energy:  -460.96468117915578

   => Energetics <=

    Nuclear Repulsion Energy =            551.6143649210853255
    One-Electron Energy =               -1721.4556792573207531
    Two-Electron Energy =                 708.8766331570795955
    Total Energy =                       -460.9646811791558321
  Basis Set: (AUG-CC-PVTZ AUX)
    Blend: AUG-CC-PVTZ-RI
    Molecular point group: c1

    Geometry (in Angstrom), charge = 0, multiplicity = 1:

       Center              X                  Y                   Z               Mass
    ------------   -----------------  -----------------  -----------------  -----------------
         O           -1.188180936327    -0.795915981024    -1.077654435001    15.994914619570
         O            2.225713063673    -0.810510981024    -0.717382435001    15.994914619570
         C            0.464983463673     0.350272718976     0.290679864999    12.000000000000
         C            0.833795063673     1.559630018976    -0.295082435001    12.000000000000
         C           -1.026176936327    -0.087127981024    -0.085796435001    12.000000000000
         C            1.311027063673    -0.907391981024     0.093965564999    12.000000000000
         C           -2.190523936327     0.497692018976     0.686663564999    12.000000000000
         C            2.086408063673     2.157373018976     0.339543564999    12.000000000000
         C            1.030138063673    -2.196985981024     0.830197564999    12.000000000000
         C           -3.530065936327     0.287069018976    -0.003666435001    12.000000000000
         H            0.350623063673     0.421014018976     1.484391564999     1.007825032230
         H            1.016975063673     1.326314018976    -1.347949435001     1.007825032230
         H            0.019838063673     2.294171018976    -0.259540435001     1.007825032230
         H           -1.991586936327     1.562347018976     0.864078564999     1.007825032230
         H           -2.180675936327     0.030790018976     1.682132564999     1.007825032230
         H            2.923812063673     1.461600018976     0.265788564999     1.007825032230
         H            2.370058063673     3.083818018976    -0.168294435001     1.007825032230
         H            1.916222063673     2.392683018976     1.395286564999     1.007825032230
         H           -3.720784936327    -0.776425981024    -0.157758435001     1.007825032230
         H           -3.538619936327     0.768545018976    -0.983924435001     1.007825032230
         H           -4.341749936327     0.706164018976     0.596556564999     1.007825032230
         H            0.910878063673    -2.018860981024     1.903604564999     1.007825032230
         H            1.848779063673    -2.896631981024     0.656551564999     1.007825032230
         H            0.099752063673    -2.632021981024     0.452529564999     1.007825032230

  Basis Set: AUG-CC-PVTZ
    Blend: AUG-CC-PVTZ
  Basis Set: (AUG-CC-PVTZ AUX)
    Blend: AUG-CC-PVTZ-JKFIT
	 Reference Energy          =    -460.9646811791557752 [Eh]
	 Singles Energy            =      -0.0000000000000000 [Eh]
	 Same-Spin Energy          =      -0.4703066980790160 [Eh]
	 Opposite-Spin Energy      =      -1.5710984093704119 [Eh]
	 Correlation Energy        =      -2.0414051074494282 [Eh]
	 Total Energy              =    -463.0060862866051821 [Eh]

	 ================> DF-SCS-MP2 Energies <==================
	-----------------------------------------------------------
	 SCS Same-Spin Scale       =       0.3333333333333333 [-]
	 SCS Opposite-Spin Scale   =       1.2000000000000000 [-]
	 SCS Same-Spin Energy      =      -0.1567688993596720 [Eh]
	 SCS Opposite-Spin Energy  =      -1.8853180912444942 [Eh]
	 SCS Correlation Energy    =      -2.0420869906041661 [Eh]
	 SCS Total Energy          =    -463.0067681697599369 [Eh]
	-----------------------------------------------------------

  Dipole Moment: [D]
     X:    -1.9771      Y:     1.3391      Z:     3.4865     Total:     4.2259

*** Psi4 exiting successfully. Buy a developer a beer!
