                               Psi4 1.4a3.dev225

  ==> Input File <==

--------------------------------------------------------------------------
#psi4
#
memory 32 gb

molecule  {
0 1
  O       -1.1540860    -0.8257380    -1.1262130
  O        2.2598080    -0.8403330    -0.7659410
  C        0.4122950     0.2355920     0.3463500
  C        0.8678900     1.5298080    -0.3436410
  C       -0.9920820    -0.1169500    -0.1343550
  C        1.3451220    -0.9372140     0.0454070
  C       -2.1564290     0.4678700     0.6381050
  C        2.1205030     2.1275510     0.2909850
  C        1.0642330    -2.2268080     0.7816390
  C       -3.4959710     0.2572470    -0.0522250
  H        0.3847180     0.3911920     1.4358330
  H        1.0510700     1.2964920    -1.3965080
  H        0.0539330     2.2643490    -0.3080990
  H       -1.9574920     1.5325250     0.8155200
  H       -2.1465810     0.0009680     1.6335740
  H        2.9632035     1.4342716     0.2931715
  H        2.4041530     3.0539960    -0.2168530
  H        1.9503170     2.3628610     1.3467280
  H       -3.6866900    -0.8062480    -0.2063170
  H       -3.5045250     0.7387230    -1.0324830
  H       -4.3076550     0.6763420     0.5479980
  H        0.9449730    -2.0486830     1.8550460
  H        1.8828740    -2.9264540     0.6079930
  H        0.1338470    -2.6618440     0.4039710
units angstrom
no_reorient  #important for SAPT in psi4, default
symmetry c1  #important for SAPT in psi4, default
}

set PROPERTIES_ORIGIN ["COM"]
properties('MP2/aug-cc-pvtz', properties = ['dipole'])
--------------------------------------------------------------------------

    Molecular point group: c1
  Charge       = 0
  Multiplicity = 1
  Basis Set: AUG-CC-PVTZ
    Blend: AUG-CC-PVTZ
  Basis Set: (AUG-CC-PVTZ AUX)
    Blend: AUG-CC-PVTZ-JKFIT

    Orbital Energies [Eh]
    ---------------------

    Doubly Occupied:

       1A    -20.558235     2A    -20.548628     3A    -11.345919
       4A    -11.338169     5A    -11.258641     6A    -11.252923
       7A    -11.238093     8A    -11.235631     9A    -11.225961
      10A    -11.218303    11A     -1.392350    12A     -1.378393
      13A     -1.107644    14A     -1.060729    15A     -1.022378
      16A     -0.969601    17A     -0.894850    18A     -0.838703
      19A     -0.768692    20A     -0.723419    21A     -0.683059
      22A     -0.672884    23A     -0.644670    24A     -0.626309
      25A     -0.622974    26A     -0.597403    27A     -0.592091
      28A     -0.567935    29A     -0.557674    30A     -0.537244
      31A     -0.534550    32A     -0.522576    33A     -0.512129
      34A     -0.507209    35A     -0.492157    36A     -0.483758
      37A     -0.481967    38A     -0.427240    39A     -0.407544

  @DF-RHF Final Energy:  -460.99169042231517

   => Energetics <=

    Nuclear Repulsion Energy =            551.0401494461447101
    One-Electron Energy =               -1720.3664123933704104
    Two-Electron Energy =                 708.3345725249104134
    Total Energy =                       -460.9916904223151732
  Basis Set: (AUG-CC-PVTZ AUX)
    Blend: AUG-CC-PVTZ-RI
    Molecular point group: c1

    Geometry (in Angstrom), charge = 0, multiplicity = 1:

       Center              X                  Y                   Z               Mass
    ------------   -----------------  -----------------  -----------------  -----------------
         O           -1.180889821778    -0.788767524150    -1.086994941255    15.994914619570
         O            2.233004178222    -0.803362524150    -0.726722941255    15.994914619570
         C            0.385491178222     0.272562475850     0.385568058745    12.000000000000
         C            0.841086178222     1.566778475850    -0.304422941255    12.000000000000
         C           -1.018885821778    -0.079979524150    -0.095136941255    12.000000000000
         C            1.318318178222    -0.900243524150     0.084625058745    12.000000000000
         C           -2.183232821778     0.504840475850     0.677323058745    12.000000000000
         C            2.093699178222     2.164521475850     0.330203058745    12.000000000000
         C            1.037429178222    -2.189837524150     0.820857058745    12.000000000000
         C           -3.522774821778     0.294217475850    -0.013006941255    12.000000000000
         H            0.357914178222     0.428162475850     1.475051058745     1.007825032230
         H            1.024266178222     1.333462475850    -1.357289941255     1.007825032230
         H            0.027129178222     2.301319475850    -0.268880941255     1.007825032230
         H           -1.984295821778     1.569495475850     0.854738058745     1.007825032230
         H           -2.173384821778     0.037938475850     1.672792058745     1.007825032230
         H            2.936399678222     1.471242075850     0.332389558745     1.007825032230
         H            2.377349178222     3.090966475850    -0.177634941255     1.007825032230
         H            1.923513178222     2.399831475850     1.385946058745     1.007825032230
         H           -3.713493821778    -0.769277524150    -0.167098941255     1.007825032230
         H           -3.531328821778     0.775693475850    -0.993264941255     1.007825032230
         H           -4.334458821778     0.713312475850     0.587216058745     1.007825032230
         H            0.918169178222    -2.011712524150     1.894264058745     1.007825032230
         H            1.856070178222    -2.889483524150     0.647211058745     1.007825032230
         H            0.107043178222    -2.624873524150     0.443189058745     1.007825032230

  Basis Set: AUG-CC-PVTZ
    Blend: AUG-CC-PVTZ
  Basis Set: (AUG-CC-PVTZ AUX)
    Blend: AUG-CC-PVTZ-JKFIT
	 Reference Energy          =    -460.9916904223151732 [Eh]
	 Singles Energy            =      -0.0000000000000000 [Eh]
	 Same-Spin Energy          =      -0.4688320342772764 [Eh]
	 Opposite-Spin Energy      =      -1.5686929596949011 [Eh]
	 Correlation Energy        =      -2.0375249939721773 [Eh]
	 Total Energy              =    -463.0292154162873430 [Eh]

	 ================> DF-SCS-MP2 Energies <==================
	-----------------------------------------------------------
	 SCS Same-Spin Scale       =       0.3333333333333333 [-]
	 SCS Opposite-Spin Scale   =       1.2000000000000000 [-]
	 SCS Same-Spin Energy      =      -0.1562773447590921 [Eh]
	 SCS Opposite-Spin Energy  =      -1.8824315516338812 [Eh]
	 SCS Correlation Energy    =      -2.0387088963929734 [Eh]
	 SCS Total Energy          =    -463.0303993187081346 [Eh]
	-----------------------------------------------------------

  Dipole Moment: [D]
     X:    -1.7751      Y:     1.4094      Z:     3.6080     Total:     4.2608

*** Psi4 exiting successfully. Buy a developer a beer!
