                               Psi4 1.4a3.dev225

  ==> Input File <==

--------------------------------------------------------------------------
#psi4
#
memory 32 gb

molecule  {
0 1
  O       -1.1540860    -0.8257380    -1.1262130
  O        2.2598080    -0.8403330    -0.7659410
  C        0.4122950     0.2355920     0.3463500
  C        0.8678900     1.5298080    -0.3436410
  C       -0.9920820    -0.1169500    -0.1343550
  C        1.3451220    -0.9372140     0.0454070
  C       -2.1564290     0.4678700     0.6381050
  C        2.1205030     2.1275510     0.2909850
  C        1.0642330    -2.2268080     0.7816390
  C       -3.4959710     0.2572470    -0.0522250
  H        0.3847180     0.3911920     1.4358330
  H        1.0544193     1.2922261    -1.4157586
  H        0.0539330     2.2643490    -0.3080990
  H       -1.9574920     1.5325250     0.8155200
  H       -2.1465810     0.0009680     1.6335740
  H        2.9579070     1.4317780     0.2172300
  H        2.4041530     3.0539960    -0.2168530
  H        1.9503170     2.3628610     1.3467280
  H       -3.6866900    -0.8062480    -0.2063170
  H       -3.5045250     0.7387230    -1.0324830
  H       -4.3076550     0.6763420     0.5479980
  H        0.9449730    -2.0486830     1.8550460
  H        1.8828740    -2.9264540     0.6079930
  H        0.1338470    -2.6618440     0.4039710
units angstrom
no_reorient  #important for SAPT in psi4, default
symmetry c1  #important for SAPT in psi4, default
}

set PROPERTIES_ORIGIN ["COM"]
properties('MP2/aug-cc-pvtz', properties = ['dipole'])
--------------------------------------------------------------------------

    Molecular point group: c1
  Charge       = 0
  Multiplicity = 1
  Basis Set: AUG-CC-PVTZ
    Blend: AUG-CC-PVTZ
  Basis Set: (AUG-CC-PVTZ AUX)
    Blend: AUG-CC-PVTZ-JKFIT

    Orbital Energies [Eh]
    ---------------------

    Doubly Occupied:

       1A    -20.558176     2A    -20.548741     3A    -11.345893
       4A    -11.338310     5A    -11.258715     6A    -11.252893
       7A    -11.239741     8A    -11.235661     9A    -11.225926
      10A    -11.218163    11A     -1.392319    12A     -1.378541
      13A     -1.107312    14A     -1.060599    15A     -1.022251
      16A     -0.969607    17A     -0.894755    18A     -0.836188
      19A     -0.768565    20A     -0.722980    21A     -0.683003
      22A     -0.673093    23A     -0.644244    24A     -0.626011
      25A     -0.622960    26A     -0.598500    27A     -0.591826
      28A     -0.568036    29A     -0.556557    30A     -0.537726
      31A     -0.534921    32A     -0.522642    33A     -0.509793
      34A     -0.506910    35A     -0.491313    36A     -0.483043
      37A     -0.482839    38A     -0.427242    39A     -0.407471

  @DF-RHF Final Energy:  -460.99156971632101

   => Energetics <=

    Nuclear Repulsion Energy =            550.9976445545727302
    One-Electron Energy =               -1720.2915015127452989
    Two-Electron Energy =                 708.3022872418514453
    Total Energy =                       -460.9915697163210098
  Basis Set: (AUG-CC-PVTZ AUX)
    Blend: AUG-CC-PVTZ-RI
    Molecular point group: c1

    Geometry (in Angstrom), charge = 0, multiplicity = 1:

       Center              X                  Y                   Z               Mass
    ------------   -----------------  -----------------  -----------------  -----------------
         O           -1.180876011465    -0.788719583101    -1.086319801212    15.994914619570
         O            2.233017988535    -0.803314583101    -0.726047801212    15.994914619570
         C            0.385504988535     0.272610416899     0.386243198788    12.000000000000
         C            0.841099988535     1.566826416899    -0.303747801212    12.000000000000
         C           -1.018872011465    -0.079931583101    -0.094461801212    12.000000000000
         C            1.318331988535    -0.900195583101     0.085300198788    12.000000000000
         C           -2.183219011465     0.504888416899     0.677998198788    12.000000000000
         C            2.093712988535     2.164569416899     0.330878198788    12.000000000000
         C            1.037442988535    -2.189789583101     0.821532198788    12.000000000000
         C           -3.522761011465     0.294265416899    -0.012331801212    12.000000000000
         H            0.357927988535     0.428210416899     1.475726198788     1.007825032230
         H            1.027629288535     1.329244516899    -1.375865401212     1.007825032230
         H            0.027142988535     2.301367416899    -0.268205801212     1.007825032230
         H           -1.984282011465     1.569543416899     0.855413198788     1.007825032230
         H           -2.173371011465     0.037986416899     1.673467198788     1.007825032230
         H            2.931116988535     1.468796416899     0.257123198788     1.007825032230
         H            2.377362988535     3.091014416899    -0.176959801212     1.007825032230
         H            1.923526988535     2.399879416899     1.386621198788     1.007825032230
         H           -3.713480011465    -0.769229583101    -0.166423801212     1.007825032230
         H           -3.531315011465     0.775741416899    -0.992589801212     1.007825032230
         H           -4.334445011465     0.713360416899     0.587891198788     1.007825032230
         H            0.918182988535    -2.011664583101     1.894939198788     1.007825032230
         H            1.856083988535    -2.889435583101     0.647886198788     1.007825032230
         H            0.107056988535    -2.624825583101     0.443864198788     1.007825032230

  Basis Set: AUG-CC-PVTZ
    Blend: AUG-CC-PVTZ
  Basis Set: (AUG-CC-PVTZ AUX)
    Blend: AUG-CC-PVTZ-JKFIT
	 Reference Energy          =    -460.9915697163210098 [Eh]
	 Singles Energy            =      -0.0000000000000000 [Eh]
	 Same-Spin Energy          =      -0.4688849590603520 [Eh]
	 Opposite-Spin Energy      =      -1.5688723117717978 [Eh]
	 Correlation Energy        =      -2.0377572708321496 [Eh]
	 Total Energy              =    -463.0293269871531834 [Eh]

	 ================> DF-SCS-MP2 Energies <==================
	-----------------------------------------------------------
	 SCS Same-Spin Scale       =       0.3333333333333333 [-]
	 SCS Opposite-Spin Scale   =       1.2000000000000000 [-]
	 SCS Same-Spin Energy      =      -0.1562949863534507 [Eh]
	 SCS Opposite-Spin Energy  =      -1.8826467741261572 [Eh]
	 SCS Correlation Energy    =      -2.0389417604796081 [Eh]
	 SCS Total Energy          =    -463.0305114768005978 [Eh]
	-----------------------------------------------------------

  Dipole Moment: [D]
     X:    -1.7714      Y:     1.4087      Z:     3.5965     Total:     4.2494

*** Psi4 exiting successfully. Buy a developer a beer!
