                               Psi4 1.4a3.dev225

  ==> Input File <==

--------------------------------------------------------------------------
#psi4
#
memory 32 gb

molecule  {
0 1
  O       -1.1540860    -0.8257380    -1.1262130
  O        2.2598080    -0.8403330    -0.7659410
  C        0.4122950     0.2355920     0.3463500
  C        0.8678900     1.5298080    -0.3436410
  C       -0.9920820    -0.1169500    -0.1343550
  C        1.3451220    -0.9372140     0.0454070
  C       -2.1564290     0.4678700     0.6381050
  C        2.1205030     2.1275510     0.2909850
  C        1.0642330    -2.2268080     0.7816390
  C       -3.4959710     0.2572470    -0.0522250
  H        0.3847180     0.3911920     1.4358330
  H        1.1059484     1.2486161    -1.3735825
  H        0.0539330     2.2643490    -0.3080990
  H       -1.9574920     1.5325250     0.8155200
  H       -2.1465810     0.0009680     1.6335740
  H        2.9579070     1.4317780     0.2172300
  H        2.4041530     3.0539960    -0.2168530
  H        1.9503170     2.3628610     1.3467280
  H       -3.6866900    -0.8062480    -0.2063170
  H       -3.5045250     0.7387230    -1.0324830
  H       -4.3076550     0.6763420     0.5479980
  H        0.9449730    -2.0486830     1.8550460
  H        1.8828740    -2.9264540     0.6079930
  H        0.1338470    -2.6618440     0.4039710
units angstrom
no_reorient  #important for SAPT in psi4, default
symmetry c1  #important for SAPT in psi4, default
}

set PROPERTIES_ORIGIN ["COM"]
properties('MP2/aug-cc-pvtz', properties = ['dipole'])
--------------------------------------------------------------------------

    Molecular point group: c1
  Charge       = 0
  Multiplicity = 1
  Basis Set: AUG-CC-PVTZ
    Blend: AUG-CC-PVTZ
  Basis Set: (AUG-CC-PVTZ AUX)
    Blend: AUG-CC-PVTZ-JKFIT

    Orbital Energies [Eh]
    ---------------------

    Doubly Occupied:

       1A    -20.558149     2A    -20.549245     3A    -11.345828
       4A    -11.338717     5A    -11.258135     6A    -11.252940
       7A    -11.237134     8A    -11.235842     9A    -11.225928
      10A    -11.217539    11A     -1.392405    12A     -1.379089
      13A     -1.107831    14A     -1.060815    15A     -1.022736
      16A     -0.969632    17A     -0.894824    18A     -0.836105
      19A     -0.768876    20A     -0.723047    21A     -0.683338
      22A     -0.675096    23A     -0.644086    24A     -0.625960
      25A     -0.623260    26A     -0.600597    27A     -0.591942
      28A     -0.568323    29A     -0.556481    30A     -0.537574
      31A     -0.534970    32A     -0.522746    33A     -0.508948
      34A     -0.507982    35A     -0.491622    36A     -0.484726
      37A     -0.481570    38A     -0.427337    39A     -0.407728

  @DF-RHF Final Energy:  -460.99140858552988

   => Energetics <=

    Nuclear Repulsion Energy =            551.1950210017239442
    One-Electron Energy =               -1720.6746484288478314
    Two-Electron Energy =                 708.4882188415940618
    Total Energy =                       -460.9914085855298254
  Basis Set: (AUG-CC-PVTZ AUX)
    Blend: AUG-CC-PVTZ-RI
    Molecular point group: c1

    Geometry (in Angstrom), charge = 0, multiplicity = 1:

       Center              X                  Y                   Z               Mass
    ------------   -----------------  -----------------  -----------------  -----------------
         O           -1.181241476233    -0.788410283724    -1.086618930803    15.994914619570
         O            2.232652523767    -0.803005283724    -0.726346930803    15.994914619570
         C            0.385139523767     0.272919716276     0.385944069197    12.000000000000
         C            0.840734523767     1.567135716276    -0.304046930803    12.000000000000
         C           -1.019237476233    -0.079622283724    -0.094760930803    12.000000000000
         C            1.317966523767    -0.899886283724     0.085001069197    12.000000000000
         C           -2.183584476233     0.505197716276     0.677699069197    12.000000000000
         C            2.093347523767     2.164878716276     0.330579069197    12.000000000000
         C            1.037077523767    -2.189480283724     0.821233069197    12.000000000000
         C           -3.523126476233     0.294574716276    -0.012630930803    12.000000000000
         H            0.357562523767     0.428519716276     1.475427069197     1.007825032230
         H            1.078792923767     1.285943816276    -1.333988430803     1.007825032230
         H            0.026777523767     2.301676716276    -0.268504930803     1.007825032230
         H           -1.984647476233     1.569852716276     0.855114069197     1.007825032230
         H           -2.173736476233     0.038295716276     1.673168069197     1.007825032230
         H            2.930751523767     1.469105716276     0.256824069197     1.007825032230
         H            2.376997523767     3.091323716276    -0.177258930803     1.007825032230
         H            1.923161523767     2.400188716276     1.386322069197     1.007825032230
         H           -3.713845476233    -0.768920283724    -0.166722930803     1.007825032230
         H           -3.531680476233     0.776050716276    -0.992888930803     1.007825032230
         H           -4.334810476233     0.713669716276     0.587592069197     1.007825032230
         H            0.917817523767    -2.011355283724     1.894640069197     1.007825032230
         H            1.855718523767    -2.889126283724     0.647587069197     1.007825032230
         H            0.106691523767    -2.624516283724     0.443565069197     1.007825032230

  Basis Set: AUG-CC-PVTZ
    Blend: AUG-CC-PVTZ
  Basis Set: (AUG-CC-PVTZ AUX)
    Blend: AUG-CC-PVTZ-JKFIT
	 Reference Energy          =    -460.9914085855298822 [Eh]
	 Singles Energy            =      -0.0000000000000000 [Eh]
	 Same-Spin Energy          =      -0.4689697562940452 [Eh]
	 Opposite-Spin Energy      =      -1.5688633488719566 [Eh]
	 Correlation Energy        =      -2.0378331051660017 [Eh]
	 Total Energy              =    -463.0292416906958692 [Eh]

	 ================> DF-SCS-MP2 Energies <==================
	-----------------------------------------------------------
	 SCS Same-Spin Scale       =       0.3333333333333333 [-]
	 SCS Opposite-Spin Scale   =       1.2000000000000000 [-]
	 SCS Same-Spin Energy      =      -0.1563232520980151 [Eh]
	 SCS Opposite-Spin Energy  =      -1.8826360186463478 [Eh]
	 SCS Correlation Energy    =      -2.0389592707443627 [Eh]
	 SCS Total Energy          =    -463.0303678562742675 [Eh]
	-----------------------------------------------------------

  Dipole Moment: [D]
     X:    -1.7600      Y:     1.3837      Z:     3.5986     Total:     4.2382

*** Psi4 exiting successfully. Buy a developer a beer!
