                               Psi4 1.4a3.dev225

  ==> Input File <==

--------------------------------------------------------------------------
#psi4
#
memory 32 gb

molecule  {
0 1
  O       -1.1540860    -0.8257380    -1.1262130
  O        2.2598080    -0.8403330    -0.7659410
  C        0.4122950     0.2355920     0.3463500
  C        0.8678900     1.5298080    -0.3436410
  C       -0.9920820    -0.1169500    -0.1343550
  C        1.3451220    -0.9372140     0.0454070
  C       -2.1564290     0.4678700     0.6381050
  C        2.1205030     2.1275510     0.2909850
  C        1.0642330    -2.2268080     0.7816390
  C       -3.4959710     0.2572470    -0.0522250
  H        0.3847180     0.3911920     1.4358330
  H        1.0678163     1.2751623    -1.4927608
  H        0.0539330     2.2643490    -0.3080990
  H       -1.9574920     1.5325250     0.8155200
  H       -2.1465810     0.0009680     1.6335740
  H        2.9579070     1.4317780     0.2172300
  H        2.4041530     3.0539960    -0.2168530
  H        1.9503170     2.3628610     1.3467280
  H       -3.6866900    -0.8062480    -0.2063170
  H       -3.5045250     0.7387230    -1.0324830
  H       -4.3076550     0.6763420     0.5479980
  H        0.9449730    -2.0486830     1.8550460
  H        1.8828740    -2.9264540     0.6079930
  H        0.1338470    -2.6618440     0.4039710
units angstrom
no_reorient  #important for SAPT in psi4, default
symmetry c1  #important for SAPT in psi4, default
}

set PROPERTIES_ORIGIN ["COM"]
properties('MP2/aug-cc-pvtz', properties = ['dipole'])
--------------------------------------------------------------------------

    Molecular point group: c1
  Charge       = 0
  Multiplicity = 1
  Basis Set: AUG-CC-PVTZ
    Blend: AUG-CC-PVTZ
  Basis Set: (AUG-CC-PVTZ AUX)
    Blend: AUG-CC-PVTZ-JKFIT

    Orbital Energies [Eh]
    ---------------------

    Doubly Occupied:

       1A    -20.558159     2A    -20.548594     3A    -11.345942
       4A    -11.338277     5A    -11.259419     6A    -11.253008
       7A    -11.248319     8A    -11.235716     9A    -11.225960
      10A    -11.218841    11A     -1.392234    12A     -1.378392
      13A     -1.106414    14A     -1.060295    15A     -1.021477
      16A     -0.969629    17A     -0.894771    18A     -0.831508
      19A     -0.768327    20A     -0.721600    21A     -0.682600
      22A     -0.672128    23A     -0.644096    24A     -0.625933
      25A     -0.622132    26A     -0.596154    27A     -0.591994
      28A     -0.567684    29A     -0.556769    30A     -0.537943
      31A     -0.534974    32A     -0.522658    33A     -0.509456
      34A     -0.506876    35A     -0.489494    36A     -0.483205
      37A     -0.474150    38A     -0.427376    39A     -0.407504

  @DF-RHF Final Energy:  -460.98529386516810

   => Energetics <=

    Nuclear Repulsion Energy =            550.6464487555236929
    One-Electron Energy =               -1719.6034683548268731
    Two-Electron Energy =                 707.9717257341351342
    Total Energy =                       -460.9852938651681598
  Basis Set: (AUG-CC-PVTZ AUX)
    Blend: AUG-CC-PVTZ-RI
    Molecular point group: c1

    Geometry (in Angstrom), charge = 0, multiplicity = 1:

       Center              X                  Y                   Z               Mass
    ------------   -----------------  -----------------  -----------------  -----------------
         O           -1.180971028290    -0.788598559879    -1.085773671139    15.994914619570
         O            2.232922971710    -0.803193559879    -0.725501671139    15.994914619570
         C            0.385409971710     0.272731440121     0.386789328861    12.000000000000
         C            0.841004971710     1.566947440121    -0.303201671139    12.000000000000
         C           -1.018967028290    -0.079810559879    -0.093915671139    12.000000000000
         C            1.318236971710    -0.900074559879     0.085846328861    12.000000000000
         C           -2.183314028290     0.505009440121     0.678544328861    12.000000000000
         C            2.093617971710     2.164690440121     0.331424328861    12.000000000000
         C            1.037347971710    -2.189668559879     0.822078328861    12.000000000000
         C           -3.522856028290     0.294386440121    -0.011785671139    12.000000000000
         H            0.357832971710     0.428331440121     1.476272328861     1.007825032230
         H            1.040931271710     1.312301740121    -1.452321471139     1.007825032230
         H            0.027047971710     2.301488440121    -0.267659671139     1.007825032230
         H           -1.984377028290     1.569664440121     0.855959328861     1.007825032230
         H           -2.173466028290     0.038107440121     1.674013328861     1.007825032230
         H            2.931021971710     1.468917440121     0.257669328861     1.007825032230
         H            2.377267971710     3.091135440121    -0.176413671139     1.007825032230
         H            1.923431971710     2.400000440121     1.387167328861     1.007825032230
         H           -3.713575028290    -0.769108559879    -0.165877671139     1.007825032230
         H           -3.531410028290     0.775862440121    -0.992043671139     1.007825032230
         H           -4.334540028290     0.713481440121     0.588437328861     1.007825032230
         H            0.918087971710    -2.011543559879     1.895485328861     1.007825032230
         H            1.855988971710    -2.889314559879     0.648432328861     1.007825032230
         H            0.106961971710    -2.624704559879     0.444410328861     1.007825032230

  Basis Set: AUG-CC-PVTZ
    Blend: AUG-CC-PVTZ
  Basis Set: (AUG-CC-PVTZ AUX)
    Blend: AUG-CC-PVTZ-JKFIT
	 Reference Energy          =    -460.9852938651681029 [Eh]
	 Singles Energy            =      -0.0000000000000000 [Eh]
	 Same-Spin Energy          =      -0.4690513934153244 [Eh]
	 Opposite-Spin Energy      =      -1.5696609676124542 [Eh]
	 Correlation Energy        =      -2.0387123610277786 [Eh]
	 Total Energy              =    -463.0240062261958656 [Eh]

	 ================> DF-SCS-MP2 Energies <==================
	-----------------------------------------------------------
	 SCS Same-Spin Scale       =       0.3333333333333333 [-]
	 SCS Opposite-Spin Scale   =       1.2000000000000000 [-]
	 SCS Same-Spin Energy      =      -0.1563504644717748 [Eh]
	 SCS Opposite-Spin Energy  =      -1.8835931611349450 [Eh]
	 SCS Correlation Energy    =      -2.0399436256067198 [Eh]
	 SCS Total Energy          =    -463.0252374907748276 [Eh]
	-----------------------------------------------------------

  Dipole Moment: [D]
     X:    -1.7637      Y:     1.4025      Z:     3.6258     Total:     4.2690

*** Psi4 exiting successfully. Buy a developer a beer!
