                               Psi4 1.4a3.dev225

  ==> Input File <==

--------------------------------------------------------------------------
#psi4
#
memory 32 gb

molecule  {
0 1
  O       -1.1540860    -0.8257380    -1.1262130
  O        2.2233750    -0.7183204    -0.7822881
  C        0.4122950     0.2355920     0.3463500
  C        0.8678900     1.5298080    -0.3436410
  C       -0.9920820    -0.1169500    -0.1343550
  C        1.3451220    -0.9372140     0.0454070
  C       -2.1564290     0.4678700     0.6381050
  C        2.1205030     2.1275510     0.2909850
  C        1.0642330    -2.2268080     0.7816390
  C       -3.4959710     0.2572470    -0.0522250
  H        0.3847180     0.3911920     1.4358330
  H        1.0510700     1.2964920    -1.3965080
  H        0.0539330     2.2643490    -0.3080990
  H       -1.9574920     1.5325250     0.8155200
  H       -2.1465810     0.0009680     1.6335740
  H        2.9579070     1.4317780     0.2172300
  H        2.4041530     3.0539960    -0.2168530
  H        1.9503170     2.3628610     1.3467280
  H       -3.6866900    -0.8062480    -0.2063170
  H       -3.5045250     0.7387230    -1.0324830
  H       -4.3076550     0.6763420     0.5479980
  H        0.9449730    -2.0486830     1.8550460
  H        1.8828740    -2.9264540     0.6079930
  H        0.1338470    -2.6618440     0.4039710
units angstrom
no_reorient  #important for SAPT in psi4, default
symmetry c1  #important for SAPT in psi4, default
}

set PROPERTIES_ORIGIN ["COM"]
properties('MP2/aug-cc-pvtz', properties = ['dipole'])
--------------------------------------------------------------------------

    Molecular point group: c1
  Charge       = 0
  Multiplicity = 1
  Basis Set: AUG-CC-PVTZ
    Blend: AUG-CC-PVTZ
  Basis Set: (AUG-CC-PVTZ AUX)
    Blend: AUG-CC-PVTZ-JKFIT

    Orbital Energies [Eh]
    ---------------------

    Doubly Occupied:

       1A    -20.556268     2A    -20.548893     3A    -11.343311
       4A    -11.339231     5A    -11.253071     6A    -11.250992
       7A    -11.242389     8A    -11.233597     9A    -11.224636
      10A    -11.214972    11A     -1.391426    12A     -1.379308
      13A     -1.103409    14A     -1.058672    15A     -1.025964
      16A     -0.968793    17A     -0.892863    18A     -0.834952
      19A     -0.766867    20A     -0.721840    21A     -0.681789
      22A     -0.674379    23A     -0.643543    24A     -0.627311
      25A     -0.621692    26A     -0.599390    27A     -0.593409
      28A     -0.566201    29A     -0.556349    30A     -0.537302
      31A     -0.533958    32A     -0.521380    33A     -0.507634
      34A     -0.505864    35A     -0.491389    36A     -0.481486
      37A     -0.479888    38A     -0.427374    39A     -0.404819

  @DF-RHF Final Energy:  -460.98849633443047

   => Energetics <=

    Nuclear Repulsion Energy =            552.3663246658502430
    One-Electron Energy =               -1723.0964211252273799
    Two-Electron Energy =                 709.7416001249466717
    Total Energy =                       -460.9884963344304651
  Basis Set: (AUG-CC-PVTZ AUX)
    Blend: AUG-CC-PVTZ-RI
    Molecular point group: c1

    Geometry (in Angstrom), charge = 0, multiplicity = 1:

       Center              X                  Y                   Z               Mass
    ------------   -----------------  -----------------  -----------------  -----------------
         O           -1.176751304981    -0.802483755785    -1.084616280530    15.994914619570
         O            2.200709695019    -0.695066155785    -0.740691380530    15.994914619570
         C            0.389629695019     0.258846244215     0.387946719470    12.000000000000
         C            0.845224695019     1.553062244215    -0.302044280530    12.000000000000
         C           -1.014747304981    -0.093695755785    -0.092758280530    12.000000000000
         C            1.322456695019    -0.913959755785     0.087003719470    12.000000000000
         C           -2.179094304981     0.491124244215     0.679701719470    12.000000000000
         C            2.097837695019     2.150805244215     0.332581719470    12.000000000000
         C            1.041567695019    -2.203553755785     0.823235719470    12.000000000000
         C           -3.518636304981     0.280501244215    -0.010628280530    12.000000000000
         H            0.362052695019     0.414446244215     1.477429719470     1.007825032230
         H            1.028404695019     1.319746244215    -1.354911280530     1.007825032230
         H            0.031267695019     2.287603244215    -0.266502280530     1.007825032230
         H           -1.980157304981     1.555779244215     0.857116719470     1.007825032230
         H           -2.169246304981     0.024222244215     1.675170719470     1.007825032230
         H            2.935241695019     1.455032244215     0.258826719470     1.007825032230
         H            2.381487695019     3.077250244215    -0.175256280530     1.007825032230
         H            1.927651695019     2.386115244215     1.388324719470     1.007825032230
         H           -3.709355304981    -0.782993755785    -0.164720280530     1.007825032230
         H           -3.527190304981     0.761977244215    -0.990886280530     1.007825032230
         H           -4.330320304981     0.699596244215     0.589594719470     1.007825032230
         H            0.922307695019    -2.025428755785     1.896642719470     1.007825032230
         H            1.860208695019    -2.903199755785     0.649589719470     1.007825032230
         H            0.111181695019    -2.638589755785     0.445567719470     1.007825032230

  Basis Set: AUG-CC-PVTZ
    Blend: AUG-CC-PVTZ
  Basis Set: (AUG-CC-PVTZ AUX)
    Blend: AUG-CC-PVTZ-JKFIT
	 Reference Energy          =    -460.9884963344304651 [Eh]
	 Singles Energy            =      -0.0000000000000000 [Eh]
	 Same-Spin Energy          =      -0.4692603506486663 [Eh]
	 Opposite-Spin Energy      =      -1.5692121997545545 [Eh]
	 Correlation Energy        =      -2.0384725504032208 [Eh]
	 Total Energy              =    -463.0269688848337069 [Eh]

	 ================> DF-SCS-MP2 Energies <==================
	-----------------------------------------------------------
	 SCS Same-Spin Scale       =       0.3333333333333333 [-]
	 SCS Opposite-Spin Scale   =       1.2000000000000000 [-]
	 SCS Same-Spin Energy      =      -0.1564201168828888 [Eh]
	 SCS Opposite-Spin Energy  =      -1.8830546397054653 [Eh]
	 SCS Correlation Energy    =      -2.0394747565883540 [Eh]
	 SCS Total Energy          =    -463.0279710910187987 [Eh]
	-----------------------------------------------------------

  Dipole Moment: [D]
     X:    -1.6411      Y:     1.0606      Z:     3.6352     Total:     4.1271

*** Psi4 exiting successfully. Buy a developer a beer!
