                               Psi4 1.4a3.dev225

  ==> Input File <==

--------------------------------------------------------------------------
#psi4
#
memory 32 gb

molecule  {
0 1
  O       -1.1540860    -0.8257380    -1.1262130
  O        2.2598080    -0.8403330    -0.7659410
  C        0.4122950     0.2355920     0.3463500
  C        0.8678900     1.5298080    -0.3436410
  C       -0.9920820    -0.1169500    -0.1343550
  C        1.3451220    -0.9372140     0.0454070
  C       -2.1564290     0.4678700     0.6381050
  C        2.1205030     2.1275510     0.2909850
  C        1.0642330    -2.2268080     0.7816390
  C       -3.4959710     0.2572470    -0.0522250
  H        0.3847180     0.3911920     1.4358330
  H        1.0510700     1.2964920    -1.3965080
  H        0.0539330     2.2643490    -0.3080990
  H       -1.9574920     1.5325250     0.8155200
  H       -2.1465810     0.0009680     1.6335740
  H        2.9579070     1.4317780     0.2172300
  H        2.4041530     3.0539960    -0.2168530
  H        1.9503170     2.3628610     1.3467280
  H       -3.6866900    -0.8062480    -0.2063170
  H       -3.5045250     0.7387230    -1.0324830
  H       -4.1591365     0.5996578     0.4381718
  H        0.9449730    -2.0486830     1.8550460
  H        1.8828740    -2.9264540     0.6079930
  H        0.1338470    -2.6618440     0.4039710
units angstrom
no_reorient  #important for SAPT in psi4, default
symmetry c1  #important for SAPT in psi4, default
}

set PROPERTIES_ORIGIN ["COM"]
properties('MP2/aug-cc-pvtz', properties = ['dipole'])
--------------------------------------------------------------------------

    Molecular point group: c1
  Charge       = 0
  Multiplicity = 1
  Basis Set: AUG-CC-PVTZ
    Blend: AUG-CC-PVTZ
  Basis Set: (AUG-CC-PVTZ AUX)
    Blend: AUG-CC-PVTZ-JKFIT

    Orbital Energies [Eh]
    ---------------------

    Doubly Occupied:

       1A    -20.557023     2A    -20.548218     3A    -11.344690
       4A    -11.337753     5A    -11.257783     6A    -11.251446
       7A    -11.236990     8A    -11.235190     9A    -11.217624
      10A    -11.200746    11A     -1.391202    12A     -1.377927
      13A     -1.107342    14A     -1.067856    15A     -1.022054
      16A     -0.972845    17A     -0.912663    18A     -0.837229
      19A     -0.769857    20A     -0.722798    21A     -0.686423
      22A     -0.674000    23A     -0.643473    24A     -0.627344
      25A     -0.624299    26A     -0.599710    27A     -0.593387
      28A     -0.578449    29A     -0.560653    30A     -0.547973
      31A     -0.536653    32A     -0.522014    33A     -0.509184
      34A     -0.506204    35A     -0.491506    36A     -0.483700
      37A     -0.482180    38A     -0.426596    39A     -0.407135

  @DF-RHF Final Energy:  -460.95780477227174

   => Energetics <=

    Nuclear Repulsion Energy =            552.1466674578500715
    One-Electron Energy =               -1722.4687061114755124
    Two-Electron Energy =                 709.3642338813536981
    Total Energy =                       -460.9578047722717429
  Basis Set: (AUG-CC-PVTZ AUX)
    Blend: AUG-CC-PVTZ-RI
    Molecular point group: c1

    Geometry (in Angstrom), charge = 0, multiplicity = 1:

       Center              X                  Y                   Z               Mass
    ------------   -----------------  -----------------  -----------------  -----------------
         O           -1.181905608877    -0.788205963860    -1.085677403215    15.994914619570
         O            2.231988391123    -0.802800963860    -0.725405403215    15.994914619570
         C            0.384475391123     0.273124036140     0.386885596785    12.000000000000
         C            0.840070391123     1.567340036140    -0.303105403215    12.000000000000
         C           -1.019901608877    -0.079417963860    -0.093819403215    12.000000000000
         C            1.317302391123    -0.899681963860     0.085942596785    12.000000000000
         C           -2.184248608877     0.505402036140     0.678640596785    12.000000000000
         C            2.092683391123     2.165083036140     0.331520596785    12.000000000000
         C            1.036413391123    -2.189275963860     0.822174596785    12.000000000000
         C           -3.523790608877     0.294779036140    -0.011689403215    12.000000000000
         H            0.356898391123     0.428724036140     1.476368596785     1.007825032230
         H            1.023250391123     1.334024036140    -1.355972403215     1.007825032230
         H            0.026113391123     2.301881036140    -0.267563403215     1.007825032230
         H           -1.985311608877     1.570057036140     0.856055596785     1.007825032230
         H           -2.174400608877     0.038500036140     1.674109596785     1.007825032230
         H            2.930087391123     1.469310036140     0.257765596785     1.007825032230
         H            2.376333391123     3.091528036140    -0.176317403215     1.007825032230
         H            1.922497391123     2.400393036140     1.387263596785     1.007825032230
         H           -3.714509608877    -0.768715963860    -0.165781403215     1.007825032230
         H           -3.532344608877     0.776255036140    -0.991947403215     1.007825032230
         H           -4.186956108877     0.637189836140     0.478707396785     1.007825032230
         H            0.917153391123    -2.011150963860     1.895581596785     1.007825032230
         H            1.855054391123    -2.888921963860     0.648528596785     1.007825032230
         H            0.106027391123    -2.624311963860     0.444506596785     1.007825032230

  Basis Set: AUG-CC-PVTZ
    Blend: AUG-CC-PVTZ
  Basis Set: (AUG-CC-PVTZ AUX)
    Blend: AUG-CC-PVTZ-JKFIT
	 Reference Energy          =    -460.9578047722717429 [Eh]
	 Singles Energy            =      -0.0000000000000000 [Eh]
	 Same-Spin Energy          =      -0.4690749491711185 [Eh]
	 Opposite-Spin Energy      =      -1.5681556015315410 [Eh]
	 Correlation Energy        =      -2.0372305507026596 [Eh]
	 Total Energy              =    -462.9950353229743882 [Eh]

	 ================> DF-SCS-MP2 Energies <==================
	-----------------------------------------------------------
	 SCS Same-Spin Scale       =       0.3333333333333333 [-]
	 SCS Opposite-Spin Scale   =       1.2000000000000000 [-]
	 SCS Same-Spin Energy      =      -0.1563583163903728 [Eh]
	 SCS Opposite-Spin Energy  =      -1.8817867218378490 [Eh]
	 SCS Correlation Energy    =      -2.0381450382282220 [Eh]
	 SCS Total Energy          =    -462.9959498104999511 [Eh]
	-----------------------------------------------------------

  Dipole Moment: [D]
     X:    -1.8747      Y:     1.4385      Z:     3.6236     Total:     4.3260

*** Psi4 exiting successfully. Buy a developer a beer!
