                               Psi4 1.4a3.dev225

  ==> Input File <==

--------------------------------------------------------------------------
#psi4
#
memory 32 gb

molecule  {
0 1
  O       -1.1540860    -0.8257380    -1.1262130
  O        2.2598080    -0.8403330    -0.7659410
  C        0.4122950     0.2355920     0.3463500
  C        0.8678900     1.5298080    -0.3436410
  C       -0.9920820    -0.1169500    -0.1343550
  C        1.3451220    -0.9372140     0.0454070
  C       -2.1564290     0.4678700     0.6381050
  C        2.1205030     2.1275510     0.2909850
  C        1.0642330    -2.2268080     0.7816390
  C       -3.4959710     0.2572470    -0.0522250
  H        0.3847180     0.3911920     1.4358330
  H        1.0510700     1.2964920    -1.3965080
  H        0.0539330     2.2643490    -0.3080990
  H       -1.9574920     1.5325250     0.8155200
  H       -2.1465810     0.0009680     1.6335740
  H        2.9579070     1.4317780     0.2172300
  H        2.4041530     3.0539960    -0.2168530
  H        1.9503170     2.3628610     1.3467280
  H       -3.6866900    -0.8062480    -0.2063170
  H       -3.5045250     0.7387230    -1.0324830
  H       -4.3076550     0.6763420     0.5479980
  H        0.8587778    -1.9783356     1.8276809
  H        1.8828740    -2.9264540     0.6079930
  H        0.1338470    -2.6618440     0.4039710
units angstrom
no_reorient  #important for SAPT in psi4, default
symmetry c1  #important for SAPT in psi4, default
}

set PROPERTIES_ORIGIN ["COM"]
properties('MP2/aug-cc-pvtz', properties = ['dipole'])
--------------------------------------------------------------------------

    Molecular point group: c1
  Charge       = 0
  Multiplicity = 1
  Basis Set: AUG-CC-PVTZ
    Blend: AUG-CC-PVTZ
  Basis Set: (AUG-CC-PVTZ AUX)
    Blend: AUG-CC-PVTZ-JKFIT

    Orbital Energies [Eh]
    ---------------------

    Doubly Occupied:

       1A    -20.558284     2A    -20.547892     3A    -11.345980
       4A    -11.337477     5A    -11.258727     6A    -11.253081
       7A    -11.237591     8A    -11.236287     9A    -11.226069
      10A    -11.217990    11A     -1.392331    12A     -1.378074
      13A     -1.107889    14A     -1.060897    15A     -1.023611
      16A     -0.969662    17A     -0.894815    18A     -0.837291
      19A     -0.768356    20A     -0.722964    21A     -0.683238
      22A     -0.673410    23A     -0.644045    24A     -0.627593
      25A     -0.623134    26A     -0.599708    27A     -0.588338
      28A     -0.568127    29A     -0.560189    30A     -0.539074
      31A     -0.535081    32A     -0.522514    33A     -0.510085
      34A     -0.507167    35A     -0.491798    36A     -0.483584
      37A     -0.482533    38A     -0.426982    39A     -0.406899

  @DF-RHF Final Energy:  -460.99090217967364

   => Energetics <=

    Nuclear Repulsion Energy =            551.2940452625331318
    One-Electron Energy =               -1720.8723561161691578
    Two-Electron Energy =                 708.5874086739625000
    Total Energy =                       -460.9909021796736397
  Basis Set: (AUG-CC-PVTZ AUX)
    Blend: AUG-CC-PVTZ-RI
    Molecular point group: c1

    Geometry (in Angstrom), charge = 0, multiplicity = 1:

       Center              X                  Y                   Z               Mass
    ------------   -----------------  -----------------  -----------------  -----------------
         O           -1.180240926436    -0.789248770151    -1.086262249967    15.994914619570
         O            2.233653073564    -0.803843770151    -0.725990249967    15.994914619570
         C            0.386140073564     0.272081229849     0.386300750033    12.000000000000
         C            0.841735073564     1.566297229849    -0.303690249967    12.000000000000
         C           -1.018236926436    -0.080460770151    -0.094404249967    12.000000000000
         C            1.318967073564    -0.900724770151     0.085357750033    12.000000000000
         C           -2.182583926436     0.504359229849     0.678055750033    12.000000000000
         C            2.094348073564     2.164040229849     0.330935750033    12.000000000000
         C            1.038078073564    -2.190318770151     0.821589750033    12.000000000000
         C           -3.522125926436     0.293736229849    -0.012274249967    12.000000000000
         H            0.358563073564     0.427681229849     1.475783750033     1.007825032230
         H            1.024915073564     1.332981229849    -1.356557249967     1.007825032230
         H            0.027778073564     2.300838229849    -0.268148249967     1.007825032230
         H           -1.983646926436     1.569014229849     0.855470750033     1.007825032230
         H           -2.172735926436     0.037457229849     1.673524750033     1.007825032230
         H            2.931752073564     1.468267229849     0.257180750033     1.007825032230
         H            2.377998073564     3.090485229849    -0.176902249967     1.007825032230
         H            1.924162073564     2.399350229849     1.386678750033     1.007825032230
         H           -3.712844926436    -0.769758770151    -0.166366249967     1.007825032230
         H           -3.530679926436     0.775212229849    -0.992532249967     1.007825032230
         H           -4.333809926436     0.712831229849     0.587948750033     1.007825032230
         H            0.832622873564    -1.941846370151     1.867631650033     1.007825032230
         H            1.856719073564    -2.889964770151     0.647943750033     1.007825032230
         H            0.107692073564    -2.625354770151     0.443921750033     1.007825032230

  Basis Set: AUG-CC-PVTZ
    Blend: AUG-CC-PVTZ
  Basis Set: (AUG-CC-PVTZ AUX)
    Blend: AUG-CC-PVTZ-JKFIT
	 Reference Energy          =    -460.9909021796736397 [Eh]
	 Singles Energy            =      -0.0000000000000000 [Eh]
	 Same-Spin Energy          =      -0.4689955919070563 [Eh]
	 Opposite-Spin Energy      =      -1.5688669882528781 [Eh]
	 Correlation Energy        =      -2.0378625801599344 [Eh]
	 Total Energy              =    -463.0287647598335639 [Eh]

	 ================> DF-SCS-MP2 Energies <==================
	-----------------------------------------------------------
	 SCS Same-Spin Scale       =       0.3333333333333333 [-]
	 SCS Opposite-Spin Scale   =       1.2000000000000000 [-]
	 SCS Same-Spin Energy      =      -0.1563318639690187 [Eh]
	 SCS Opposite-Spin Energy  =      -1.8826403859034535 [Eh]
	 SCS Correlation Energy    =      -2.0389722498724723 [Eh]
	 SCS Total Energy          =    -463.0298744295461120 [Eh]
	-----------------------------------------------------------

  Dipole Moment: [D]
     X:    -1.8116      Y:     1.4129      Z:     3.5673     Total:     4.2431

*** Psi4 exiting successfully. Buy a developer a beer!
