                               Psi4 1.4a3.dev225

  ==> Input File <==

--------------------------------------------------------------------------
#psi4
#
memory 32 gb

molecule  {
0 1
  O       -1.1540860    -0.8257380    -1.1262130
  O        2.2598080    -0.8403330    -0.7659410
  C        0.4122950     0.2355920     0.3463500
  C        0.8678900     1.5298080    -0.3436410
  C       -0.9920820    -0.1169500    -0.1343550
  C        1.3451220    -0.9372140     0.0454070
  C       -2.1564290     0.4678700     0.6381050
  C        2.1205030     2.1275510     0.2909850
  C        1.0642330    -2.2268080     0.7816390
  C       -3.4959710     0.2572470    -0.0522250
  H        0.3847180     0.3911920     1.4358330
  H        1.0510700     1.2964920    -1.3965080
  H        0.0539330     2.2643490    -0.3080990
  H       -1.9574920     1.5325250     0.8155200
  H       -2.1465810     0.0009680     1.6335740
  H        2.9579070     1.4317780     0.2172300
  H        2.4041530     3.0539960    -0.2168530
  H        1.9503170     2.3628610     1.3467280
  H       -3.5894171    -0.8088855    -0.2661618
  H       -3.5045250     0.7387230    -1.0324830
  H       -4.3076550     0.6763420     0.5479980
  H        0.9449730    -2.0486830     1.8550460
  H        1.8828740    -2.9264540     0.6079930
  H        0.1338470    -2.6618440     0.4039710
units angstrom
no_reorient  #important for SAPT in psi4, default
symmetry c1  #important for SAPT in psi4, default
}

set PROPERTIES_ORIGIN ["COM"]
properties('MP2/aug-cc-pvtz', properties = ['dipole'])
--------------------------------------------------------------------------

    Molecular point group: c1
  Charge       = 0
  Multiplicity = 1
  Basis Set: AUG-CC-PVTZ
    Blend: AUG-CC-PVTZ
  Basis Set: (AUG-CC-PVTZ AUX)
    Blend: AUG-CC-PVTZ-JKFIT

    Orbital Energies [Eh]
    ---------------------

    Doubly Occupied:

       1A    -20.558648     2A    -20.548900     3A    -11.346277
       4A    -11.338430     5A    -11.258693     6A    -11.252095
       7A    -11.237542     8A    -11.235780     9A    -11.225508
      10A    -11.218043    11A     -1.392892    12A     -1.378769
      13A     -1.107724    14A     -1.061139    15A     -1.022602
      16A     -0.969763    17A     -0.893862    18A     -0.837632
      19A     -0.768430    20A     -0.723631    21A     -0.684472
      22A     -0.673654    23A     -0.643331    24A     -0.625257
      25A     -0.624634    26A     -0.599126    27A     -0.591723
      28A     -0.569972    29A     -0.556653    30A     -0.538280
      31A     -0.537625    32A     -0.519971    33A     -0.507850
      34A     -0.506861    35A     -0.491632    36A     -0.484450
      37A     -0.483004    38A     -0.427522    39A     -0.407609

  @DF-RHF Final Energy:  -460.99077703826674

   => Energetics <=

    Nuclear Repulsion Energy =            551.3015654529565381
    One-Electron Energy =               -1720.8847133852571005
    Two-Electron Energy =                 708.5923708940338202
    Total Energy =                       -460.9907770382667422
  Basis Set: (AUG-CC-PVTZ AUX)
    Blend: AUG-CC-PVTZ-RI
    Molecular point group: c1

    Geometry (in Angstrom), charge = 0, multiplicity = 1:

       Center              X                  Y                   Z               Mass
    ------------   -----------------  -----------------  -----------------  -----------------
         O           -1.181542154803    -0.788731132359    -1.086031891082    15.994914619570
         O            2.232351845197    -0.803326132359    -0.725759891082    15.994914619570
         C            0.384838845197     0.272598867641     0.386531108918    12.000000000000
         C            0.840433845197     1.566814867641    -0.303459891082    12.000000000000
         C           -1.019538154803    -0.079943132359    -0.094173891082    12.000000000000
         C            1.317665845197    -0.900207132359     0.085588108918    12.000000000000
         C           -2.183885154803     0.504876867641     0.678286108918    12.000000000000
         C            2.093046845197     2.164557867641     0.331166108918    12.000000000000
         C            1.036776845197    -2.189801132359     0.821820108918    12.000000000000
         C           -3.523427154803     0.294253867641    -0.012043891082    12.000000000000
         H            0.357261845197     0.428198867641     1.476014108918     1.007825032230
         H            1.023613845197     1.333498867641    -1.356326891082     1.007825032230
         H            0.026476845197     2.301355867641    -0.267917891082     1.007825032230
         H           -1.984948154803     1.569531867641     0.855701108918     1.007825032230
         H           -2.174037154803     0.037974867641     1.673755108918     1.007825032230
         H            2.930450845197     1.468784867641     0.257411108918     1.007825032230
         H            2.376696845197     3.091002867641    -0.176671891082     1.007825032230
         H            1.922860845197     2.399867867641     1.386909108918     1.007825032230
         H           -3.616873254803    -0.771878632359    -0.225980691082     1.007825032230
         H           -3.531981154803     0.775729867641    -0.992301891082     1.007825032230
         H           -4.335111154803     0.713348867641     0.588179108918     1.007825032230
         H            0.917516845197    -2.011676132359     1.895227108918     1.007825032230
         H            1.855417845197    -2.889447132359     0.648174108918     1.007825032230
         H            0.106390845197    -2.624837132359     0.444152108918     1.007825032230

  Basis Set: AUG-CC-PVTZ
    Blend: AUG-CC-PVTZ
  Basis Set: (AUG-CC-PVTZ AUX)
    Blend: AUG-CC-PVTZ-JKFIT
	 Reference Energy          =    -460.9907770382667422 [Eh]
	 Singles Energy            =      -0.0000000000000000 [Eh]
	 Same-Spin Energy          =      -0.4689983156392665 [Eh]
	 Opposite-Spin Energy      =      -1.5688657017844352 [Eh]
	 Correlation Energy        =      -2.0378640174237015 [Eh]
	 Total Energy              =    -463.0286410556904571 [Eh]

	 ================> DF-SCS-MP2 Energies <==================
	-----------------------------------------------------------
	 SCS Same-Spin Scale       =       0.3333333333333333 [-]
	 SCS Opposite-Spin Scale   =       1.2000000000000000 [-]
	 SCS Same-Spin Energy      =      -0.1563327718797555 [Eh]
	 SCS Opposite-Spin Energy  =      -1.8826388421413220 [Eh]
	 SCS Correlation Energy    =      -2.0389716140210776 [Eh]
	 SCS Total Energy          =    -463.0297486522878216 [Eh]
	-----------------------------------------------------------

  Dipole Moment: [D]
     X:    -1.7385      Y:     1.4191      Z:     3.5693     Total:     4.2162

*** Psi4 exiting successfully. Buy a developer a beer!
