                               Psi4 1.4a3.dev225

  ==> Input File <==

--------------------------------------------------------------------------
#psi4
#
memory 32 gb

molecule  {
0 1
  O       -1.1540860    -0.8257380    -1.1262130
  O        2.2598080    -0.8403330    -0.7659410
  C        0.4122950     0.2355920     0.3463500
  C        0.8678900     1.5298080    -0.3436410
  C       -0.8987978    -0.0638841    -0.0176497
  C        1.3451220    -0.9372140     0.0454070
  C       -2.1564290     0.4678700     0.6381050
  C        2.1205030     2.1275510     0.2909850
  C        1.0642330    -2.2268080     0.7816390
  C       -3.4959710     0.2572470    -0.0522250
  H        0.3847180     0.3911920     1.4358330
  H        1.0510700     1.2964920    -1.3965080
  H        0.0539330     2.2643490    -0.3080990
  H       -1.9574920     1.5325250     0.8155200
  H       -2.1465810     0.0009680     1.6335740
  H        2.9579070     1.4317780     0.2172300
  H        2.4041530     3.0539960    -0.2168530
  H        1.9503170     2.3628610     1.3467280
  H       -3.6866900    -0.8062480    -0.2063170
  H       -3.5045250     0.7387230    -1.0324830
  H       -4.3076550     0.6763420     0.5479980
  H        0.9449730    -2.0486830     1.8550460
  H        1.8828740    -2.9264540     0.6079930
  H        0.1338470    -2.6618440     0.4039710
units angstrom
no_reorient  #important for SAPT in psi4, default
symmetry c1  #important for SAPT in psi4, default
}

set PROPERTIES_ORIGIN ["COM"]
properties('MP2/aug-cc-pvtz', properties = ['dipole'])
--------------------------------------------------------------------------

    Molecular point group: c1
  Charge       = 0
  Multiplicity = 1
  Basis Set: AUG-CC-PVTZ
    Blend: AUG-CC-PVTZ
  Basis Set: (AUG-CC-PVTZ AUX)
    Blend: AUG-CC-PVTZ-JKFIT

    Orbital Energies [Eh]
    ---------------------

    Doubly Occupied:

       1A    -20.553469     2A    -20.543196     3A    -11.354909
       4A    -11.345532     5A    -11.262682     6A    -11.258883
       7A    -11.247625     8A    -11.237451     9A    -11.226714
      10A    -11.223798    11A     -1.385749    12A     -1.308780
      13A     -1.130247    14A     -1.060196    15A     -1.028416
      16A     -0.986960    17A     -0.900631    18A     -0.847069
      19A     -0.786912    20A     -0.723199    21A     -0.683282
      22A     -0.670076    23A     -0.646046    24A     -0.628814
      25A     -0.603668    26A     -0.596629    27A     -0.593893
      28A     -0.565943    29A     -0.560578    30A     -0.541253
      31A     -0.529497    32A     -0.513828    33A     -0.510785
      34A     -0.504654    35A     -0.494868    36A     -0.487303
      37A     -0.444288    38A     -0.429690    39A     -0.415965

  @DF-RHF Final Energy:  -460.94314360670285

   => Energetics <=

    Nuclear Repulsion Energy =            551.0854695020331064
    One-Electron Energy =               -1720.3902698575548129
    Two-Electron Energy =                 708.3616567488189730
    Total Energy =                       -460.9431436067028471
  Basis Set: (AUG-CC-PVTZ AUX)
    Blend: AUG-CC-PVTZ-RI
    Molecular point group: c1

    Geometry (in Angstrom), charge = 0, multiplicity = 1:

       Center              X                  Y                   Z               Mass
    ------------   -----------------  -----------------  -----------------  -----------------
         O           -1.188729915501    -0.793231144533    -1.096311856348    15.994914619570
         O            2.225164084499    -0.807826144533    -0.736039856348    15.994914619570
         C            0.377651084499     0.268098855467     0.376251143652    12.000000000000
         C            0.833246084499     1.562314855467    -0.313739856348    12.000000000000
         C           -0.933441715501    -0.031377244533     0.012251443652    12.000000000000
         C            1.310478084499    -0.904707144533     0.075308143652    12.000000000000
         C           -2.191072915501     0.500376855467     0.668006143652    12.000000000000
         C            2.085859084499     2.160057855467     0.320886143652    12.000000000000
         C            1.029589084499    -2.194301144533     0.811540143652    12.000000000000
         C           -3.530614915501     0.289753855467    -0.022323856348    12.000000000000
         H            0.350074084499     0.423698855467     1.465734143652     1.007825032230
         H            1.016426084499     1.328998855467    -1.366606856348     1.007825032230
         H            0.019289084499     2.296855855467    -0.278197856348     1.007825032230
         H           -1.992135915501     1.565031855467     0.845421143652     1.007825032230
         H           -2.181224915501     0.033474855467     1.663475143652     1.007825032230
         H            2.923263084499     1.464284855467     0.247131143652     1.007825032230
         H            2.369509084499     3.086502855467    -0.186951856348     1.007825032230
         H            1.915673084499     2.395367855467     1.376629143652     1.007825032230
         H           -3.721333915501    -0.773741144533    -0.176415856348     1.007825032230
         H           -3.539168915501     0.771229855467    -1.002581856348     1.007825032230
         H           -4.342298915501     0.708848855467     0.577899143652     1.007825032230
         H            0.910329084499    -2.016176144533     1.884947143652     1.007825032230
         H            1.848230084499    -2.893947144533     0.637894143652     1.007825032230
         H            0.099203084499    -2.629337144533     0.433872143652     1.007825032230

  Basis Set: AUG-CC-PVTZ
    Blend: AUG-CC-PVTZ
  Basis Set: (AUG-CC-PVTZ AUX)
    Blend: AUG-CC-PVTZ-JKFIT
	 Reference Energy          =    -460.9431436067028471 [Eh]
	 Singles Energy            =      -0.0000000000000000 [Eh]
	 Same-Spin Energy          =      -0.4744825445578618 [Eh]
	 Opposite-Spin Energy      =      -1.5795803996412021 [Eh]
	 Correlation Energy        =      -2.0540629441990639 [Eh]
	 Total Energy              =    -462.9972065509019217 [Eh]

	 ================> DF-SCS-MP2 Energies <==================
	-----------------------------------------------------------
	 SCS Same-Spin Scale       =       0.3333333333333333 [-]
	 SCS Opposite-Spin Scale   =       1.2000000000000000 [-]
	 SCS Same-Spin Energy      =      -0.1581608481859539 [Eh]
	 SCS Opposite-Spin Energy  =      -1.8954964795694424 [Eh]
	 SCS Correlation Energy    =      -2.0536573277553964 [Eh]
	 SCS Total Energy          =    -462.9968009344582356 [Eh]
	-----------------------------------------------------------

  Dipole Moment: [D]
     X:    -1.2907      Y:     1.6612      Z:     3.8392     Total:     4.3778

*** Psi4 exiting successfully. Buy a developer a beer!
