                               Psi4 1.4a3.dev225

  ==> Input File <==

--------------------------------------------------------------------------
#psi4
#
memory 32 gb

molecule  {
0 1
  O       -1.1540860    -0.8257380    -1.1262130
  O        2.2598080    -0.8403330    -0.7659410
  C        0.4122950     0.2355920     0.3463500
  C        0.9143181     1.5265334    -0.3170448
  C       -0.9920820    -0.1169500    -0.1343550
  C        1.3451220    -0.9372140     0.0454070
  C       -2.1564290     0.4678700     0.6381050
  C        2.1205030     2.1275510     0.2909850
  C        1.0642330    -2.2268080     0.7816390
  C       -3.4959710     0.2572470    -0.0522250
  H        0.3847180     0.3911920     1.4358330
  H        1.0510700     1.2964920    -1.3965080
  H        0.0539330     2.2643490    -0.3080990
  H       -1.9574920     1.5325250     0.8155200
  H       -2.1465810     0.0009680     1.6335740
  H        2.9579070     1.4317780     0.2172300
  H        2.4041530     3.0539960    -0.2168530
  H        1.9503170     2.3628610     1.3467280
  H       -3.6866900    -0.8062480    -0.2063170
  H       -3.5045250     0.7387230    -1.0324830
  H       -4.3076550     0.6763420     0.5479980
  H        0.9449730    -2.0486830     1.8550460
  H        1.8828740    -2.9264540     0.6079930
  H        0.1338470    -2.6618440     0.4039710
units angstrom
no_reorient  #important for SAPT in psi4, default
symmetry c1  #important for SAPT in psi4, default
}

set PROPERTIES_ORIGIN ["COM"]
properties('MP2/aug-cc-pvtz', properties = ['dipole'])
--------------------------------------------------------------------------

    Molecular point group: c1
  Charge       = 0
  Multiplicity = 1
  Basis Set: AUG-CC-PVTZ
    Blend: AUG-CC-PVTZ
  Basis Set: (AUG-CC-PVTZ AUX)
    Blend: AUG-CC-PVTZ-JKFIT

    Orbital Energies [Eh]
    ---------------------

    Doubly Occupied:

       1A    -20.559341     2A    -20.548785     3A    -11.346870
       4A    -11.337904     5A    -11.258724     6A    -11.252957
       7A    -11.239832     8A    -11.235340     9A    -11.226023
      10A    -11.216270    11A     -1.393050    12A     -1.378774
      13A     -1.109210    14A     -1.061897    15A     -1.025377
      16A     -0.973579    17A     -0.895398    18A     -0.831762
      19A     -0.769068    20A     -0.723452    21A     -0.683950
      22A     -0.672800    23A     -0.644215    24A     -0.626028
      25A     -0.624083    26A     -0.598736    27A     -0.592051
      28A     -0.569879    29A     -0.558863    30A     -0.541145
      31A     -0.535531    32A     -0.522817    33A     -0.517838
      34A     -0.502375    35A     -0.491082    36A     -0.480426
      37A     -0.476065    38A     -0.429027    39A     -0.407161

  @DF-RHF Final Energy:  -460.98850909108961

   => Energetics <=

    Nuclear Repulsion Energy =            551.2835214127140944
    One-Electron Energy =               -1720.8286965232036891
    Two-Electron Energy =                 708.5566660194000406
    Total Energy =                       -460.9885090910896679
  Basis Set: (AUG-CC-PVTZ AUX)
    Blend: AUG-CC-PVTZ-RI
    Molecular point group: c1

    Geometry (in Angstrom), charge = 0, multiplicity = 1:

       Center              X                  Y                   Z               Mass
    ------------   -----------------  -----------------  -----------------  -----------------
         O           -1.184773014343    -0.788473305325    -1.088702328408    15.994914619570
         O            2.229120985657    -0.803068305325    -0.728430328408    15.994914619570
         C            0.381607985657     0.272856694675     0.383860671592    12.000000000000
         C            0.883631085657     1.563798094675    -0.279534128408    12.000000000000
         C           -1.022769014343    -0.079685305325    -0.096844328408    12.000000000000
         C            1.314434985657    -0.899949305325     0.082917671592    12.000000000000
         C           -2.187116014343     0.505134694675     0.675615671592    12.000000000000
         C            2.089815985657     2.164815694675     0.328495671592    12.000000000000
         C            1.033545985657    -2.189543305325     0.819149671592    12.000000000000
         C           -3.526658014343     0.294511694675    -0.014714328408    12.000000000000
         H            0.354030985657     0.428456694675     1.473343671592     1.007825032230
         H            1.020382985657     1.333756694675    -1.358997328408     1.007825032230
         H            0.023245985657     2.301613694675    -0.270588328408     1.007825032230
         H           -1.988179014343     1.569789694675     0.853030671592     1.007825032230
         H           -2.177268014343     0.038232694675     1.671084671592     1.007825032230
         H            2.927219985657     1.469042694675     0.254740671592     1.007825032230
         H            2.373465985657     3.091260694675    -0.179342328408     1.007825032230
         H            1.919629985657     2.400125694675     1.384238671592     1.007825032230
         H           -3.717377014343    -0.768983305325    -0.168806328408     1.007825032230
         H           -3.535212014343     0.775987694675    -0.994972328408     1.007825032230
         H           -4.338342014343     0.713606694675     0.585508671592     1.007825032230
         H            0.914285985657    -2.011418305325     1.892556671592     1.007825032230
         H            1.852186985657    -2.889189305325     0.645503671592     1.007825032230
         H            0.103159985657    -2.624579305325     0.441481671592     1.007825032230

  Basis Set: AUG-CC-PVTZ
    Blend: AUG-CC-PVTZ
  Basis Set: (AUG-CC-PVTZ AUX)
    Blend: AUG-CC-PVTZ-JKFIT
	 Reference Energy          =    -460.9885090910896110 [Eh]
	 Singles Energy            =      -0.0000000000000000 [Eh]
	 Same-Spin Energy          =      -0.4692095040092648 [Eh]
	 Opposite-Spin Energy      =      -1.5691554277867557 [Eh]
	 Correlation Energy        =      -2.0383649317960204 [Eh]
	 Total Energy              =    -463.0268740228856359 [Eh]

	 ================> DF-SCS-MP2 Energies <==================
	-----------------------------------------------------------
	 SCS Same-Spin Scale       =       0.3333333333333333 [-]
	 SCS Opposite-Spin Scale   =       1.2000000000000000 [-]
	 SCS Same-Spin Energy      =      -0.1564031680030882 [Eh]
	 SCS Opposite-Spin Energy  =      -1.8829865133441066 [Eh]
	 SCS Correlation Energy    =      -2.0393896813471950 [Eh]
	 SCS Total Energy          =    -463.0278987724367994 [Eh]
	-----------------------------------------------------------

  Dipole Moment: [D]
     X:    -1.7600      Y:     1.4063      Z:     3.5908     Total:     4.2390

*** Psi4 exiting successfully. Buy a developer a beer!
