                               Psi4 1.4a3.dev225

  ==> Input File <==

--------------------------------------------------------------------------
#psi4
#
memory 32 gb

molecule  {
0 1
  O       -1.1540860    -0.8257380    -1.1262130
  O        2.2544223    -0.8198875    -0.7692889
  C        0.4122950     0.2355920     0.3463500
  C        0.8678900     1.5298080    -0.3436410
  C       -0.9920820    -0.1169500    -0.1343550
  C        1.3451220    -0.9372140     0.0454070
  C       -2.1564290     0.4678700     0.6381050
  C        2.1205030     2.1275510     0.2909850
  C        1.0642330    -2.2268080     0.7816390
  C       -3.4959710     0.2572470    -0.0522250
  H        0.3847180     0.3911920     1.4358330
  H        1.0510700     1.2964920    -1.3965080
  H        0.0539330     2.2643490    -0.3080990
  H       -1.9574920     1.5325250     0.8155200
  H       -2.1465810     0.0009680     1.6335740
  H        2.9579070     1.4317780     0.2172300
  H        2.4041530     3.0539960    -0.2168530
  H        1.9503170     2.3628610     1.3467280
  H       -3.6866900    -0.8062480    -0.2063170
  H       -3.5045250     0.7387230    -1.0324830
  H       -4.3076550     0.6763420     0.5479980
  H        0.9449730    -2.0486830     1.8550460
  H        1.8828740    -2.9264540     0.6079930
  H        0.1338470    -2.6618440     0.4039710
units angstrom
no_reorient  #important for SAPT in psi4, default
symmetry c1  #important for SAPT in psi4, default
}

set PROPERTIES_ORIGIN ["COM"]
properties('MP2/aug-cc-pvtz', properties = ['dipole'])
--------------------------------------------------------------------------

    Molecular point group: c1
  Charge       = 0
  Multiplicity = 1
  Basis Set: AUG-CC-PVTZ
    Blend: AUG-CC-PVTZ
  Basis Set: (AUG-CC-PVTZ AUX)
    Blend: AUG-CC-PVTZ-JKFIT

    Orbital Energies [Eh]
    ---------------------

    Doubly Occupied:

       1A    -20.557872     2A    -20.548839     3A    -11.345469
       4A    -11.338472     5A    -11.257645     6A    -11.252567
       7A    -11.236883     8A    -11.236787     9A    -11.225715
      10A    -11.217507    11A     -1.392157    12A     -1.378672
      13A     -1.106941    14A     -1.060376    15A     -1.023063
      16A     -0.969535    17A     -0.894456    18A     -0.837158
      19A     -0.768348    20A     -0.723123    21A     -0.682894
      22A     -0.673495    23A     -0.644165    24A     -0.626271
      25A     -0.622933    26A     -0.599121    27A     -0.592046
      28A     -0.567832    29A     -0.556504    30A     -0.537629
      31A     -0.534785    32A     -0.522448    33A     -0.509649
      34A     -0.506743    35A     -0.492099    36A     -0.483910
      37A     -0.482474    38A     -0.427291    39A     -0.407171

  @DF-RHF Final Energy:  -460.99199696798257

   => Energetics <=

    Nuclear Repulsion Energy =            551.2843714953265817
    One-Electron Energy =               -1720.8706457625182793
    Two-Electron Energy =                 708.5942772992090113
    Total Energy =                       -460.9919969679825726
  Basis Set: (AUG-CC-PVTZ AUX)
    Blend: AUG-CC-PVTZ-RI
    Molecular point group: c1

    Geometry (in Angstrom), charge = 0, multiplicity = 1:

       Center              X                  Y                   Z               Mass
    ------------   -----------------  -----------------  -----------------  -----------------
         O           -1.180246034612    -0.791051214023    -1.086079489550    15.994914619570
         O            2.228262265388    -0.785200714023    -0.729155389550    15.994914619570
         C            0.386134965388     0.270278785977     0.386483510450    12.000000000000
         C            0.841729965388     1.564494785977    -0.303507489550    12.000000000000
         C           -1.018242034612    -0.082263214023    -0.094221489550    12.000000000000
         C            1.318961965388    -0.902527214023     0.085540510450    12.000000000000
         C           -2.182589034612     0.502556785977     0.678238510450    12.000000000000
         C            2.094342965388     2.162237785977     0.331118510450    12.000000000000
         C            1.038072965388    -2.192121214023     0.821772510450    12.000000000000
         C           -3.522131034612     0.291933785977    -0.012091489550    12.000000000000
         H            0.358557965388     0.425878785977     1.475966510450     1.007825032230
         H            1.024909965388     1.331178785977    -1.356374489550     1.007825032230
         H            0.027772965388     2.299035785977    -0.267965489550     1.007825032230
         H           -1.983652034612     1.567211785977     0.855653510450     1.007825032230
         H           -2.172741034612     0.035654785977     1.673707510450     1.007825032230
         H            2.931746965388     1.466464785977     0.257363510450     1.007825032230
         H            2.377992965388     3.088682785977    -0.176719489550     1.007825032230
         H            1.924156965388     2.397547785977     1.386861510450     1.007825032230
         H           -3.712850034612    -0.771561214023    -0.166183489550     1.007825032230
         H           -3.530685034612     0.773409785977    -0.992349489550     1.007825032230
         H           -4.333815034612     0.711028785977     0.588131510450     1.007825032230
         H            0.918812965388    -2.013996214023     1.895179510450     1.007825032230
         H            1.856713965388    -2.891767214023     0.648126510450     1.007825032230
         H            0.107686965388    -2.627157214023     0.444104510450     1.007825032230

  Basis Set: AUG-CC-PVTZ
    Blend: AUG-CC-PVTZ
  Basis Set: (AUG-CC-PVTZ AUX)
    Blend: AUG-CC-PVTZ-JKFIT
	 Reference Energy          =    -460.9919969679825726 [Eh]
	 Singles Energy            =      -0.0000000000000000 [Eh]
	 Same-Spin Energy          =      -0.4688970424672763 [Eh]
	 Opposite-Spin Energy      =      -1.5687468118177412 [Eh]
	 Correlation Energy        =      -2.0376438542850175 [Eh]
	 Total Energy              =    -463.0296408222675950 [Eh]

	 ================> DF-SCS-MP2 Energies <==================
	-----------------------------------------------------------
	 SCS Same-Spin Scale       =       0.3333333333333333 [-]
	 SCS Opposite-Spin Scale   =       1.2000000000000000 [-]
	 SCS Same-Spin Energy      =      -0.1562990141557588 [Eh]
	 SCS Opposite-Spin Energy  =      -1.8824961741812893 [Eh]
	 SCS Correlation Energy    =      -2.0387951883370481 [Eh]
	 SCS Total Energy          =    -463.0307921563196487 [Eh]
	-----------------------------------------------------------

  Dipole Moment: [D]
     X:    -1.7532      Y:     1.3516      Z:     3.5996     Total:     4.2258

*** Psi4 exiting successfully. Buy a developer a beer!
