                               Psi4 1.4a3.dev225

  ==> Input File <==

--------------------------------------------------------------------------
#psi4
#
memory 32 gb

molecule  {
0 1
  O       -1.1540860    -0.8257380    -1.1262130
  O        2.2598080    -0.8403330    -0.7659410
  C        0.4122950     0.2355920     0.3463500
  C        0.8678900     1.5298080    -0.3436410
  C       -0.9920820    -0.1169500    -0.1343550
  C        1.3451220    -0.9372140     0.0454070
  C       -2.1564290     0.4678700     0.6381050
  C        2.1205030     2.1275510     0.2909850
  C        1.0642330    -2.2268080     0.7816390
  C       -3.4959710     0.2572470    -0.0522250
  H        0.3847180     0.3911920     1.4358330
  H        1.0510700     1.2964920    -1.3965080
  H        0.0539330     2.2643490    -0.3080990
  H       -1.9574920     1.5325250     0.8155200
  H       -2.1465810     0.0009680     1.6335740
  H        2.9579070     1.4317780     0.2172300
  H        2.4041530     3.0539960    -0.2168530
  H        1.9503170     2.3628610     1.3467280
  H       -3.6866900    -0.8062480    -0.2063170
  H       -3.5045250     0.7387230    -1.0324830
  H       -4.3225068     0.6840104     0.5589806
  H        0.9449730    -2.0486830     1.8550460
  H        1.8828740    -2.9264540     0.6079930
  H        0.1338470    -2.6618440     0.4039710
units angstrom
no_reorient  #important for SAPT in psi4, default
symmetry c1  #important for SAPT in psi4, default
}

set PROPERTIES_ORIGIN ["COM"]
properties('MP2/aug-cc-pvtz', properties = ['dipole'])
--------------------------------------------------------------------------

    Molecular point group: c1
  Charge       = 0
  Multiplicity = 1
  Basis Set: AUG-CC-PVTZ
    Blend: AUG-CC-PVTZ
  Basis Set: (AUG-CC-PVTZ AUX)
    Blend: AUG-CC-PVTZ-JKFIT

    Orbital Energies [Eh]
    ---------------------

    Doubly Occupied:

       1A    -20.558339     2A    -20.548856     3A    -11.346057
       4A    -11.338401     5A    -11.258667     6A    -11.253069
       7A    -11.237589     8A    -11.235715     9A    -11.228398
      10A    -11.218068    11A     -1.392497    12A     -1.378666
      13A     -1.107700    14A     -1.060357    15A     -1.022562
      16A     -0.969490    17A     -0.893438    18A     -0.837662
      19A     -0.768604    20A     -0.723471    21A     -0.682983
      22A     -0.673312    23A     -0.644444    24A     -0.626133
      25A     -0.623104    26A     -0.599151    27A     -0.591767
      28A     -0.567811    29A     -0.556233    30A     -0.537792
      31A     -0.532692    32A     -0.522409    33A     -0.510165
      34A     -0.507009    35A     -0.492365    36A     -0.484379
      37A     -0.483006    38A     -0.427297    39A     -0.407517

  @DF-RHF Final Energy:  -460.99165494756193

   => Energetics <=

    Nuclear Repulsion Energy =            550.9985591320377125
    One-Electron Energy =               -1720.2860791726609477
    Two-Electron Energy =                 708.2958650930614795
    Total Energy =                       -460.9916549475618694
  Basis Set: (AUG-CC-PVTZ AUX)
    Blend: AUG-CC-PVTZ-RI
    Molecular point group: c1

    Geometry (in Angstrom), charge = 0, multiplicity = 1:

       Center              X                  Y                   Z               Mass
    ------------   -----------------  -----------------  -----------------  -----------------
         O           -1.180746922061    -0.788804225880    -1.086534227031    15.994914619570
         O            2.233147077939    -0.803399225880    -0.726262227031    15.994914619570
         C            0.385634077939     0.272525774120     0.386028772969    12.000000000000
         C            0.841229077939     1.566741774120    -0.303962227031    12.000000000000
         C           -1.018742922061    -0.080016225880    -0.094676227031    12.000000000000
         C            1.318461077939    -0.900280225880     0.085085772969    12.000000000000
         C           -2.183089922061     0.504803774120     0.677783772969    12.000000000000
         C            2.093842077939     2.164484774120     0.330663772969    12.000000000000
         C            1.037572077939    -2.189874225880     0.821317772969    12.000000000000
         C           -3.522631922061     0.294180774120    -0.012546227031    12.000000000000
         H            0.358057077939     0.428125774120     1.475511772969     1.007825032230
         H            1.024409077939     1.333425774120    -1.356829227031     1.007825032230
         H            0.027272077939     2.301282774120    -0.268420227031     1.007825032230
         H           -1.984152922061     1.569458774120     0.855198772969     1.007825032230
         H           -2.173241922061     0.037901774120     1.673252772969     1.007825032230
         H            2.931246077939     1.468711774120     0.256908772969     1.007825032230
         H            2.377492077939     3.090929774120    -0.177174227031     1.007825032230
         H            1.923656077939     2.399794774120     1.386406772969     1.007825032230
         H           -3.713350922061    -0.769314225880    -0.166638227031     1.007825032230
         H           -3.531185922061     0.775656774120    -0.992804227031     1.007825032230
         H           -4.349167722061     0.720944174120     0.598659372969     1.007825032230
         H            0.918312077939    -2.011749225880     1.894724772969     1.007825032230
         H            1.856213077939    -2.889520225880     0.647671772969     1.007825032230
         H            0.107186077939    -2.624910225880     0.443649772969     1.007825032230

  Basis Set: AUG-CC-PVTZ
    Blend: AUG-CC-PVTZ
  Basis Set: (AUG-CC-PVTZ AUX)
    Blend: AUG-CC-PVTZ-JKFIT
	 Reference Energy          =    -460.9916549475619263 [Eh]
	 Singles Energy            =      -0.0000000000000000 [Eh]
	 Same-Spin Energy          =      -0.4688321255964732 [Eh]
	 Opposite-Spin Energy      =      -1.5688189028880091 [Eh]
	 Correlation Energy        =      -2.0376510284844822 [Eh]
	 Total Energy              =    -463.0293059760464303 [Eh]

	 ================> DF-SCS-MP2 Energies <==================
	-----------------------------------------------------------
	 SCS Same-Spin Scale       =       0.3333333333333333 [-]
	 SCS Opposite-Spin Scale   =       1.2000000000000000 [-]
	 SCS Same-Spin Energy      =      -0.1562773751988244 [Eh]
	 SCS Opposite-Spin Energy  =      -1.8825826834656108 [Eh]
	 SCS Correlation Energy    =      -2.0388600586644352 [Eh]
	 SCS Total Energy          =    -463.0305150062263806 [Eh]
	-----------------------------------------------------------

  Dipole Moment: [D]
     X:    -1.7594      Y:     1.4060      Z:     3.5856     Total:     4.2342

*** Psi4 exiting successfully. Buy a developer a beer!
