                               Psi4 1.4a3.dev225

  ==> Input File <==

--------------------------------------------------------------------------
#psi4
#
memory 32 gb

molecule  {
0 1
  O       -1.1540860    -0.8257380    -1.1262130
  O        2.2598080    -0.8403330    -0.7659410
  C        0.4122950     0.2355920     0.3463500
  C        0.8678900     1.5298080    -0.3436410
  C       -0.9920820    -0.1169500    -0.1343550
  C        1.3451220    -0.9372140     0.0454070
  C       -2.1564290     0.4678700     0.6381050
  C        2.1205030     2.1275510     0.2909850
  C        1.0642330    -2.2268080     0.7816390
  C       -3.4959710     0.2572470    -0.0522250
  H        0.3847180     0.3911920     1.4358330
  H        1.0510700     1.2964920    -1.3965080
  H        0.0539330     2.2643490    -0.3080990
  H       -1.9574920     1.5325250     0.8155200
  H       -2.1465810     0.0009680     1.6335740
  H        2.9579070     1.4317780     0.2172300
  H        2.4041530     3.0539960    -0.2168530
  H        1.9503170     2.3628610     1.3467280
  H       -3.6866900    -0.8062480    -0.2063170
  H       -3.5045250     0.7387230    -1.0324830
  H       -4.2928032     0.6686736     0.5370154
  H        0.9449730    -2.0486830     1.8550460
  H        1.8828740    -2.9264540     0.6079930
  H        0.1338470    -2.6618440     0.4039710
units angstrom
no_reorient  #important for SAPT in psi4, default
symmetry c1  #important for SAPT in psi4, default
}

set PROPERTIES_ORIGIN ["COM"]
properties('MP2/aug-cc-pvtz', properties = ['dipole'])
--------------------------------------------------------------------------

    Molecular point group: c1
  Charge       = 0
  Multiplicity = 1
  Basis Set: AUG-CC-PVTZ
    Blend: AUG-CC-PVTZ
  Basis Set: (AUG-CC-PVTZ AUX)
    Blend: AUG-CC-PVTZ-JKFIT

    Orbital Energies [Eh]
    ---------------------

    Doubly Occupied:

       1A    -20.558033     2A    -20.548705     3A    -11.345724
       4A    -11.338247     5A    -11.258457     6A    -11.252681
       7A    -11.237445     8A    -11.235590     9A    -11.223421
      10A    -11.217962    11A     -1.392195    12A     -1.378493
      13A     -1.107550    14A     -1.061103    15A     -1.022435
      16A     -0.969790    17A     -0.896176    18A     -0.837549
      19A     -0.768691    20A     -0.723299    21A     -0.683315
      22A     -0.673388    23A     -0.644171    24A     -0.626013
      25A     -0.623292    26A     -0.599106    27A     -0.591835
      28A     -0.568573    29A     -0.556854    30A     -0.537788
      31A     -0.536901    32A     -0.522722    33A     -0.509936
      34A     -0.506823    35A     -0.492157    36A     -0.484216
      37A     -0.482815    38A     -0.427130    39A     -0.407418

  @DF-RHF Final Energy:  -460.99215876230824

   => Energetics <=

    Nuclear Repulsion Energy =            551.1831530750839647
    One-Electron Energy =               -1720.6546183610723801
    Two-Electron Energy =                 708.4793065236801795
    Total Energy =                       -460.9921587623082360
  Basis Set: (AUG-CC-PVTZ AUX)
    Blend: AUG-CC-PVTZ-RI
    Molecular point group: c1

    Geometry (in Angstrom), charge = 0, multiplicity = 1:

       Center              X                  Y                   Z               Mass
    ------------   -----------------  -----------------  -----------------  -----------------
         O           -1.180957591747    -0.788695451225    -1.086378441140    15.994914619570
         O            2.232936408253    -0.803290451225    -0.726106441140    15.994914619570
         C            0.385423408253     0.272634548775     0.386184558860    12.000000000000
         C            0.841018408253     1.566850548775    -0.303806441140    12.000000000000
         C           -1.018953591747    -0.079907451225    -0.094520441140    12.000000000000
         C            1.318250408253    -0.900171451225     0.085241558860    12.000000000000
         C           -2.183300591747     0.504912548775     0.677939558860    12.000000000000
         C            2.093631408253     2.164593548775     0.330819558860    12.000000000000
         C            1.037361408253    -2.189765451225     0.821473558860    12.000000000000
         C           -3.522842591747     0.294289548775    -0.012390441140    12.000000000000
         H            0.357846408253     0.428234548775     1.475667558860     1.007825032230
         H            1.024198408253     1.333534548775    -1.356673441140     1.007825032230
         H            0.027061408253     2.301391548775    -0.268264441140     1.007825032230
         H           -1.984363591747     1.569567548775     0.855354558860     1.007825032230
         H           -2.173452591747     0.038010548775     1.673408558860     1.007825032230
         H            2.931035408253     1.468820548775     0.257064558860     1.007825032230
         H            2.377281408253     3.091038548775    -0.177018441140     1.007825032230
         H            1.923445408253     2.399903548775     1.386562558860     1.007825032230
         H           -3.713561591747    -0.769205451225    -0.166482441140     1.007825032230
         H           -3.531396591747     0.775765548775    -0.992648441140     1.007825032230
         H           -4.319674791747     0.705716148775     0.576849958860     1.007825032230
         H            0.918101408253    -2.011640451225     1.894880558860     1.007825032230
         H            1.856002408253    -2.889411451225     0.647827558860     1.007825032230
         H            0.106975408253    -2.624801451225     0.443805558860     1.007825032230

  Basis Set: AUG-CC-PVTZ
    Blend: AUG-CC-PVTZ
  Basis Set: (AUG-CC-PVTZ AUX)
    Blend: AUG-CC-PVTZ-JKFIT
	 Reference Energy          =    -460.9921587623082360 [Eh]
	 Singles Energy            =      -0.0000000000000000 [Eh]
	 Same-Spin Energy          =      -0.4688613137581114 [Eh]
	 Opposite-Spin Energy      =      -1.5685870694777868 [Eh]
	 Correlation Energy        =      -2.0374483832358981 [Eh]
	 Total Energy              =    -463.0296071455441620 [Eh]

	 ================> DF-SCS-MP2 Energies <==================
	-----------------------------------------------------------
	 SCS Same-Spin Scale       =       0.3333333333333333 [-]
	 SCS Opposite-Spin Scale   =       1.2000000000000000 [-]
	 SCS Same-Spin Energy      =      -0.1562871045860371 [Eh]
	 SCS Opposite-Spin Energy  =      -1.8823044833733440 [Eh]
	 SCS Correlation Energy    =      -2.0385915879593810 [Eh]
	 SCS Total Energy          =    -463.0307503502676241 [Eh]
	-----------------------------------------------------------

  Dipole Moment: [D]
     X:    -1.7866      Y:     1.4140      Z:     3.5951     Total:     4.2563

*** Psi4 exiting successfully. Buy a developer a beer!
