                               Psi4 1.4a3.dev225

  ==> Input File <==

--------------------------------------------------------------------------
#psi4
#
memory 32 gb

molecule  {
0 1
  O       -1.1540860    -0.8257380    -1.1262130
  O        2.2598080    -0.8403330    -0.7659410
  C        0.4122950     0.2355920     0.3463500
  C        0.8678900     1.5298080    -0.3436410
  C       -0.9920820    -0.1169500    -0.1343550
  C        1.3451220    -0.9372140     0.0454070
  C       -2.1564290     0.4678700     0.6381050
  C        2.1205030     2.1275510     0.2909850
  C        1.0642330    -2.2268080     0.7816390
  C       -3.4959710     0.2572470    -0.0522250
  H        0.3847180     0.3911920     1.4358330
  H        1.0510700     1.2964920    -1.3965080
  H        0.0539330     2.2643490    -0.3080990
  H       -1.9574920     1.5325250     0.8155200
  H       -2.1465810     0.0009680     1.6335740
  H        2.9579070     1.4317780     0.2172300
  H        2.4041530     3.0539960    -0.2168530
  H        1.9503170     2.3628610     1.3467280
  H       -3.6866900    -0.8062480    -0.2063170
  H       -3.5045250     0.7387230    -1.0324830
  H       -4.2705254     0.6571709     0.5205414
  H        0.9449730    -2.0486830     1.8550460
  H        1.8828740    -2.9264540     0.6079930
  H        0.1338470    -2.6618440     0.4039710
units angstrom
no_reorient  #important for SAPT in psi4, default
symmetry c1  #important for SAPT in psi4, default
}

set PROPERTIES_ORIGIN ["COM"]
properties('MP2/aug-cc-pvtz', properties = ['dipole'])
--------------------------------------------------------------------------

    Molecular point group: c1
  Charge       = 0
  Multiplicity = 1
  Basis Set: AUG-CC-PVTZ
    Blend: AUG-CC-PVTZ
  Basis Set: (AUG-CC-PVTZ AUX)
    Blend: AUG-CC-PVTZ-JKFIT

    Orbital Energies [Eh]
    ---------------------

    Doubly Occupied:

       1A    -20.557824     2A    -20.548601     3A    -11.345499
       4A    -11.338143     5A    -11.258314     6A    -11.252417
       7A    -11.237348     8A    -11.235505     9A    -11.219636
      10A    -11.217889    11A     -1.391989    12A     -1.378375
      13A     -1.107459    14A     -1.061813    15A     -1.022350
      16A     -0.970087    17A     -0.898466    18A     -0.837475
      19A     -0.768799    20A     -0.723184    21A     -0.683640
      22A     -0.673464    23A     -0.643994    24A     -0.625976
      25A     -0.623475    26A     -0.599099    27A     -0.591933
      28A     -0.569463    29A     -0.557481    30A     -0.540316
      31A     -0.537244    32A     -0.522677    33A     -0.509772
      34A     -0.506693    35A     -0.492016    36A     -0.484106
      37A     -0.482684    38A     -0.427016    39A     -0.407352

  @DF-RHF Final Energy:  -460.99111412247896

   => Energetics <=

    Nuclear Repulsion Energy =            551.3277409460392846
    One-Electron Energy =               -1720.9385621210344652
    Two-Electron Energy =                 708.6197070525162189
    Total Energy =                       -460.9911141224789617
  Basis Set: (AUG-CC-PVTZ AUX)
    Blend: AUG-CC-PVTZ-RI
    Molecular point group: c1

    Geometry (in Angstrom), charge = 0, multiplicity = 1:

       Center              X                  Y                   Z               Mass
    ------------   -----------------  -----------------  -----------------  -----------------
         O           -1.181115594720    -0.788613869525    -1.086261601013    15.994914619570
         O            2.232778405280    -0.803208869525    -0.725989601013    15.994914619570
         C            0.385265405280     0.272716130475     0.386301398987    12.000000000000
         C            0.840860405280     1.566932130475    -0.303689601013    12.000000000000
         C           -1.019111594720    -0.079825869525    -0.094403601013    12.000000000000
         C            1.318092405280    -0.900089869525     0.085358398987    12.000000000000
         C           -2.183458594720     0.504994130475     0.678056398987    12.000000000000
         C            2.093473405280     2.164675130475     0.330936398987    12.000000000000
         C            1.037203405280    -2.189683869525     0.821590398987    12.000000000000
         C           -3.523000594720     0.294371130475    -0.012273601013    12.000000000000
         H            0.357688405280     0.428316130475     1.475784398987     1.007825032230
         H            1.024040405280     1.333616130475    -1.356556601013     1.007825032230
         H            0.026903405280     2.301473130475    -0.268147601013     1.007825032230
         H           -1.984521594720     1.569649130475     0.855471398987     1.007825032230
         H           -2.173610594720     0.038092130475     1.673525398987     1.007825032230
         H            2.930877405280     1.468902130475     0.257181398987     1.007825032230
         H            2.377123405280     3.091120130475    -0.176901601013     1.007825032230
         H            1.923287405280     2.399985130475     1.386679398987     1.007825032230
         H           -3.713719594720    -0.769123869525    -0.166365601013     1.007825032230
         H           -3.531554594720     0.775847130475    -0.992531601013     1.007825032230
         H           -4.297554994720     0.694295030475     0.560492798987     1.007825032230
         H            0.917943405280    -2.011558869525     1.894997398987     1.007825032230
         H            1.855844405280    -2.889329869525     0.647944398987     1.007825032230
         H            0.106817405280    -2.624719869525     0.443922398987     1.007825032230

  Basis Set: AUG-CC-PVTZ
    Blend: AUG-CC-PVTZ
  Basis Set: (AUG-CC-PVTZ AUX)
    Blend: AUG-CC-PVTZ-JKFIT
	 Reference Energy          =    -460.9911141224789617 [Eh]
	 Singles Energy            =      -0.0000000000000000 [Eh]
	 Same-Spin Energy          =      -0.4688856623036478 [Eh]
	 Opposite-Spin Energy      =      -1.5684387480862412 [Eh]
	 Correlation Energy        =      -2.0373244103898891 [Eh]
	 Total Energy              =    -463.0284385328688472 [Eh]

	 ================> DF-SCS-MP2 Energies <==================
	-----------------------------------------------------------
	 SCS Same-Spin Scale       =       0.3333333333333333 [-]
	 SCS Opposite-Spin Scale   =       1.2000000000000000 [-]
	 SCS Same-Spin Energy      =      -0.1562952207678826 [Eh]
	 SCS Opposite-Spin Energy  =      -1.8821264977034893 [Eh]
	 SCS Correlation Energy    =      -2.0384217184713718 [Eh]
	 SCS Total Energy          =    -463.0295358409503592 [Eh]
	-----------------------------------------------------------

  Dipole Moment: [D]
     X:    -1.8052      Y:     1.4194      Z:     3.6015     Total:     4.2713

*** Psi4 exiting successfully. Buy a developer a beer!
