                               Psi4 1.4a3.dev225

  ==> Input File <==

--------------------------------------------------------------------------
#psi4
#
memory 32 gb

molecule  {
0 1
  O       -1.1540860    -0.8257380    -1.1262130
  O        2.2598080    -0.8403330    -0.7659410
  C        0.4122950     0.2355920     0.3463500
  C        0.8678900     1.5298080    -0.3436410
  C       -0.9920820    -0.1169500    -0.1343550
  C        1.3451220    -0.9372140     0.0454070
  C       -2.1564290     0.4678700     0.6381050
  C        2.1205030     2.1275510     0.2909850
  C        1.0642330    -2.2268080     0.7816390
  C       -3.4959710     0.2572470    -0.0522250
  H        0.3847180     0.3911920     1.4358330
  H        1.0510700     1.2964920    -1.3965080
  H        0.0539330     2.2643490    -0.3080990
  H       -1.9574920     1.5325250     0.8155200
  H       -2.1465810     0.0009680     1.6335740
  H        2.9579070     1.4317780     0.2172300
  H        2.4041530     3.0539960    -0.2168530
  H        1.9503170     2.3628610     1.3467280
  H       -3.6866900    -0.8062480    -0.2063170
  H       -3.5045250     0.7387230    -1.0324830
  H       -4.3076550     0.6763420     0.5479980
  H        0.9558683    -2.0649560     1.7569823
  H        1.8828740    -2.9264540     0.6079930
  H        0.1338470    -2.6618440     0.4039710
units angstrom
no_reorient  #important for SAPT in psi4, default
symmetry c1  #important for SAPT in psi4, default
}

set PROPERTIES_ORIGIN ["COM"]
properties('MP2/aug-cc-pvtz', properties = ['dipole'])
--------------------------------------------------------------------------

    Molecular point group: c1
  Charge       = 0
  Multiplicity = 1
  Basis Set: AUG-CC-PVTZ
    Blend: AUG-CC-PVTZ
  Basis Set: (AUG-CC-PVTZ AUX)
    Blend: AUG-CC-PVTZ-JKFIT

    Orbital Energies [Eh]
    ---------------------

    Doubly Occupied:

       1A    -20.558145     2A    -20.547936     3A    -11.345863
       4A    -11.337390     5A    -11.258654     6A    -11.252945
       7A    -11.237553     8A    -11.225960     9A    -11.223219
      10A    -11.218014    11A     -1.392191    12A     -1.377906
      13A     -1.107926    14A     -1.060889    15A     -1.028688
      16A     -0.972562    17A     -0.895121    18A     -0.838447
      19A     -0.769271    20A     -0.725122    21A     -0.683042
      22A     -0.676785    23A     -0.644579    24A     -0.625826
      25A     -0.623332    26A     -0.603779    27A     -0.598473
      28A     -0.568790    29A     -0.557597    30A     -0.537633
      31A     -0.535668    32A     -0.522993    33A     -0.510100
      34A     -0.507576    35A     -0.492429    36A     -0.484806
      37A     -0.482618    38A     -0.426972    39A     -0.407065

  @DF-RHF Final Energy:  -460.98608335969737

   => Energetics <=

    Nuclear Repulsion Energy =            551.5577711862714523
    One-Electron Energy =               -1721.3599818353911814
    Two-Electron Energy =                 708.8161272894225249
    Total Energy =                       -460.9860833596973180
  Basis Set: (AUG-CC-PVTZ AUX)
    Blend: AUG-CC-PVTZ-RI
    Molecular point group: c1

    Geometry (in Angstrom), charge = 0, multiplicity = 1:

       Center              X                  Y                   Z               Mass
    ------------   -----------------  -----------------  -----------------  -----------------
         O           -1.180929530683    -0.788634423997    -1.085760827519    15.994914619570
         O            2.232964469317    -0.803229423997    -0.725488827519    15.994914619570
         C            0.385451469317     0.272695576003     0.386802172481    12.000000000000
         C            0.841046469317     1.566911576003    -0.303188827519    12.000000000000
         C           -1.018925530683    -0.079846423997    -0.093902827519    12.000000000000
         C            1.318278469317    -0.900110423997     0.085859172481    12.000000000000
         C           -2.183272530683     0.504973576003     0.678557172481    12.000000000000
         C            2.093659469317     2.164654576003     0.331437172481    12.000000000000
         C            1.037389469317    -2.189704423997     0.822091172481    12.000000000000
         C           -3.522814530683     0.294350576003    -0.011772827519    12.000000000000
         H            0.357874469317     0.428295576003     1.476285172481     1.007825032230
         H            1.024226469317     1.333595576003    -1.356055827519     1.007825032230
         H            0.027089469317     2.301452576003    -0.267646827519     1.007825032230
         H           -1.984335530683     1.569628576003     0.855972172481     1.007825032230
         H           -2.173424530683     0.038071576003     1.674026172481     1.007825032230
         H            2.931063469317     1.468881576003     0.257682172481     1.007825032230
         H            2.377309469317     3.091099576003    -0.176400827519     1.007825032230
         H            1.923473469317     2.399964576003     1.387180172481     1.007825032230
         H           -3.713533530683    -0.769144423997    -0.165864827519     1.007825032230
         H           -3.531368530683     0.775826576003    -0.992030827519     1.007825032230
         H           -4.334498530683     0.713445576003     0.588450172481     1.007825032230
         H            0.929024769317    -2.027852423997     1.797434472481     1.007825032230
         H            1.856030469317    -2.889350423997     0.648445172481     1.007825032230
         H            0.107003469317    -2.624740423997     0.444423172481     1.007825032230

  Basis Set: AUG-CC-PVTZ
    Blend: AUG-CC-PVTZ
  Basis Set: (AUG-CC-PVTZ AUX)
    Blend: AUG-CC-PVTZ-JKFIT
	 Reference Energy          =    -460.9860833596973748 [Eh]
	 Singles Energy            =      -0.0000000000000000 [Eh]
	 Same-Spin Energy          =      -0.4688882959208283 [Eh]
	 Opposite-Spin Energy      =      -1.5682735634335483 [Eh]
	 Correlation Energy        =      -2.0371618593543763 [Eh]
	 Total Energy              =    -463.0232452190517733 [Eh]

	 ================> DF-SCS-MP2 Energies <==================
	-----------------------------------------------------------
	 SCS Same-Spin Scale       =       0.3333333333333333 [-]
	 SCS Opposite-Spin Scale   =       1.2000000000000000 [-]
	 SCS Same-Spin Energy      =      -0.1562960986402761 [Eh]
	 SCS Opposite-Spin Energy  =      -1.8819282761202578 [Eh]
	 SCS Correlation Energy    =      -2.0382243747605338 [Eh]
	 SCS Total Energy          =    -463.0243077344579206 [Eh]
	-----------------------------------------------------------

  Dipole Moment: [D]
     X:    -1.7823      Y:     1.4129      Z:     3.6196     Total:     4.2748

*** Psi4 exiting successfully. Buy a developer a beer!
