                               Psi4 1.4a3.dev225

  ==> Input File <==

--------------------------------------------------------------------------
#psi4
#
memory 32 gb

molecule  {
0 1
  O       -1.1540860    -0.8257380    -1.1262130
  O        2.2598080    -0.8403330    -0.7659410
  C        0.4122950     0.2355920     0.3463500
  C        0.8678900     1.5298080    -0.3436410
  C       -0.9920820    -0.1169500    -0.1343550
  C        1.3451220    -0.9372140     0.0454070
  C       -2.1564290     0.4678700     0.6381050
  C        2.1205030     2.1275510     0.2909850
  C        1.0642330    -2.2268080     0.7816390
  C       -3.4959710     0.2572470    -0.0522250
  H        0.3847180     0.3911920     1.4358330
  H        1.0510700     1.2964920    -1.3965080
  H       -0.0202676     2.3313100    -0.3048590
  H       -1.9574920     1.5325250     0.8155200
  H       -2.1465810     0.0009680     1.6335740
  H        2.9579070     1.4317780     0.2172300
  H        2.4041530     3.0539960    -0.2168530
  H        1.9503170     2.3628610     1.3467280
  H       -3.6866900    -0.8062480    -0.2063170
  H       -3.5045250     0.7387230    -1.0324830
  H       -4.3076550     0.6763420     0.5479980
  H        0.9449730    -2.0486830     1.8550460
  H        1.8828740    -2.9264540     0.6079930
  H        0.1338470    -2.6618440     0.4039710
units angstrom
no_reorient  #important for SAPT in psi4, default
symmetry c1  #important for SAPT in psi4, default
}

set PROPERTIES_ORIGIN ["COM"]
properties('MP2/aug-cc-pvtz', properties = ['dipole'])
--------------------------------------------------------------------------

    Molecular point group: c1
  Charge       = 0
  Multiplicity = 1
  Basis Set: AUG-CC-PVTZ
    Blend: AUG-CC-PVTZ
  Basis Set: (AUG-CC-PVTZ AUX)
    Blend: AUG-CC-PVTZ-JKFIT

    Orbital Energies [Eh]
    ---------------------

    Doubly Occupied:

       1A    -20.558185     2A    -20.549650     3A    -11.346030
       4A    -11.339340     5A    -11.259729     6A    -11.252311
       7A    -11.249754     8A    -11.236280     9A    -11.225572
      10A    -11.219279    11A     -1.392509    12A     -1.379374
      13A     -1.106578    14A     -1.060078    15A     -1.021997
      16A     -0.969925    17A     -0.894699    18A     -0.830692
      19A     -0.768898    20A     -0.723611    21A     -0.683261
      22A     -0.671582    23A     -0.643111    24A     -0.625961
      25A     -0.623101    26A     -0.597605    27A     -0.590201
      28A     -0.568416    29A     -0.557006    30A     -0.538053
      31A     -0.534905    32A     -0.522393    33A     -0.510466
      34A     -0.501501    35A     -0.492384    36A     -0.484716
      37A     -0.479099    38A     -0.427625    39A     -0.407487

  @DF-RHF Final Energy:  -460.98566765062100

   => Energetics <=

    Nuclear Repulsion Energy =            550.6412764686585888
    One-Electron Energy =               -1719.5671627918375179
    Two-Electron Energy =                 707.9402186725579895
    Total Energy =                       -460.9856676506209396
  Basis Set: (AUG-CC-PVTZ AUX)
    Blend: AUG-CC-PVTZ-RI
    Molecular point group: c1

    Geometry (in Angstrom), charge = 0, multiplicity = 1:

       Center              X                  Y                   Z               Mass
    ------------   -----------------  -----------------  -----------------  -----------------
         O           -1.180325996886    -0.789224752462    -1.086479313448    15.994914619570
         O            2.233568003114    -0.803819752462    -0.726207313448    15.994914619570
         C            0.386055003114     0.272105247538     0.386083686552    12.000000000000
         C            0.841650003114     1.566321247538    -0.303907313448    12.000000000000
         C           -1.018321996886    -0.080436752462    -0.094621313448    12.000000000000
         C            1.318882003114    -0.900700752462     0.085140686552    12.000000000000
         C           -2.182668996886     0.504383247538     0.677838686552    12.000000000000
         C            2.094263003114     2.164064247538     0.330718686552    12.000000000000
         C            1.037993003114    -2.190294752462     0.821372686552    12.000000000000
         C           -3.522210996886     0.293760247538    -0.012491313448    12.000000000000
         H            0.358478003114     0.427705247538     1.475566686552     1.007825032230
         H            1.024830003114     1.333005247538    -1.356774313448     1.007825032230
         H           -0.046507596886     2.367823247538    -0.265125313448     1.007825032230
         H           -1.983731996886     1.569038247538     0.855253686552     1.007825032230
         H           -2.172820996886     0.037481247538     1.673307686552     1.007825032230
         H            2.931667003114     1.468291247538     0.256963686552     1.007825032230
         H            2.377913003114     3.090509247538    -0.177119313448     1.007825032230
         H            1.924077003114     2.399374247538     1.386461686552     1.007825032230
         H           -3.712929996886    -0.769734752462    -0.166583313448     1.007825032230
         H           -3.530764996886     0.775236247538    -0.992749313448     1.007825032230
         H           -4.333894996886     0.712855247538     0.587731686552     1.007825032230
         H            0.918733003114    -2.012169752462     1.894779686552     1.007825032230
         H            1.856634003114    -2.889940752462     0.647726686552     1.007825032230
         H            0.107607003114    -2.625330752462     0.443704686552     1.007825032230

  Basis Set: AUG-CC-PVTZ
    Blend: AUG-CC-PVTZ
  Basis Set: (AUG-CC-PVTZ AUX)
    Blend: AUG-CC-PVTZ-JKFIT
	 Reference Energy          =    -460.9856676506209965 [Eh]
	 Singles Energy            =      -0.0000000000000000 [Eh]
	 Same-Spin Energy          =      -0.4689120215569756 [Eh]
	 Opposite-Spin Energy      =      -1.5694994061593559 [Eh]
	 Correlation Energy        =      -2.0384114277163317 [Eh]
	 Total Energy              =    -463.0240790783373086 [Eh]

	 ================> DF-SCS-MP2 Energies <==================
	-----------------------------------------------------------
	 SCS Same-Spin Scale       =       0.3333333333333333 [-]
	 SCS Opposite-Spin Scale   =       1.2000000000000000 [-]
	 SCS Same-Spin Energy      =      -0.1563040071856585 [Eh]
	 SCS Opposite-Spin Energy  =      -1.8833992873912271 [Eh]
	 SCS Correlation Energy    =      -2.0397032945768858 [Eh]
	 SCS Total Energy          =    -463.0253709451978921 [Eh]
	-----------------------------------------------------------

  Dipole Moment: [D]
     X:    -1.7050      Y:     1.3561      Z:     3.6012     Total:     4.2089

*** Psi4 exiting successfully. Buy a developer a beer!
