                               Psi4 1.4a3.dev225

  ==> Input File <==

--------------------------------------------------------------------------
#psi4
#
memory 32 gb

molecule  {
0 1
  O       -1.1540860    -0.8257380    -1.1262130
  O        2.2598080    -0.8403330    -0.7659410
  C        0.4122950     0.2355920     0.3463500
  C        0.8678900     1.5298080    -0.3436410
  C       -0.9920820    -0.1169500    -0.1343550
  C        1.3451220    -0.9372140     0.0454070
  C       -2.1564290     0.4678700     0.6381050
  C        2.1205030     2.1275510     0.2909850
  C        1.0642330    -2.2268080     0.7816390
  C       -3.4959710     0.2572470    -0.0522250
  H        0.3847180     0.3911920     1.4358330
  H        1.0510700     1.2964920    -1.3965080
  H        0.2023342     2.1304270    -0.3145790
  H       -1.9574920     1.5325250     0.8155200
  H       -2.1465810     0.0009680     1.6335740
  H        2.9579070     1.4317780     0.2172300
  H        2.4041530     3.0539960    -0.2168530
  H        1.9503170     2.3628610     1.3467280
  H       -3.6866900    -0.8062480    -0.2063170
  H       -3.5045250     0.7387230    -1.0324830
  H       -4.3076550     0.6763420     0.5479980
  H        0.9449730    -2.0486830     1.8550460
  H        1.8828740    -2.9264540     0.6079930
  H        0.1338470    -2.6618440     0.4039710
units angstrom
no_reorient  #important for SAPT in psi4, default
symmetry c1  #important for SAPT in psi4, default
}

set PROPERTIES_ORIGIN ["COM"]
properties('MP2/aug-cc-pvtz', properties = ['dipole'])
--------------------------------------------------------------------------

    Molecular point group: c1
  Charge       = 0
  Multiplicity = 1
  Basis Set: AUG-CC-PVTZ
    Blend: AUG-CC-PVTZ
  Basis Set: (AUG-CC-PVTZ AUX)
    Blend: AUG-CC-PVTZ-JKFIT

    Orbital Energies [Eh]
    ---------------------

    Doubly Occupied:

       1A    -20.558288     2A    -20.547601     3A    -11.345800
       4A    -11.337011     5A    -11.257026     6A    -11.253686
       7A    -11.234836     8A    -11.226423     9A    -11.216342
      10A    -11.211858    11A     -1.392237    12A     -1.377479
      13A     -1.113269    14A     -1.062735    15A     -1.025683
      16A     -0.970099    17A     -0.894932    18A     -0.859769
      19A     -0.768345    20A     -0.723796    21A     -0.683896
      22A     -0.678877    23A     -0.647682    24A     -0.627681
      25A     -0.623334    26A     -0.604755    27A     -0.592540
      28A     -0.567927    29A     -0.555888    30A     -0.537307
      31A     -0.534971    32A     -0.523153    33A     -0.520204
      34A     -0.508923    35A     -0.492189    36A     -0.485587
      37A     -0.482614    38A     -0.426708    39A     -0.407451

  @DF-RHF Final Energy:  -460.95926971631911

   => Energetics <=

    Nuclear Repulsion Energy =            552.1605708766124962
    One-Electron Energy =               -1722.4818766699352182
    Two-Electron Energy =                 709.3620360770034949
    Total Energy =                       -460.9592697163191133
  Basis Set: (AUG-CC-PVTZ AUX)
    Blend: AUG-CC-PVTZ-RI
    Molecular point group: c1

    Geometry (in Angstrom), charge = 0, multiplicity = 1:

       Center              X                  Y                   Z               Mass
    ------------   -----------------  -----------------  -----------------  -----------------
         O           -1.181904776939    -0.787800010733    -1.086410375361    15.994914619570
         O            2.231989223061    -0.802395010733    -0.726138375361    15.994914619570
         C            0.384476223061     0.273529989267     0.386152624639    12.000000000000
         C            0.840071223061     1.567745989267    -0.303838375361    12.000000000000
         C           -1.019900776939    -0.079012010733    -0.094552375361    12.000000000000
         C            1.317303223061    -0.899276010733     0.085209624639    12.000000000000
         C           -2.184247776939     0.505807989267     0.677907624639    12.000000000000
         C            2.092684223061     2.165488989267     0.330787624639    12.000000000000
         C            1.036414223061    -2.188870010733     0.821441624639    12.000000000000
         C           -3.523789776939     0.295184989267    -0.012422375361    12.000000000000
         H            0.356899223061     0.429129989267     1.475635624639     1.007825032230
         H            1.023251223061     1.334429989267    -1.356705375361     1.007825032230
         H            0.174515423061     2.168364989267    -0.274776375361     1.007825032230
         H           -1.985310776939     1.570462989267     0.855322624639     1.007825032230
         H           -2.174399776939     0.038905989267     1.673376624639     1.007825032230
         H            2.930088223061     1.469715989267     0.257032624639     1.007825032230
         H            2.376334223061     3.091933989267    -0.177050375361     1.007825032230
         H            1.922498223061     2.400798989267     1.386530624639     1.007825032230
         H           -3.714508776939    -0.768310010733    -0.166514375361     1.007825032230
         H           -3.532343776939     0.776660989267    -0.992680375361     1.007825032230
         H           -4.335473776939     0.714279989267     0.587800624639     1.007825032230
         H            0.917154223061    -2.010745010733     1.894848624639     1.007825032230
         H            1.855055223061    -2.888516010733     0.647795624639     1.007825032230
         H            0.106028223061    -2.623906010733     0.443773624639     1.007825032230

  Basis Set: AUG-CC-PVTZ
    Blend: AUG-CC-PVTZ
  Basis Set: (AUG-CC-PVTZ AUX)
    Blend: AUG-CC-PVTZ-JKFIT
	 Reference Energy          =    -460.9592697163191133 [Eh]
	 Singles Energy            =      -0.0000000000000000 [Eh]
	 Same-Spin Energy          =      -0.4688256345434538 [Eh]
	 Opposite-Spin Energy      =      -1.5679272900629622 [Eh]
	 Correlation Energy        =      -2.0367529246064158 [Eh]
	 Total Energy              =    -462.9960226409255029 [Eh]

	 ================> DF-SCS-MP2 Energies <==================
	-----------------------------------------------------------
	 SCS Same-Spin Scale       =       0.3333333333333333 [-]
	 SCS Opposite-Spin Scale   =       1.2000000000000000 [-]
	 SCS Same-Spin Energy      =      -0.1562752115144846 [Eh]
	 SCS Opposite-Spin Energy  =      -1.8815127480755545 [Eh]
	 SCS Correlation Energy    =      -2.0377879595900392 [Eh]
	 SCS Total Energy          =    -462.9970576759091614 [Eh]
	-----------------------------------------------------------

  Dipole Moment: [D]
     X:    -1.8668      Y:     1.4760      Z:     3.5747     Total:     4.2944

*** Psi4 exiting successfully. Buy a developer a beer!
