                               Psi4 1.4a3.dev225

  ==> Input File <==

--------------------------------------------------------------------------
#psi4
#
memory 32 gb

molecule  {
0 1
  O       -1.1540860    -0.8257380    -1.1262130
  O        2.2598080    -0.8403330    -0.7659410
  C        0.4122950     0.2355920     0.3463500
  C        0.8678900     1.5298080    -0.3436410
  C       -0.9920820    -0.1169500    -0.1343550
  C        1.3451220    -0.9372140     0.0454070
  C       -2.1564290     0.4678700     0.6381050
  C        2.1205030     2.1275510     0.2909850
  C        1.0642330    -2.2268080     0.7816390
  C       -3.4959710     0.2572470    -0.0522250
  H        0.3847180     0.3911920     1.4358330
  H        1.0510700     1.2964920    -1.3965080
  H        0.0539330     2.2643490    -0.3080990
  H       -1.9574920     1.5325250     0.8155200
  H       -2.1465810     0.0009680     1.6335740
  H        2.9610673     1.4326015     0.2551789
  H        2.4041530     3.0539960    -0.2168530
  H        1.9503170     2.3628610     1.3467280
  H       -3.6866900    -0.8062480    -0.2063170
  H       -3.5045250     0.7387230    -1.0324830
  H       -4.3076550     0.6763420     0.5479980
  H        0.9449730    -2.0486830     1.8550460
  H        1.8828740    -2.9264540     0.6079930
  H        0.1338470    -2.6618440     0.4039710
units angstrom
no_reorient  #important for SAPT in psi4, default
symmetry c1  #important for SAPT in psi4, default
}

set PROPERTIES_ORIGIN ["COM"]
properties('MP2/aug-cc-pvtz', properties = ['dipole'])
--------------------------------------------------------------------------

    Molecular point group: c1
  Charge       = 0
  Multiplicity = 1
  Basis Set: AUG-CC-PVTZ
    Blend: AUG-CC-PVTZ
  Basis Set: (AUG-CC-PVTZ AUX)
    Blend: AUG-CC-PVTZ-JKFIT

    Orbital Energies [Eh]
    ---------------------

    Doubly Occupied:

       1A    -20.558209     2A    -20.548704     3A    -11.345902
       4A    -11.338247     5A    -11.258598     6A    -11.252896
       7A    -11.237799     8A    -11.235641     9A    -11.225941
      10A    -11.218155    11A     -1.392346    12A     -1.378487
      13A     -1.107629    14A     -1.060715    15A     -1.022432
      16A     -0.969604    17A     -0.894804    18A     -0.838142
      19A     -0.768665    20A     -0.723398    21A     -0.683093
      22A     -0.673111    23A     -0.644483    24A     -0.626181
      25A     -0.623073    26A     -0.598239    27A     -0.591935
      28A     -0.567968    29A     -0.557132    30A     -0.537447
      31A     -0.534750    32A     -0.522614    33A     -0.510938
      34A     -0.507238    35A     -0.492210    36A     -0.483716
      37A     -0.482871    38A     -0.427227    39A     -0.407510

  @DF-RHF Final Energy:  -460.99206368914577

   => Energetics <=

    Nuclear Repulsion Energy =            551.0648228927898344
    One-Electron Energy =               -1720.4176746785590240
    Two-Electron Energy =                 708.3607880966234234
    Total Energy =                       -460.9920636891457661
  Basis Set: (AUG-CC-PVTZ AUX)
    Blend: AUG-CC-PVTZ-RI
    Molecular point group: c1

    Geometry (in Angstrom), charge = 0, multiplicity = 1:

       Center              X                  Y                   Z               Mass
    ------------   -----------------  -----------------  -----------------  -----------------
         O           -1.180874671002    -0.788755679140    -1.086725482701    15.994914619570
         O            2.233019328998    -0.803350679140    -0.726453482701    15.994914619570
         C            0.385506328998     0.272574320860     0.385837517299    12.000000000000
         C            0.841101328998     1.566790320860    -0.304153482701    12.000000000000
         C           -1.018870671002    -0.079967679140    -0.094867482701    12.000000000000
         C            1.318333328998    -0.900231679140     0.084894517299    12.000000000000
         C           -2.183217671002     0.504852320860     0.677592517299    12.000000000000
         C            2.093714328998     2.164533320860     0.330472517299    12.000000000000
         C            1.037444328998    -2.189825679140     0.821126517299    12.000000000000
         C           -3.522759671002     0.294229320860    -0.012737482701    12.000000000000
         H            0.357929328998     0.428174320860     1.475320517299     1.007825032230
         H            1.024281328998     1.333474320860    -1.357020482701     1.007825032230
         H            0.027144328998     2.301331320860    -0.268611482701     1.007825032230
         H           -1.984280671002     1.569507320860     0.855007517299     1.007825032230
         H           -2.173369671002     0.037950320860     1.673061517299     1.007825032230
         H            2.934278628998     1.469583820860     0.294666417299     1.007825032230
         H            2.377364328998     3.090978320860    -0.177365482701     1.007825032230
         H            1.923528328998     2.399843320860     1.386215517299     1.007825032230
         H           -3.713478671002    -0.769265679140    -0.166829482701     1.007825032230
         H           -3.531313671002     0.775705320860    -0.992995482701     1.007825032230
         H           -4.334443671002     0.713324320860     0.587485517299     1.007825032230
         H            0.918184328998    -2.011700679140     1.894533517299     1.007825032230
         H            1.856085328998    -2.889471679140     0.647480517299     1.007825032230
         H            0.107058328998    -2.624861679140     0.443458517299     1.007825032230

  Basis Set: AUG-CC-PVTZ
    Blend: AUG-CC-PVTZ
  Basis Set: (AUG-CC-PVTZ AUX)
    Blend: AUG-CC-PVTZ-JKFIT
	 Reference Energy          =    -460.9920636891457661 [Eh]
	 Singles Energy            =      -0.0000000000000000 [Eh]
	 Same-Spin Energy          =      -0.4688328420587750 [Eh]
	 Opposite-Spin Energy      =      -1.5686859758974825 [Eh]
	 Correlation Energy        =      -2.0375188179562573 [Eh]
	 Total Energy              =    -463.0295825071020204 [Eh]

	 ================> DF-SCS-MP2 Energies <==================
	-----------------------------------------------------------
	 SCS Same-Spin Scale       =       0.3333333333333333 [-]
	 SCS Opposite-Spin Scale   =       1.2000000000000000 [-]
	 SCS Same-Spin Energy      =      -0.1562776140195916 [Eh]
	 SCS Opposite-Spin Energy  =      -1.8824231710769790 [Eh]
	 SCS Correlation Energy    =      -2.0387007850965708 [Eh]
	 SCS Total Energy          =    -463.0307644742423463 [Eh]
	-----------------------------------------------------------

  Dipole Moment: [D]
     X:    -1.7741      Y:     1.4096      Z:     3.5990     Total:     4.2529

*** Psi4 exiting successfully. Buy a developer a beer!
