                               Psi4 1.4a3.dev225

  ==> Input File <==

--------------------------------------------------------------------------
#psi4
#
memory 32 gb

molecule  {
0 1
  O       -1.1540860    -0.8257380    -1.1262130
  O        2.2598080    -0.8403330    -0.7659410
  C        0.4122950     0.2355920     0.3463500
  C        0.8678900     1.5298080    -0.3436410
  C       -0.9920820    -0.1169500    -0.1343550
  C        1.3451220    -0.9372140     0.0454070
  C       -2.1564290     0.4678700     0.6381050
  C        2.1205030     2.1275510     0.2909850
  C        1.0642330    -2.2268080     0.7816390
  C       -3.4959710     0.2572470    -0.0522250
  H        0.3847180     0.3911920     1.4358330
  H        1.0510700     1.2964920    -1.3965080
  H        0.0539330     2.2643490    -0.3080990
  H       -1.9574920     1.5325250     0.8155200
  H       -2.1465810     0.0009680     1.6335740
  H        2.9579070     1.4317780     0.2172300
  H        2.4041530     3.0539960    -0.2168530
  H        1.9503170     2.3628610     1.3467280
  H       -3.6866900    -0.8062480    -0.2063170
  H       -3.5045250     0.7387230    -1.0324830
  H       -4.3076550     0.6763420     0.5479980
  H        0.9449730    -2.0486830     1.8550460
  H        1.8828740    -2.9264540     0.6079930
  H        0.1338470    -2.6618440     0.4039710
units angstrom
no_reorient  #important for SAPT in psi4, default
symmetry c1  #important for SAPT in psi4, default
}

set PROPERTIES_ORIGIN ["COM"]
properties('MP2/aug-cc-pvtz', properties = ['dipole'])
--------------------------------------------------------------------------

    Molecular point group: c1
  Charge       = 0
  Multiplicity = 1
  Basis Set: AUG-CC-PVTZ
    Blend: AUG-CC-PVTZ
  Basis Set: (AUG-CC-PVTZ AUX)
    Blend: AUG-CC-PVTZ-JKFIT

    Orbital Energies [Eh]
    ---------------------

    Doubly Occupied:

       1A    -20.558183     2A    -20.548778     3A    -11.345886
       4A    -11.338322     5A    -11.258559     6A    -11.252870
       7A    -11.237515     8A    -11.235651     9A    -11.225921
      10A    -11.218014    11A     -1.392342    12A     -1.378577
      13A     -1.107621    14A     -1.060703    15A     -1.022496
      16A     -0.969627    17A     -0.894762    18A     -0.837604
      19A     -0.768640    20A     -0.723382    21A     -0.683136
      22A     -0.673346    23A     -0.644302    24A     -0.626065
      25A     -0.623189    26A     -0.599124    27A     -0.591793
      28A     -0.568140    29A     -0.556512    30A     -0.537682
      31A     -0.534911    32A     -0.522651    33A     -0.510050
      34A     -0.506915    35A     -0.492259    36A     -0.484296
      37A     -0.482908    38A     -0.427212    39A     -0.407466

  @DF-RHF Final Energy:  -460.99215300071063

   => Energetics <=

    Nuclear Repulsion Energy =            551.0897333073787649
    One-Electron Energy =               -1720.4689547148968813
    Two-Electron Energy =                 708.3870684068074297
    Total Energy =                       -460.9921530007106867
  Basis Set: (AUG-CC-PVTZ AUX)
    Blend: AUG-CC-PVTZ-RI
    Molecular point group: c1

    Geometry (in Angstrom), charge = 0, multiplicity = 1:

       Center              X                  Y                   Z               Mass
    ------------   -----------------  -----------------  -----------------  -----------------
         O           -1.180852256904    -0.788749838552    -1.086456334085    15.994914619570
         O            2.233041743096    -0.803344838552    -0.726184334085    15.994914619570
         C            0.385528743096     0.272580161448     0.386106665915    12.000000000000
         C            0.841123743096     1.566796161448    -0.303884334085    12.000000000000
         C           -1.018848256904    -0.079961838552    -0.094598334085    12.000000000000
         C            1.318355743096    -0.900225838552     0.085163665915    12.000000000000
         C           -2.183195256904     0.504858161448     0.677861665915    12.000000000000
         C            2.093736743096     2.164539161448     0.330741665915    12.000000000000
         C            1.037466743096    -2.189819838552     0.821395665915    12.000000000000
         C           -3.522737256904     0.294235161448    -0.012468334085    12.000000000000
         H            0.357951743096     0.428180161448     1.475589665915     1.007825032230
         H            1.024303743096     1.333480161448    -1.356751334085     1.007825032230
         H            0.027166743096     2.301337161448    -0.268342334085     1.007825032230
         H           -1.984258256904     1.569513161448     0.855276665915     1.007825032230
         H           -2.173347256904     0.037956161448     1.673330665915     1.007825032230
         H            2.931140743096     1.468766161448     0.256986665915     1.007825032230
         H            2.377386743096     3.090984161448    -0.177096334085     1.007825032230
         H            1.923550743096     2.399849161448     1.386484665915     1.007825032230
         H           -3.713456256904    -0.769259838552    -0.166560334085     1.007825032230
         H           -3.531291256904     0.775711161448    -0.992726334085     1.007825032230
         H           -4.334421256904     0.713330161448     0.587754665915     1.007825032230
         H            0.918206743096    -2.011694838552     1.894802665915     1.007825032230
         H            1.856107743096    -2.889465838552     0.647749665915     1.007825032230
         H            0.107080743096    -2.624855838552     0.443727665915     1.007825032230

  Basis Set: AUG-CC-PVTZ
    Blend: AUG-CC-PVTZ
  Basis Set: (AUG-CC-PVTZ AUX)
    Blend: AUG-CC-PVTZ-JKFIT
	 Reference Energy          =    -460.9921530007106298 [Eh]
	 Singles Energy            =      -0.0000000000000000 [Eh]
	 Same-Spin Energy          =      -0.4688463792245954 [Eh]
	 Opposite-Spin Energy      =      -1.5686985678813670 [Eh]
	 Correlation Energy        =      -2.0375449471059621 [Eh]
	 Total Energy              =    -463.0296979478166008 [Eh]

	 ================> DF-SCS-MP2 Energies <==================
	-----------------------------------------------------------
	 SCS Same-Spin Scale       =       0.3333333333333333 [-]
	 SCS Opposite-Spin Scale   =       1.2000000000000000 [-]
	 SCS Same-Spin Energy      =      -0.1562821264081984 [Eh]
	 SCS Opposite-Spin Energy  =      -1.8824382814576404 [Eh]
	 SCS Correlation Energy    =      -2.0387204078658390 [Eh]
	 SCS Total Energy          =    -463.0308734085764968 [Eh]
	-----------------------------------------------------------

  Dipole Moment: [D]
     X:    -1.7733      Y:     1.4101      Z:     3.5905     Total:     4.2455

*** Psi4 exiting successfully. Buy a developer a beer!
