                               Psi4 1.4a3.dev225

  ==> Input File <==

--------------------------------------------------------------------------
#psi4
#
memory 32 gb

molecule  {
0 1
  O       -1.1540860    -0.8257380    -1.1262130
  O        2.2598080    -0.8403330    -0.7659410
  C        0.4122950     0.2355920     0.3463500
  C        0.8678900     1.5298080    -0.3436410
  C       -0.9920820    -0.1169500    -0.1343550
  C        1.3451220    -0.9372140     0.0454070
  C       -2.1564290     0.4678700     0.6381050
  C        2.1205030     2.1275510     0.2909850
  C        1.0642330    -2.2268080     0.7816390
  C       -3.4959710     0.2572470    -0.0522250
  H        0.3847180     0.3911920     1.4358330
  H        1.0510700     1.2964920    -1.3965080
  H        0.0539330     2.2643490    -0.3080990
  H       -1.9574920     1.5325250     0.8155200
  H       -2.1465810     0.0009680     1.6335740
  H        2.9579070     1.4317780     0.2172300
  H        2.4041530     3.0539960    -0.2168530
  H        1.9503170     2.3628610     1.3467280
  H       -3.6866900    -0.8062480    -0.2063170
  H       -3.5045250     0.7387230    -1.0324830
  H       -4.3076550     0.6763420     0.5479980
  H        0.9427939    -2.0454284     1.8746587
  H        1.8828740    -2.9264540     0.6079930
  H        0.1338470    -2.6618440     0.4039710
units angstrom
no_reorient  #important for SAPT in psi4, default
symmetry c1  #important for SAPT in psi4, default
}

set PROPERTIES_ORIGIN ["COM"]
properties('MP2/aug-cc-pvtz', properties = ['dipole'])
--------------------------------------------------------------------------

    Molecular point group: c1
  Charge       = 0
  Multiplicity = 1
  Basis Set: AUG-CC-PVTZ
    Blend: AUG-CC-PVTZ
  Basis Set: (AUG-CC-PVTZ AUX)
    Blend: AUG-CC-PVTZ-JKFIT

    Orbital Energies [Eh]
    ---------------------

    Doubly Occupied:

       1A    -20.558196     2A    -20.548981     3A    -11.345896
       4A    -11.338540     5A    -11.258546     6A    -11.252855
       7A    -11.238076     8A    -11.237513     9A    -11.225914
      10A    -11.218017    11A     -1.392383    12A     -1.378737
      13A     -1.107580    14A     -1.060678    15A     -1.021575
      16A     -0.969106    17A     -0.894703    18A     -0.837474
      19A     -0.768559    20A     -0.723132    21A     -0.683163
      22A     -0.672835    23A     -0.644275    24A     -0.626150
      25A     -0.623183    26A     -0.599274    27A     -0.589561
      28A     -0.567962    29A     -0.556154    30A     -0.537708
      31A     -0.534693    32A     -0.522559    33A     -0.510043
      34A     -0.506738    35A     -0.492212    36A     -0.484166
      37A     -0.482969    38A     -0.427273    39A     -0.407562

  @DF-RHF Final Energy:  -460.99164292350287

   => Energetics <=

    Nuclear Repulsion Energy =            551.0026894660865082
    One-Electron Energy =               -1720.2987808510811192
    Two-Electron Energy =                 708.3044484614918019
    Total Energy =                       -460.9916429235029227
  Basis Set: (AUG-CC-PVTZ AUX)
    Blend: AUG-CC-PVTZ-RI
    Molecular point group: c1

    Geometry (in Angstrom), charge = 0, multiplicity = 1:

       Center              X                  Y                   Z               Mass
    ------------   -----------------  -----------------  -----------------  -----------------
         O           -1.180836801864    -0.788772921463    -1.086595435115    15.994914619570
         O            2.233057198136    -0.803367921463    -0.726323435115    15.994914619570
         C            0.385544198136     0.272557078537     0.385967564885    12.000000000000
         C            0.841139198136     1.566773078537    -0.304023435115    12.000000000000
         C           -1.018832801864    -0.079984921463    -0.094737435115    12.000000000000
         C            1.318371198136    -0.900248921463     0.085024564885    12.000000000000
         C           -2.183179801864     0.504835078537     0.677722564885    12.000000000000
         C            2.093752198136     2.164516078537     0.330602564885    12.000000000000
         C            1.037482198136    -2.189842921463     0.821256564885    12.000000000000
         C           -3.522721801864     0.294212078537    -0.012607435115    12.000000000000
         H            0.357967198136     0.428157078537     1.475450564885     1.007825032230
         H            1.024319198136     1.333457078537    -1.356890435115     1.007825032230
         H            0.027182198136     2.301314078537    -0.268481435115     1.007825032230
         H           -1.984242801864     1.569490078537     0.855137564885     1.007825032230
         H           -2.173331801864     0.037933078537     1.673191564885     1.007825032230
         H            2.931156198136     1.468743078537     0.256847564885     1.007825032230
         H            2.377402198136     3.090961078537    -0.177235435115     1.007825032230
         H            1.923566198136     2.399826078537     1.386345564885     1.007825032230
         H           -3.713440801864    -0.769282921463    -0.166699435115     1.007825032230
         H           -3.531275801864     0.775688078537    -0.992865435115     1.007825032230
         H           -4.334405801864     0.713307078537     0.587615564885     1.007825032230
         H            0.916043098136    -2.008463321463     1.914276264885     1.007825032230
         H            1.856123198136    -2.889488921463     0.647610564885     1.007825032230
         H            0.107096198136    -2.624878921463     0.443588564885     1.007825032230

  Basis Set: AUG-CC-PVTZ
    Blend: AUG-CC-PVTZ
  Basis Set: (AUG-CC-PVTZ AUX)
    Blend: AUG-CC-PVTZ-JKFIT
	 Reference Energy          =    -460.9916429235028659 [Eh]
	 Singles Energy            =      -0.0000000000000000 [Eh]
	 Same-Spin Energy          =      -0.4688422473348702 [Eh]
	 Opposite-Spin Energy      =      -1.5688160783845273 [Eh]
	 Correlation Energy        =      -2.0376583257193976 [Eh]
	 Total Energy              =    -463.0293012492222715 [Eh]

	 ================> DF-SCS-MP2 Energies <==================
	-----------------------------------------------------------
	 SCS Same-Spin Scale       =       0.3333333333333333 [-]
	 SCS Opposite-Spin Scale   =       1.2000000000000000 [-]
	 SCS Same-Spin Energy      =      -0.1562807491116234 [Eh]
	 SCS Opposite-Spin Energy  =      -1.8825792940614328 [Eh]
	 SCS Correlation Energy    =      -2.0388600431730564 [Eh]
	 SCS Total Energy          =    -463.0305029666758969 [Eh]
	-----------------------------------------------------------

  Dipole Moment: [D]
     X:    -1.7713      Y:     1.4098      Z:     3.5833     Total:     4.2385

*** Psi4 exiting successfully. Buy a developer a beer!
