                               Psi4 1.4a3.dev225

  ==> Input File <==

--------------------------------------------------------------------------
#psi4
#
memory 32 gb

molecule  {
0 1
  O       -1.1540860    -0.8257380    -1.1262130
  O        2.2598080    -0.8403330    -0.7659410
  C        0.4122950     0.2355920     0.3463500
  C        0.8678900     1.5298080    -0.3436410
  C       -0.9920820    -0.1169500    -0.1343550
  C        1.3451220    -0.9372140     0.0454070
  C       -2.1564290     0.4678700     0.6381050
  C        2.1205030     2.1275510     0.2909850
  C        1.0642330    -2.2268080     0.7816390
  C       -3.4959710     0.2572470    -0.0522250
  H        0.3847180     0.3911920     1.4358330
  H        1.0510700     1.2964920    -1.3965080
  H        0.0539330     2.2643490    -0.3080990
  H       -1.9574920     1.5325250     0.8155200
  H       -2.1465810     0.0009680     1.6335740
  H        2.9579070     1.4317780     0.2172300
  H        2.4041530     3.0539960    -0.2168530
  H        1.9503170     2.3628610     1.3467280
  H       -3.6705944    -0.8074991    -0.2164263
  H       -3.5045250     0.7387230    -1.0324830
  H       -4.3076550     0.6763420     0.5479980
  H        0.9449730    -2.0486830     1.8550460
  H        1.8828740    -2.9264540     0.6079930
  H        0.1338470    -2.6618440     0.4039710
units angstrom
no_reorient  #important for SAPT in psi4, default
symmetry c1  #important for SAPT in psi4, default
}

set PROPERTIES_ORIGIN ["COM"]
properties('MP2/aug-cc-pvtz', properties = ['dipole'])
--------------------------------------------------------------------------

    Molecular point group: c1
  Charge       = 0
  Multiplicity = 1
  Basis Set: AUG-CC-PVTZ
    Blend: AUG-CC-PVTZ
  Basis Set: (AUG-CC-PVTZ AUX)
    Blend: AUG-CC-PVTZ-JKFIT

    Orbital Energies [Eh]
    ---------------------

    Doubly Occupied:

       1A    -20.558249     2A    -20.548796     3A    -11.345943
       4A    -11.338337     5A    -11.258577     6A    -11.252734
       7A    -11.237517     8A    -11.235670     9A    -11.225858
      10A    -11.218017    11A     -1.392421    12A     -1.378605
      13A     -1.107634    14A     -1.060761    15A     -1.022512
      16A     -0.969644    17A     -0.894595    18A     -0.837606
      19A     -0.768599    20A     -0.723418    21A     -0.683326
      22A     -0.673392    23A     -0.644129    24A     -0.625928
      25A     -0.623415    26A     -0.599120    27A     -0.591773
      28A     -0.568412    29A     -0.556511    30A     -0.537662
      31A     -0.535244    32A     -0.522466    33A     -0.509768
      34A     -0.506928    35A     -0.492201    36A     -0.484316
      37A     -0.482930    38A     -0.427258    39A     -0.407488

  @DF-RHF Final Energy:  -460.99209745815978

   => Energetics <=

    Nuclear Repulsion Energy =            551.1236057396032493
    One-Electron Energy =               -1720.5358816349116751
    Two-Electron Energy =                 708.4201784371488202
    Total Energy =                       -460.9920974581597193
  Basis Set: (AUG-CC-PVTZ AUX)
    Blend: AUG-CC-PVTZ-RI
    Molecular point group: c1

    Geometry (in Angstrom), charge = 0, multiplicity = 1:

       Center              X                  Y                   Z               Mass
    ------------   -----------------  -----------------  -----------------  -----------------
         O           -1.180966413268    -0.788740965256    -1.086384634929    15.994914619570
         O            2.232927586732    -0.803335965256    -0.726112634929    15.994914619570
         C            0.385414586732     0.272589034744     0.386178365071    12.000000000000
         C            0.841009586732     1.566805034744    -0.303812634929    12.000000000000
         C           -1.018962413268    -0.079952965256    -0.094526634929    12.000000000000
         C            1.318241586732    -0.900216965256     0.085235365071    12.000000000000
         C           -2.183309413268     0.504867034744     0.677933365071    12.000000000000
         C            2.093622586732     2.164548034744     0.330813365071    12.000000000000
         C            1.037352586732    -2.189810965256     0.821467365071    12.000000000000
         C           -3.522851413268     0.294244034744    -0.012396634929    12.000000000000
         H            0.357837586732     0.428189034744     1.475661365071     1.007825032230
         H            1.024189586732     1.333489034744    -1.356679634929     1.007825032230
         H            0.027052586732     2.301346034744    -0.268270634929     1.007825032230
         H           -1.984372413268     1.569522034744     0.855348365071     1.007825032230
         H           -2.173461413268     0.037965034744     1.673402365071     1.007825032230
         H            2.931026586732     1.468775034744     0.257058365071     1.007825032230
         H            2.377272586732     3.090993034744    -0.177024634929     1.007825032230
         H            1.923436586732     2.399858034744     1.386556365071     1.007825032230
         H           -3.697474813268    -0.770502065256    -0.176597934929     1.007825032230
         H           -3.531405413268     0.775720034744    -0.992654634929     1.007825032230
         H           -4.334535413268     0.713339034744     0.587826365071     1.007825032230
         H            0.918092586732    -2.011685965256     1.894874365071     1.007825032230
         H            1.855993586732    -2.889456965256     0.647821365071     1.007825032230
         H            0.106966586732    -2.624846965256     0.443799365071     1.007825032230

  Basis Set: AUG-CC-PVTZ
    Blend: AUG-CC-PVTZ
  Basis Set: (AUG-CC-PVTZ AUX)
    Blend: AUG-CC-PVTZ-JKFIT
	 Reference Energy          =    -460.9920974581597761 [Eh]
	 Singles Energy            =      -0.0000000000000000 [Eh]
	 Same-Spin Energy          =      -0.4688624923370249 [Eh]
	 Opposite-Spin Energy      =      -1.5687152197859309 [Eh]
	 Correlation Energy        =      -2.0375777121229559 [Eh]
	 Total Energy              =    -463.0296751702827578 [Eh]

	 ================> DF-SCS-MP2 Energies <==================
	-----------------------------------------------------------
	 SCS Same-Spin Scale       =       0.3333333333333333 [-]
	 SCS Opposite-Spin Scale   =       1.2000000000000000 [-]
	 SCS Same-Spin Energy      =      -0.1562874974456750 [Eh]
	 SCS Opposite-Spin Energy  =      -1.8824582637431169 [Eh]
	 SCS Correlation Energy    =      -2.0387457611887920 [Eh]
	 SCS Total Energy          =    -463.0308432193485828 [Eh]
	-----------------------------------------------------------

  Dipole Moment: [D]
     X:    -1.7678      Y:     1.4113      Z:     3.5868     Total:     4.2405

*** Psi4 exiting successfully. Buy a developer a beer!
