                               Psi4 1.4a3.dev225

  ==> Input File <==

--------------------------------------------------------------------------
#psi4
#
memory 32 gb

molecule  {
0 1
  O       -1.1540860    -0.8257380    -1.1262130
  O        2.2598080    -0.8403330    -0.7659410
  C        0.4122950     0.2355920     0.3463500
  C        0.8678900     1.5298080    -0.3436410
  C       -0.9920820    -0.1169500    -0.1343550
  C        1.3451220    -0.9372140     0.0454070
  C       -2.1564290     0.4678700     0.6381050
  C        2.1205030     2.1275510     0.2909850
  C        1.0642330    -2.2268080     0.7816390
  C       -3.4959710     0.2572470    -0.0522250
  H        0.3847180     0.3911920     1.4358330
  H        1.0510700     1.2964920    -1.3965080
  H        0.0168327     2.2978295    -0.3064790
  H       -1.9574920     1.5325250     0.8155200
  H       -2.1465810     0.0009680     1.6335740
  H        2.9579070     1.4317780     0.2172300
  H        2.4041530     3.0539960    -0.2168530
  H        1.9503170     2.3628610     1.3467280
  H       -3.6866900    -0.8062480    -0.2063170
  H       -3.5045250     0.7387230    -1.0324830
  H       -4.3076550     0.6763420     0.5479980
  H        0.9449730    -2.0486830     1.8550460
  H        1.8828740    -2.9264540     0.6079930
  H        0.1338470    -2.6618440     0.4039710
units angstrom
no_reorient  #important for SAPT in psi4, default
symmetry c1  #important for SAPT in psi4, default
}

set PROPERTIES_ORIGIN ["COM"]
properties('MP2/aug-cc-pvtz', properties = ['dipole'])
--------------------------------------------------------------------------

    Molecular point group: c1
  Charge       = 0
  Multiplicity = 1
  Basis Set: AUG-CC-PVTZ
    Blend: AUG-CC-PVTZ
  Basis Set: (AUG-CC-PVTZ AUX)
    Blend: AUG-CC-PVTZ-JKFIT

    Orbital Energies [Eh]
    ---------------------

    Doubly Occupied:

       1A    -20.558177     2A    -20.549191     3A    -11.345948
       4A    -11.338801     5A    -11.259111     6A    -11.252602
       7A    -11.243728     8A    -11.235946     9A    -11.225754
      10A    -11.218611    11A     -1.392414    12A     -1.378956
      13A     -1.106990    14A     -1.060366    15A     -1.022166
      16A     -0.969735    17A     -0.894729    18A     -0.833822
      19A     -0.768758    20A     -0.723461    21A     -0.683178
      22A     -0.672365    23A     -0.643656    24A     -0.625954
      25A     -0.623138    26A     -0.598162    27A     -0.591125
      28A     -0.568263    29A     -0.556742    30A     -0.537850
      31A     -0.534907    32A     -0.522527    33A     -0.510169
      34A     -0.503977    35A     -0.492307    36A     -0.484375
      37A     -0.481591    38A     -0.427407    39A     -0.407483

  @DF-RHF Final Energy:  -460.99003284576503

   => Energetics <=

    Nuclear Repulsion Energy =            550.8597082022288305
    One-Electron Energy =               -1720.0105985041232088
    Two-Electron Energy =                 708.1608574561292926
    Total Energy =                       -460.9900328457650858
  Basis Set: (AUG-CC-PVTZ AUX)
    Blend: AUG-CC-PVTZ-RI
    Molecular point group: c1

    Geometry (in Angstrom), charge = 0, multiplicity = 1:

       Center              X                  Y                   Z               Mass
    ------------   -----------------  -----------------  -----------------  -----------------
         O           -1.180589126895    -0.788987295507    -1.086467823766    15.994914619570
         O            2.233304873105    -0.803582295507    -0.726195823766    15.994914619570
         C            0.385791873105     0.272342704493     0.386095176234    12.000000000000
         C            0.841386873105     1.566558704493    -0.303895823766    12.000000000000
         C           -1.018585126895    -0.080199295507    -0.094609823766    12.000000000000
         C            1.318618873105    -0.900463295507     0.085152176234    12.000000000000
         C           -2.182932126895     0.504620704493     0.677850176234    12.000000000000
         C            2.093999873105     2.164301704493     0.330730176234    12.000000000000
         C            1.037729873105    -2.190057295507     0.821384176234    12.000000000000
         C           -3.522474126895     0.293997704493    -0.012479823766    12.000000000000
         H            0.358214873105     0.427942704493     1.475578176234     1.007825032230
         H            1.024566873105     1.333242704493    -1.356762823766     1.007825032230
         H           -0.009670426895     2.334580204493    -0.266733823766     1.007825032230
         H           -1.983995126895     1.569275704493     0.855265176234     1.007825032230
         H           -2.173084126895     0.037718704493     1.673319176234     1.007825032230
         H            2.931403873105     1.468528704493     0.256975176234     1.007825032230
         H            2.377649873105     3.090746704493    -0.177107823766     1.007825032230
         H            1.923813873105     2.399611704493     1.386473176234     1.007825032230
         H           -3.713193126895    -0.769497295507    -0.166571823766     1.007825032230
         H           -3.531028126895     0.775473704493    -0.992737823766     1.007825032230
         H           -4.334158126895     0.713092704493     0.587743176234     1.007825032230
         H            0.918469873105    -2.011932295507     1.894791176234     1.007825032230
         H            1.856370873105    -2.889703295507     0.647738176234     1.007825032230
         H            0.107343873105    -2.625093295507     0.443716176234     1.007825032230

  Basis Set: AUG-CC-PVTZ
    Blend: AUG-CC-PVTZ
  Basis Set: (AUG-CC-PVTZ AUX)
    Blend: AUG-CC-PVTZ-JKFIT
	 Reference Energy          =    -460.9900328457650289 [Eh]
	 Singles Energy            =      -0.0000000000000000 [Eh]
	 Same-Spin Energy          =      -0.4688779673148909 [Eh]
	 Opposite-Spin Energy      =      -1.5690777929906086 [Eh]
	 Correlation Energy        =      -2.0379557603054996 [Eh]
	 Total Energy              =    -463.0279886060705508 [Eh]

	 ================> DF-SCS-MP2 Energies <==================
	-----------------------------------------------------------
	 SCS Same-Spin Scale       =       0.3333333333333333 [-]
	 SCS Opposite-Spin Scale   =       1.2000000000000000 [-]
	 SCS Same-Spin Energy      =      -0.1562926557716303 [Eh]
	 SCS Opposite-Spin Energy  =      -1.8828933515887303 [Eh]
	 SCS Correlation Energy    =      -2.0391860073603607 [Eh]
	 SCS Total Energy          =    -463.0292188531253714 [Eh]
	-----------------------------------------------------------

  Dipole Moment: [D]
     X:    -1.7409      Y:     1.3848      Z:     3.5956     Total:     4.2281

*** Psi4 exiting successfully. Buy a developer a beer!
