                               Psi4 1.4a3.dev225

  ==> Input File <==

--------------------------------------------------------------------------
#psi4
#
memory 32 gb

molecule  {
0 1
  O       -1.1540860    -0.8257380    -1.1262130
  O        2.2598080    -0.8403330    -0.7659410
  C        0.4122950     0.2355920     0.3463500
  C        0.8678900     1.5298080    -0.3436410
  C       -0.9920820    -0.1169500    -0.1343550
  C        1.3451220    -0.9372140     0.0454070
  C       -2.1564290     0.4678700     0.6381050
  C        2.1205030     2.1275510     0.2909850
  C        1.0642330    -2.2268080     0.7816390
  C       -3.4959710     0.2572470    -0.0522250
  H        0.3847180     0.3911920     1.4358330
  H        1.0232792     1.3208710    -1.4060532
  H        0.0539330     2.2643490    -0.3080990
  H       -1.9574920     1.5325250     0.8155200
  H       -2.1465810     0.0009680     1.6335740
  H        2.9579070     1.4317780     0.2172300
  H        2.4041530     3.0539960    -0.2168530
  H        1.9503170     2.3628610     1.3467280
  H       -3.6866900    -0.8062480    -0.2063170
  H       -3.5045250     0.7387230    -1.0324830
  H       -4.3076550     0.6763420     0.5479980
  H        0.9449730    -2.0486830     1.8550460
  H        1.8828740    -2.9264540     0.6079930
  H        0.1338470    -2.6618440     0.4039710
units angstrom
no_reorient  #important for SAPT in psi4, default
symmetry c1  #important for SAPT in psi4, default
}

set PROPERTIES_ORIGIN ["COM"]
properties('MP2/aug-cc-pvtz', properties = ['dipole'])
--------------------------------------------------------------------------

    Molecular point group: c1
  Charge       = 0
  Multiplicity = 1
  Basis Set: AUG-CC-PVTZ
    Blend: AUG-CC-PVTZ
  Basis Set: (AUG-CC-PVTZ AUX)
    Blend: AUG-CC-PVTZ-JKFIT

    Orbital Energies [Eh]
    ---------------------

    Doubly Occupied:

       1A    -20.558202     2A    -20.548576     3A    -11.345918
       4A    -11.338143     5A    -11.258786     6A    -11.252836
       7A    -11.237683     8A    -11.235567     9A    -11.225919
      10A    -11.218260    11A     -1.392321    12A     -1.378352
      13A     -1.107539    14A     -1.060655    15A     -1.022400
      16A     -0.969634    17A     -0.894737    18A     -0.838400
      19A     -0.768538    20A     -0.723557    21A     -0.683084
      22A     -0.672524    23A     -0.644435    24A     -0.626184
      25A     -0.623113    26A     -0.598439    27A     -0.591688
      28A     -0.568043    29A     -0.556540    30A     -0.537750
      31A     -0.534890    32A     -0.522609    33A     -0.510934
      34A     -0.506469    35A     -0.492314    36A     -0.484594
      37A     -0.482583    38A     -0.427153    39A     -0.407338

  @DF-RHF Final Energy:  -460.99207815983158

   => Energetics <=

    Nuclear Repulsion Energy =            551.0405311675048097
    One-Electron Energy =               -1720.3718011995408688
    Two-Electron Energy =                 708.3391918722046512
    Total Energy =                       -460.9920781598315216
  Basis Set: (AUG-CC-PVTZ AUX)
    Blend: AUG-CC-PVTZ-RI
    Molecular point group: c1

    Geometry (in Angstrom), charge = 0, multiplicity = 1:

       Center              X                  Y                   Z               Mass
    ------------   -----------------  -----------------  -----------------  -----------------
         O           -1.180655153553    -0.788922744068    -1.086388635750    15.994914619570
         O            2.233238846447    -0.803517744068    -0.726116635750    15.994914619570
         C            0.385725846447     0.272407255932     0.386174364250    12.000000000000
         C            0.841320846447     1.566623255932    -0.303816635750    12.000000000000
         C           -1.018651153553    -0.080134744068    -0.094530635750    12.000000000000
         C            1.318552846447    -0.900398744068     0.085231364250    12.000000000000
         C           -2.182998153553     0.504685255932     0.677929364250    12.000000000000
         C            2.093933846447     2.164366255932     0.330809364250    12.000000000000
         C            1.037663846447    -2.189992744068     0.821463364250    12.000000000000
         C           -3.522540153553     0.294062255932    -0.012400635750    12.000000000000
         H            0.358148846447     0.428007255932     1.475657364250     1.007825032230
         H            0.996710046447     1.357686255932    -1.366228835750     1.007825032230
         H            0.027363846447     2.301164255932    -0.268274635750     1.007825032230
         H           -1.984061153553     1.569340255932     0.855344364250     1.007825032230
         H           -2.173150153553     0.037783255932     1.673398364250     1.007825032230
         H            2.931337846447     1.468593255932     0.257054364250     1.007825032230
         H            2.377583846447     3.090811255932    -0.177028635750     1.007825032230
         H            1.923747846447     2.399676255932     1.386552364250     1.007825032230
         H           -3.713259153553    -0.769432744068    -0.166492635750     1.007825032230
         H           -3.531094153553     0.775538255932    -0.992658635750     1.007825032230
         H           -4.334224153553     0.713157255932     0.587822364250     1.007825032230
         H            0.918403846447    -2.011867744068     1.894870364250     1.007825032230
         H            1.856304846447    -2.889638744068     0.647817364250     1.007825032230
         H            0.107277846447    -2.625028744068     0.443795364250     1.007825032230

  Basis Set: AUG-CC-PVTZ
    Blend: AUG-CC-PVTZ
  Basis Set: (AUG-CC-PVTZ AUX)
    Blend: AUG-CC-PVTZ-JKFIT
	 Reference Energy          =    -460.9920781598315784 [Eh]
	 Singles Energy            =      -0.0000000000000000 [Eh]
	 Same-Spin Energy          =      -0.4688097485202550 [Eh]
	 Opposite-Spin Energy      =      -1.5686493742083245 [Eh]
	 Correlation Energy        =      -2.0374591227285794 [Eh]
	 Total Energy              =    -463.0295372825601703 [Eh]

	 ================> DF-SCS-MP2 Energies <==================
	-----------------------------------------------------------
	 SCS Same-Spin Scale       =       0.3333333333333333 [-]
	 SCS Opposite-Spin Scale   =       1.2000000000000000 [-]
	 SCS Same-Spin Energy      =      -0.1562699161734183 [Eh]
	 SCS Opposite-Spin Energy  =      -1.8823792490499893 [Eh]
	 SCS Correlation Energy    =      -2.0386491652234078 [Eh]
	 SCS Total Energy          =    -463.0307273250550111 [Eh]
	-----------------------------------------------------------

  Dipole Moment: [D]
     X:    -1.7804      Y:     1.4229      Z:     3.5871     Total:     4.2499

*** Psi4 exiting successfully. Buy a developer a beer!
