                               Psi4 1.4a3.dev225

  ==> Input File <==

--------------------------------------------------------------------------
#psi4
#
memory 32 gb

molecule  {
0 1
  O       -1.1540860    -0.8257380    -1.1262130
  O        2.2598080    -0.8403330    -0.7659410
  C        0.4122950     0.2355920     0.3463500
  C        0.8678900     1.5298080    -0.3436410
  C       -0.9460568    -0.1053962    -0.1186010
  C        1.3451220    -0.9372140     0.0454070
  C       -2.1564290     0.4678700     0.6381050
  C        2.1205030     2.1275510     0.2909850
  C        1.0642330    -2.2268080     0.7816390
  C       -3.4959710     0.2572470    -0.0522250
  H        0.3847180     0.3911920     1.4358330
  H        1.0510700     1.2964920    -1.3965080
  H        0.0539330     2.2643490    -0.3080990
  H       -1.9574920     1.5325250     0.8155200
  H       -2.1465810     0.0009680     1.6335740
  H        2.9579070     1.4317780     0.2172300
  H        2.4041530     3.0539960    -0.2168530
  H        1.9503170     2.3628610     1.3467280
  H       -3.6866900    -0.8062480    -0.2063170
  H       -3.5045250     0.7387230    -1.0324830
  H       -4.3076550     0.6763420     0.5479980
  H        0.9449730    -2.0486830     1.8550460
  H        1.8828740    -2.9264540     0.6079930
  H        0.1338470    -2.6618440     0.4039710
units angstrom
no_reorient  #important for SAPT in psi4, default
symmetry c1  #important for SAPT in psi4, default
}

set PROPERTIES_ORIGIN ["COM"]
properties('MP2/aug-cc-pvtz', properties = ['dipole'])
--------------------------------------------------------------------------

    Molecular point group: c1
  Charge       = 0
  Multiplicity = 1
  Basis Set: AUG-CC-PVTZ
    Blend: AUG-CC-PVTZ
  Basis Set: (AUG-CC-PVTZ AUX)
    Blend: AUG-CC-PVTZ-JKFIT

    Orbital Energies [Eh]
    ---------------------

    Doubly Occupied:

       1A    -20.555304     2A    -20.550720     3A    -11.347338
       4A    -11.340804     5A    -11.259984     6A    -11.253157
       7A    -11.240840     8A    -11.236773     9A    -11.224833
      10A    -11.220070    11A     -1.384878    12A     -1.370460
      13A     -1.115255    14A     -1.056145    15A     -1.024828
      16A     -0.975794    17A     -0.892400    18A     -0.841003
      19A     -0.774161    20A     -0.723927    21A     -0.682202
      22A     -0.673581    23A     -0.643027    24A     -0.626505
      25A     -0.615526    26A     -0.600886    27A     -0.593238
      28A     -0.569554    29A     -0.557510    30A     -0.537302
      31A     -0.532815    32A     -0.519425    33A     -0.509359
      34A     -0.507694    35A     -0.492939    36A     -0.485350
      37A     -0.477221    38A     -0.430064    39A     -0.410109

  @DF-RHF Final Energy:  -460.98601275231977

   => Energetics <=

    Nuclear Repulsion Energy =            551.2556252291172996
    One-Electron Energy =               -1720.7773138016732446
    Two-Electron Energy =                 708.5356758202360652
    Total Energy =                       -460.9860127523197662
  Basis Set: (AUG-CC-PVTZ AUX)
    Blend: AUG-CC-PVTZ-RI
    Molecular point group: c1

    Geometry (in Angstrom), charge = 0, multiplicity = 1:

       Center              X                  Y                   Z               Mass
    ------------   -----------------  -----------------  -----------------  -----------------
         O           -1.184738990268    -0.789725533170    -1.087786726944    15.994914619570
         O            2.229155009732    -0.804320533170    -0.727514726944    15.994914619570
         C            0.381642009732     0.271604466830     0.384776273056    12.000000000000
         C            0.837237009732     1.565820466830    -0.305214726944    12.000000000000
         C           -0.976709790268    -0.069383733170    -0.080174726944    12.000000000000
         C            1.314469009732    -0.901201533170     0.083833273056    12.000000000000
         C           -2.187081990268     0.503882466830     0.676531273056    12.000000000000
         C            2.089850009732     2.163563466830     0.329411273056    12.000000000000
         C            1.033580009732    -2.190795533170     0.820065273056    12.000000000000
         C           -3.526623990268     0.293259466830    -0.013798726944    12.000000000000
         H            0.354065009732     0.427204466830     1.474259273056     1.007825032230
         H            1.020417009732     1.332504466830    -1.358081726944     1.007825032230
         H            0.023280009732     2.300361466830    -0.269672726944     1.007825032230
         H           -1.988144990268     1.568537466830     0.853946273056     1.007825032230
         H           -2.177233990268     0.036980466830     1.672000273056     1.007825032230
         H            2.927254009732     1.467790466830     0.255656273056     1.007825032230
         H            2.373500009732     3.090008466830    -0.178426726944     1.007825032230
         H            1.919664009732     2.398873466830     1.385154273056     1.007825032230
         H           -3.717342990268    -0.770235533170    -0.167890726944     1.007825032230
         H           -3.535177990268     0.774735466830    -0.994056726944     1.007825032230
         H           -4.338307990268     0.712354466830     0.586424273056     1.007825032230
         H            0.914320009732    -2.012670533170     1.893472273056     1.007825032230
         H            1.852221009732    -2.890441533170     0.646419273056     1.007825032230
         H            0.103194009732    -2.625831533170     0.442397273056     1.007825032230

  Basis Set: AUG-CC-PVTZ
    Blend: AUG-CC-PVTZ
  Basis Set: (AUG-CC-PVTZ AUX)
    Blend: AUG-CC-PVTZ-JKFIT
	 Reference Energy          =    -460.9860127523197662 [Eh]
	 Singles Energy            =      -0.0000000000000000 [Eh]
	 Same-Spin Energy          =      -0.4698381535662470 [Eh]
	 Opposite-Spin Energy      =      -1.5706606576596049 [Eh]
	 Correlation Energy        =      -2.0404988112258522 [Eh]
	 Total Energy              =    -463.0265115635456254 [Eh]

	 ================> DF-SCS-MP2 Energies <==================
	-----------------------------------------------------------
	 SCS Same-Spin Scale       =       0.3333333333333333 [-]
	 SCS Opposite-Spin Scale   =       1.2000000000000000 [-]
	 SCS Same-Spin Energy      =      -0.1566127178554157 [Eh]
	 SCS Opposite-Spin Energy  =      -1.8847927891915259 [Eh]
	 SCS Correlation Energy    =      -2.0414055070469415 [Eh]
	 SCS Total Energy          =    -463.0274182593666978 [Eh]
	-----------------------------------------------------------

  Dipole Moment: [D]
     X:    -1.5078      Y:     1.4596      Z:     3.6314     Total:     4.1942

*** Psi4 exiting successfully. Buy a developer a beer!
