                               Psi4 1.4a3.dev225

  ==> Input File <==

--------------------------------------------------------------------------
#psi4
#
memory 32 gb

molecule  {
0 1
  O       -1.1540860    -0.8257380    -1.1262130
  O        2.2598080    -0.8403330    -0.7659410
  C        0.4260735     0.2506544     0.3291771
  C        0.8678900     1.5298080    -0.3436410
  C       -0.9920820    -0.1169500    -0.1343550
  C        1.3451220    -0.9372140     0.0454070
  C       -2.1564290     0.4678700     0.6381050
  C        2.1205030     2.1275510     0.2909850
  C        1.0642330    -2.2268080     0.7816390
  C       -3.4959710     0.2572470    -0.0522250
  H        0.3847180     0.3911920     1.4358330
  H        1.0510700     1.2964920    -1.3965080
  H        0.0539330     2.2643490    -0.3080990
  H       -1.9574920     1.5325250     0.8155200
  H       -2.1465810     0.0009680     1.6335740
  H        2.9579070     1.4317780     0.2172300
  H        2.4041530     3.0539960    -0.2168530
  H        1.9503170     2.3628610     1.3467280
  H       -3.6866900    -0.8062480    -0.2063170
  H       -3.5045250     0.7387230    -1.0324830
  H       -4.3076550     0.6763420     0.5479980
  H        0.9449730    -2.0486830     1.8550460
  H        1.8828740    -2.9264540     0.6079930
  H        0.1338470    -2.6618440     0.4039710
units angstrom
no_reorient  #important for SAPT in psi4, default
symmetry c1  #important for SAPT in psi4, default
}

set PROPERTIES_ORIGIN ["COM"]
properties('MP2/aug-cc-pvtz', properties = ['dipole'])
--------------------------------------------------------------------------

    Molecular point group: c1
  Charge       = 0
  Multiplicity = 1
  Basis Set: AUG-CC-PVTZ
    Blend: AUG-CC-PVTZ
  Basis Set: (AUG-CC-PVTZ AUX)
    Blend: AUG-CC-PVTZ-JKFIT

    Orbital Energies [Eh]
    ---------------------

    Doubly Occupied:

       1A    -20.558541     2A    -20.548039     3A    -11.346219
       4A    -11.337977     5A    -11.259357     6A    -11.253191
       7A    -11.236402     8A    -11.235660     9A    -11.226154
      10A    -11.217706    11A     -1.392411    12A     -1.378477
      13A     -1.108739    14A     -1.061309    15A     -1.022496
      16A     -0.968621    17A     -0.895143    18A     -0.838729
      19A     -0.767642    20A     -0.721855    21A     -0.682031
      22A     -0.674049    23A     -0.644449    24A     -0.626528
      25A     -0.623015    26A     -0.599305    27A     -0.592690
      28A     -0.567133    29A     -0.556611    30A     -0.537505
      31A     -0.534734    32A     -0.522461    33A     -0.510469
      34A     -0.507545    35A     -0.491581    36A     -0.485355
      37A     -0.483612    38A     -0.426982    39A     -0.406562

  @DF-RHF Final Energy:  -460.99138024483534

   => Energetics <=

    Nuclear Repulsion Energy =            551.1719745603534193
    One-Electron Energy =               -1720.6321366595243489
    Two-Electron Energy =                 708.4687818543355888
    Total Energy =                       -460.9913802448353408
  Basis Set: (AUG-CC-PVTZ AUX)
    Blend: AUG-CC-PVTZ-RI
    Molecular point group: c1

    Geometry (in Angstrom), charge = 0, multiplicity = 1:

       Center              X                  Y                   Z               Mass
    ------------   -----------------  -----------------  -----------------  -----------------
         O           -1.182015822856    -0.790021827215    -1.085006118043    15.994914619570
         O            2.231878177144    -0.804616827215    -0.724734118043    15.994914619570
         C            0.398143677144     0.286370572785     0.370383981957    12.000000000000
         C            0.839960177144     1.565524172785    -0.302434118043    12.000000000000
         C           -1.020011822856    -0.081233827215    -0.093148118043    12.000000000000
         C            1.317192177144    -0.901497827215     0.086613881957    12.000000000000
         C           -2.184358822856     0.503586172785     0.679311881957    12.000000000000
         C            2.092573177144     2.163267172785     0.332191881957    12.000000000000
         C            1.036303177144    -2.191091827215     0.822845881957    12.000000000000
         C           -3.523900822856     0.292963172785    -0.011018118043    12.000000000000
         H            0.356788177144     0.426908172785     1.477039881957     1.007825032230
         H            1.023140177144     1.332208172785    -1.355301118043     1.007825032230
         H            0.026003177144     2.300065172785    -0.266892118043     1.007825032230
         H           -1.985421822856     1.568241172785     0.856726881957     1.007825032230
         H           -2.174510822856     0.036684172785     1.674780881957     1.007825032230
         H            2.929977177144     1.467494172785     0.258436881957     1.007825032230
         H            2.376223177144     3.089712172785    -0.175646118043     1.007825032230
         H            1.922387177144     2.398577172785     1.387934881957     1.007825032230
         H           -3.714619822856    -0.770531827215    -0.165110118043     1.007825032230
         H           -3.532454822856     0.774439172785    -0.991276118043     1.007825032230
         H           -4.335584822856     0.712058172785     0.589204881957     1.007825032230
         H            0.917043177144    -2.012966827215     1.896252881957     1.007825032230
         H            1.854944177144    -2.890737827215     0.649199881957     1.007825032230
         H            0.105917177144    -2.626127827215     0.445177881957     1.007825032230

  Basis Set: AUG-CC-PVTZ
    Blend: AUG-CC-PVTZ
  Basis Set: (AUG-CC-PVTZ AUX)
    Blend: AUG-CC-PVTZ-JKFIT
	 Reference Energy          =    -460.9913802448353408 [Eh]
	 Singles Energy            =      -0.0000000000000000 [Eh]
	 Same-Spin Energy          =      -0.4689261177034598 [Eh]
	 Opposite-Spin Energy      =      -1.5688211495130120 [Eh]
	 Correlation Energy        =      -2.0377472672164716 [Eh]
	 Total Energy              =    -463.0291275120517867 [Eh]

	 ================> DF-SCS-MP2 Energies <==================
	-----------------------------------------------------------
	 SCS Same-Spin Scale       =       0.3333333333333333 [-]
	 SCS Opposite-Spin Scale   =       1.2000000000000000 [-]
	 SCS Same-Spin Energy      =      -0.1563087059011533 [Eh]
	 SCS Opposite-Spin Energy  =      -1.8825853794156142 [Eh]
	 SCS Correlation Energy    =      -2.0388940853167674 [Eh]
	 SCS Total Energy          =    -463.0302743301521105 [Eh]
	-----------------------------------------------------------

  Dipole Moment: [D]
     X:    -1.8129      Y:     1.3911      Z:     3.5786     Total:     4.2459

*** Psi4 exiting successfully. Buy a developer a beer!
