                               Psi4 1.4a3.dev225

  ==> Input File <==

--------------------------------------------------------------------------
#psi4
#
memory 32 gb

molecule  {
0 1
  O       -1.1540860    -0.8257380    -1.1262130
  O        2.2598080    -0.8403330    -0.7659410
  C        0.4122950     0.2355920     0.3463500
  C        0.8678900     1.5298080    -0.3436410
  C       -0.9920820    -0.1169500    -0.1343550
  C        1.3451220    -0.9372140     0.0454070
  C       -2.1564290     0.4678700     0.6381050
  C        2.1205030     2.1275510     0.2909850
  C        1.0642330    -2.2268080     0.7816390
  C       -3.4959710     0.2572470    -0.0522250
  H        0.3847180     0.3911920     1.4358330
  H        1.0510700     1.2964920    -1.3965080
  H        0.0539330     2.2643490    -0.3080990
  H       -1.9574920     1.5325250     0.8155200
  H       -2.1465810     0.0009680     1.6335740
  H        2.9579070     1.4317780     0.2172300
  H        2.4041530     3.0539960    -0.2168530
  H        1.9503170     2.3628610     1.3467280
  H       -3.6866900    -0.8062480    -0.2063170
  H       -3.5045250     0.7387230    -1.0324830
  H       -4.3076550     0.6763420     0.5479980
  H        0.8873056    -2.0015198     1.8380934
  H        1.8828740    -2.9264540     0.6079930
  H        0.1338470    -2.6618440     0.4039710
units angstrom
no_reorient  #important for SAPT in psi4, default
symmetry c1  #important for SAPT in psi4, default
}

set PROPERTIES_ORIGIN ["COM"]
properties('MP2/aug-cc-pvtz', properties = ['dipole'])
--------------------------------------------------------------------------

    Molecular point group: c1
  Charge       = 0
  Multiplicity = 1
  Basis Set: AUG-CC-PVTZ
    Blend: AUG-CC-PVTZ
  Basis Set: (AUG-CC-PVTZ AUX)
    Blend: AUG-CC-PVTZ-JKFIT

    Orbital Energies [Eh]
    ---------------------

    Doubly Occupied:

       1A    -20.558245     2A    -20.548196     3A    -11.345944
       4A    -11.337755     5A    -11.258666     6A    -11.253007
       7A    -11.237564     8A    -11.236072     9A    -11.226017
      10A    -11.217998    11A     -1.392330    12A     -1.378246
      13A     -1.107791    14A     -1.060828    15A     -1.023205
      16A     -0.969639    17A     -0.894793    18A     -0.837387
      19A     -0.768440    20A     -0.723095    21A     -0.683200
      22A     -0.673369    23A     -0.644100    24A     -0.626960
      25A     -0.623147    26A     -0.599372    27A     -0.589675
      28A     -0.568111    29A     -0.559047    30A     -0.538627
      31A     -0.535117    32A     -0.522570    33A     -0.510068
      34A     -0.507123    35A     -0.491947    36A     -0.483783
      37A     -0.482742    38A     -0.427056    39A     -0.407096

  @DF-RHF Final Energy:  -460.99159689078351

   => Energetics <=

    Nuclear Repulsion Energy =            551.2235334336199912
    One-Electron Energy =               -1720.7336043464410977
    Two-Electron Energy =                 708.5184740220374806
    Total Energy =                       -460.9915968907835122
  Basis Set: (AUG-CC-PVTZ AUX)
    Blend: AUG-CC-PVTZ-RI
    Molecular point group: c1

    Geometry (in Angstrom), charge = 0, multiplicity = 1:

       Center              X                  Y                   Z               Mass
    ------------   -----------------  -----------------  -----------------  -----------------
         O           -1.180443256883    -0.789084338630    -1.086336099538    15.994914619570
         O            2.233450743117    -0.803679338630    -0.726064099538    15.994914619570
         C            0.385937743117     0.272245661370     0.386226900462    12.000000000000
         C            0.841532743117     1.566461661370    -0.303764099538    12.000000000000
         C           -1.018439256883    -0.080296338630    -0.094478099538    12.000000000000
         C            1.318764743117    -0.900560338630     0.085283900462    12.000000000000
         C           -2.182786256883     0.504523661370     0.677981900462    12.000000000000
         C            2.094145743117     2.164204661370     0.330861900462    12.000000000000
         C            1.037875743117    -2.190154338630     0.821515900462    12.000000000000
         C           -3.522328256883     0.293900661370    -0.012348099538    12.000000000000
         H            0.358360743117     0.427845661370     1.475709900462     1.007825032230
         H            1.024712743117     1.333145661370    -1.356631099538     1.007825032230
         H            0.027575743117     2.301002661370    -0.268222099538     1.007825032230
         H           -1.983849256883     1.569178661370     0.855396900462     1.007825032230
         H           -2.172938256883     0.037621661370     1.673450900462     1.007825032230
         H            2.931549743117     1.468431661370     0.257106900462     1.007825032230
         H            2.377795743117     3.090649661370    -0.176976099538     1.007825032230
         H            1.923959743117     2.399514661370     1.386604900462     1.007825032230
         H           -3.713047256883    -0.769594338630    -0.166440099538     1.007825032230
         H           -3.530882256883     0.775376661370    -0.992606099538     1.007825032230
         H           -4.334012256883     0.712995661370     0.587874900462     1.007825032230
         H            0.860948343117    -1.964866138630     1.877970300462     1.007825032230
         H            1.856516743117    -2.889800338630     0.647869900462     1.007825032230
         H            0.107489743117    -2.625190338630     0.443847900462     1.007825032230

  Basis Set: AUG-CC-PVTZ
    Blend: AUG-CC-PVTZ
  Basis Set: (AUG-CC-PVTZ AUX)
    Blend: AUG-CC-PVTZ-JKFIT
	 Reference Energy          =    -460.9915968907835122 [Eh]
	 Singles Energy            =      -0.0000000000000000 [Eh]
	 Same-Spin Energy          =      -0.4689308984922294 [Eh]
	 Opposite-Spin Energy      =      -1.5687912280030951 [Eh]
	 Correlation Energy        =      -2.0377221264953245 [Eh]
	 Total Energy              =    -463.0293190172788513 [Eh]

	 ================> DF-SCS-MP2 Energies <==================
	-----------------------------------------------------------
	 SCS Same-Spin Scale       =       0.3333333333333333 [-]
	 SCS Opposite-Spin Scale   =       1.2000000000000000 [-]
	 SCS Same-Spin Energy      =      -0.1563102994974098 [Eh]
	 SCS Opposite-Spin Energy  =      -1.8825494736037141 [Eh]
	 SCS Correlation Energy    =      -2.0388597731011240 [Eh]
	 SCS Total Energy          =    -463.0304566638846495 [Eh]
	-----------------------------------------------------------

  Dipole Moment: [D]
     X:    -1.7992      Y:     1.4124      Z:     3.5757     Total:     4.2447

*** Psi4 exiting successfully. Buy a developer a beer!
