                               Psi4 1.4a3.dev225

  ==> Input File <==

--------------------------------------------------------------------------
#psi4
#
memory 32 gb

molecule  {
0 1
  O       -1.1540860    -0.8257380    -1.1262130
  O        2.2598080    -0.8403330    -0.7659410
  C        0.4122950     0.2355920     0.3463500
  C        0.8678900     1.5298080    -0.3436410
  C       -0.9920820    -0.1169500    -0.1343550
  C        1.3451220    -0.9372140     0.0454070
  C       -2.1564290     0.4678700     0.6381050
  C        2.1205030     2.1275510     0.2909850
  C        1.0642330    -2.2268080     0.7816390
  C       -3.4959710     0.2572470    -0.0522250
  H        0.3847180     0.3911920     1.4358330
  H        1.0510700     1.2964920    -1.3965080
  H        0.0539330     2.2643490    -0.3080990
  H       -1.9574920     1.5325250     0.8155200
  H       -2.1465810     0.0009680     1.6335740
  H        2.9579070     1.4317780     0.2172300
  H        2.4041530     3.0539960    -0.2168530
  H        1.9503170     2.3628610     1.3467280
  H       -3.6866900    -0.8062480    -0.2063170
  H       -3.5045250     0.7387230    -1.0324830
  H       -4.3076550     0.6763420     0.5479980
  H        1.0324749    -2.1209820     1.8706506
  H        1.8828740    -2.9264540     0.6079930
  H        0.1338470    -2.6618440     0.4039710
units angstrom
no_reorient  #important for SAPT in psi4, default
symmetry c1  #important for SAPT in psi4, default
}

set PROPERTIES_ORIGIN ["COM"]
properties('MP2/aug-cc-pvtz', properties = ['dipole'])
--------------------------------------------------------------------------

    Molecular point group: c1
  Charge       = 0
  Multiplicity = 1
  Basis Set: AUG-CC-PVTZ
    Blend: AUG-CC-PVTZ
  Basis Set: (AUG-CC-PVTZ AUX)
    Blend: AUG-CC-PVTZ-JKFIT

    Orbital Energies [Eh]
    ---------------------

    Doubly Occupied:

       1A    -20.558119     2A    -20.549575     3A    -11.345820
       4A    -11.339185     5A    -11.258423     6A    -11.252681
       7A    -11.237451     8A    -11.235046     9A    -11.225788
      10A    -11.218033    11A     -1.392382    12A     -1.379031
      13A     -1.107419    14A     -1.060538    15A     -1.021687
      16A     -0.969705    17A     -0.894745    18A     -0.837986
      19A     -0.769013    20A     -0.723875    21A     -0.683063
      22A     -0.673448    23A     -0.644840    24A     -0.625752
      25A     -0.623197    26A     -0.600436    27A     -0.592855
      28A     -0.568235    29A     -0.552700    30A     -0.536939
      31A     -0.532837    32A     -0.522646    33A     -0.510048
      34A     -0.506172    35A     -0.492729    36A     -0.484995
      37A     -0.482919    38A     -0.427454    39A     -0.407963

  @DF-RHF Final Energy:  -460.99092837525353

   => Energetics <=

    Nuclear Repulsion Energy =            550.9071281053516032
    One-Electron Energy =               -1720.1046570489729675
    Two-Electron Energy =                 708.2066005683678895
    Total Energy =                       -460.9909283752534748
  Basis Set: (AUG-CC-PVTZ AUX)
    Blend: AUG-CC-PVTZ-RI
    Molecular point group: c1

    Geometry (in Angstrom), charge = 0, multiplicity = 1:

       Center              X                  Y                   Z               Mass
    ------------   -----------------  -----------------  -----------------  -----------------
         O           -1.181472855005    -0.788237065434    -1.086567008084    15.994914619570
         O            2.232421144995    -0.802832065434    -0.726295008084    15.994914619570
         C            0.384908144995     0.273092934566     0.385995991916    12.000000000000
         C            0.840503144995     1.567308934566    -0.303995008084    12.000000000000
         C           -1.019468855005    -0.079449065434    -0.094709008084    12.000000000000
         C            1.317735144995    -0.899713065434     0.085052991916    12.000000000000
         C           -2.183815855005     0.505370934566     0.677750991916    12.000000000000
         C            2.093116144995     2.165051934566     0.330630991916    12.000000000000
         C            1.036846144995    -2.189307065434     0.821284991916    12.000000000000
         C           -3.523357855005     0.294747934566    -0.012579008084    12.000000000000
         H            0.357331144995     0.428692934566     1.475478991916     1.007825032230
         H            1.023683144995     1.333992934566    -1.356862008084     1.007825032230
         H            0.026546144995     2.301849934566    -0.268453008084     1.007825032230
         H           -1.984878855005     1.570025934566     0.855165991916     1.007825032230
         H           -2.173967855005     0.038468934566     1.673219991916     1.007825032230
         H            2.930520144995     1.469278934566     0.256875991916     1.007825032230
         H            2.376766144995     3.091496934566    -0.177207008084     1.007825032230
         H            1.922930144995     2.400361934566     1.386373991916     1.007825032230
         H           -3.714076855005    -0.768747065434    -0.166671008084     1.007825032230
         H           -3.531911855005     0.776223934566    -0.992837008084     1.007825032230
         H           -4.335041855005     0.713842934566     0.587643991916     1.007825032230
         H            1.005088044995    -2.083481065434     1.910296591916     1.007825032230
         H            1.855487144995    -2.888953065434     0.647638991916     1.007825032230
         H            0.106460144995    -2.624343065434     0.443616991916     1.007825032230

  Basis Set: AUG-CC-PVTZ
    Blend: AUG-CC-PVTZ
  Basis Set: (AUG-CC-PVTZ AUX)
    Blend: AUG-CC-PVTZ-JKFIT
	 Reference Energy          =    -460.9909283752535316 [Eh]
	 Singles Energy            =      -0.0000000000000000 [Eh]
	 Same-Spin Energy          =      -0.4688306071479991 [Eh]
	 Opposite-Spin Energy      =      -1.5687092274953476 [Eh]
	 Correlation Energy        =      -2.0375398346433466 [Eh]
	 Total Energy              =    -463.0284682098968574 [Eh]

	 ================> DF-SCS-MP2 Energies <==================
	-----------------------------------------------------------
	 SCS Same-Spin Scale       =       0.3333333333333333 [-]
	 SCS Opposite-Spin Scale   =       1.2000000000000000 [-]
	 SCS Same-Spin Energy      =      -0.1562768690493330 [Eh]
	 SCS Opposite-Spin Energy  =      -1.8824510729944171 [Eh]
	 SCS Correlation Energy    =      -2.0387279420437499 [Eh]
	 SCS Total Energy          =    -463.0296563172972810 [Eh]
	-----------------------------------------------------------

  Dipole Moment: [D]
     X:    -1.7309      Y:     1.4025      Z:     3.6077     Total:     4.2401

*** Psi4 exiting successfully. Buy a developer a beer!
