                               Psi4 1.4a3.dev225

  ==> Input File <==

--------------------------------------------------------------------------
#psi4
#
memory 32 gb

molecule  {
0 1
  O       -1.1540860    -0.8257380    -1.1262130
  O        2.2487597    -0.7994778    -0.7723886
  C        0.4122950     0.2355920     0.3463500
  C        0.8678900     1.5298080    -0.3436410
  C       -0.9920820    -0.1169500    -0.1343550
  C        1.3451220    -0.9372140     0.0454070
  C       -2.1564290     0.4678700     0.6381050
  C        2.1205030     2.1275510     0.2909850
  C        1.0642330    -2.2268080     0.7816390
  C       -3.4959710     0.2572470    -0.0522250
  H        0.3847180     0.3911920     1.4358330
  H        1.0510700     1.2964920    -1.3965080
  H        0.0539330     2.2643490    -0.3080990
  H       -1.9574920     1.5325250     0.8155200
  H       -2.1465810     0.0009680     1.6335740
  H        2.9579070     1.4317780     0.2172300
  H        2.4041530     3.0539960    -0.2168530
  H        1.9503170     2.3628610     1.3467280
  H       -3.6866900    -0.8062480    -0.2063170
  H       -3.5045250     0.7387230    -1.0324830
  H       -4.3076550     0.6763420     0.5479980
  H        0.9449730    -2.0486830     1.8550460
  H        1.8828740    -2.9264540     0.6079930
  H        0.1338470    -2.6618440     0.4039710
units angstrom
no_reorient  #important for SAPT in psi4, default
symmetry c1  #important for SAPT in psi4, default
}

set PROPERTIES_ORIGIN ["COM"]
properties('MP2/aug-cc-pvtz', properties = ['dipole'])
--------------------------------------------------------------------------

    Molecular point group: c1
  Charge       = 0
  Multiplicity = 1
  Basis Set: AUG-CC-PVTZ
    Blend: AUG-CC-PVTZ
  Basis Set: (AUG-CC-PVTZ AUX)
    Blend: AUG-CC-PVTZ-JKFIT

    Orbital Energies [Eh]
    ---------------------

    Doubly Occupied:

       1A    -20.557557     2A    -20.548884     3A    -11.345046
       4A    -11.338622     5A    -11.256730     6A    -11.252261
       7A    -11.237918     8A    -11.236242     9A    -11.225505
      10A    -11.216999    11A     -1.391981    12A     -1.378780
      13A     -1.106253    14A     -1.060045    15A     -1.023636
      16A     -0.969422    17A     -0.894145    18A     -0.836713
      19A     -0.768055    20A     -0.722865    21A     -0.682657
      22A     -0.673655    23A     -0.644031    24A     -0.626479
      25A     -0.622679    26A     -0.599138    27A     -0.592305
      28A     -0.567517    29A     -0.556490    30A     -0.537574
      31A     -0.534645    32A     -0.522242    33A     -0.509247
      34A     -0.506569    35A     -0.491950    36A     -0.483489
      37A     -0.482009    38A     -0.427353    39A     -0.406814

  @DF-RHF Final Energy:  -460.99166235506533

   => Energetics <=

    Nuclear Repulsion Energy =            551.4862225513290923
    One-Electron Energy =               -1721.2867656346243166
    Two-Electron Energy =                 708.8088807282298376
    Total Energy =                       -460.9916623550653867
  Basis Set: (AUG-CC-PVTZ AUX)
    Blend: AUG-CC-PVTZ-RI
    Molecular point group: c1

    Geometry (in Angstrom), charge = 0, multiplicity = 1:

       Center              X                  Y                   Z               Mass
    ------------   -----------------  -----------------  -----------------  -----------------
         O           -1.179608644049    -0.793348559794    -1.085730582772    15.994914619570
         O            2.223237055951    -0.767088359794    -0.731906182772    15.994914619570
         C            0.386772355951     0.267981440206     0.386832417228    12.000000000000
         C            0.842367355951     1.562197440206    -0.303158582772    12.000000000000
         C           -1.017604644049    -0.084560559794    -0.093872582772    12.000000000000
         C            1.319599355951    -0.904824559794     0.085889417228    12.000000000000
         C           -2.181951644049     0.500259440206     0.678587417228    12.000000000000
         C            2.094980355951     2.159940440206     0.331467417228    12.000000000000
         C            1.038710355951    -2.194418559794     0.822121417228    12.000000000000
         C           -3.521493644049     0.289636440206    -0.011742582772    12.000000000000
         H            0.359195355951     0.423581440206     1.476315417228     1.007825032230
         H            1.025547355951     1.328881440206    -1.356025582772     1.007825032230
         H            0.028410355951     2.296738440206    -0.267616582772     1.007825032230
         H           -1.983014644049     1.564914440206     0.856002417228     1.007825032230
         H           -2.172103644049     0.033357440206     1.674056417228     1.007825032230
         H            2.932384355951     1.464167440206     0.257712417228     1.007825032230
         H            2.378630355951     3.086385440206    -0.176370582772     1.007825032230
         H            1.924794355951     2.395250440206     1.387210417228     1.007825032230
         H           -3.712212644049    -0.773858559794    -0.165834582772     1.007825032230
         H           -3.530047644049     0.771112440206    -0.992000582772     1.007825032230
         H           -4.333177644049     0.708731440206     0.588480417228     1.007825032230
         H            0.919450355951    -2.016293559794     1.895528417228     1.007825032230
         H            1.857351355951    -2.894064559794     0.648475417228     1.007825032230
         H            0.108324355951    -2.629454559794     0.444453417228     1.007825032230

  Basis Set: AUG-CC-PVTZ
    Blend: AUG-CC-PVTZ
  Basis Set: (AUG-CC-PVTZ AUX)
    Blend: AUG-CC-PVTZ-JKFIT
	 Reference Energy          =    -460.9916623550653298 [Eh]
	 Singles Energy            =      -0.0000000000000000 [Eh]
	 Same-Spin Energy          =      -0.4689548809892252 [Eh]
	 Opposite-Spin Energy      =      -1.5688099731976823 [Eh]
	 Correlation Energy        =      -2.0377648541869076 [Eh]
	 Total Energy              =    -463.0294272092522192 [Eh]

	 ================> DF-SCS-MP2 Energies <==================
	-----------------------------------------------------------
	 SCS Same-Spin Scale       =       0.3333333333333333 [-]
	 SCS Opposite-Spin Scale   =       1.2000000000000000 [-]
	 SCS Same-Spin Energy      =      -0.1563182936630751 [Eh]
	 SCS Opposite-Spin Energy  =      -1.8825719678372188 [Eh]
	 SCS Correlation Energy    =      -2.0388902615002937 [Eh]
	 SCS Total Energy          =    -463.0305526165656147 [Eh]
	-----------------------------------------------------------

  Dipole Moment: [D]
     X:    -1.7323      Y:     1.2931      Z:     3.6080     Total:     4.2060

*** Psi4 exiting successfully. Buy a developer a beer!
