                               Psi4 1.4a3.dev225

  ==> Input File <==

--------------------------------------------------------------------------
#psi4
#
memory 32 gb

molecule  {
0 1
  O       -1.1540860    -0.8257380    -1.1262130
  O        2.2598080    -0.8403330    -0.7659410
  C        0.4122950     0.2355920     0.3463500
  C        0.8678900     1.5298080    -0.3436410
  C       -0.9920820    -0.1169500    -0.1343550
  C        1.3451220    -0.9372140     0.0454070
  C       -2.1564290     0.4678700     0.6381050
  C        2.1205030     2.1275510     0.2909850
  C        1.0642330    -2.2268080     0.7816390
  C       -3.4959710     0.2572470    -0.0522250
  H        0.3847180     0.3911920     1.4358330
  H        1.0510700     1.2964920    -1.3965080
  H        0.0539330     2.2643490    -0.3080990
  H       -1.9574920     1.5325250     0.8155200
  H       -2.1465810     0.0009680     1.6335740
  H        2.9559440     1.4316841     0.1982863
  H        2.4041530     3.0539960    -0.2168530
  H        1.9503170     2.3628610     1.3467280
  H       -3.6866900    -0.8062480    -0.2063170
  H       -3.5045250     0.7387230    -1.0324830
  H       -4.3076550     0.6763420     0.5479980
  H        0.9449730    -2.0486830     1.8550460
  H        1.8828740    -2.9264540     0.6079930
  H        0.1338470    -2.6618440     0.4039710
units angstrom
no_reorient  #important for SAPT in psi4, default
symmetry c1  #important for SAPT in psi4, default
}

set PROPERTIES_ORIGIN ["COM"]
properties('MP2/aug-cc-pvtz', properties = ['dipole'])
--------------------------------------------------------------------------

    Molecular point group: c1
  Charge       = 0
  Multiplicity = 1
  Basis Set: AUG-CC-PVTZ
    Blend: AUG-CC-PVTZ
  Basis Set: (AUG-CC-PVTZ AUX)
    Blend: AUG-CC-PVTZ-JKFIT

    Orbital Energies [Eh]
    ---------------------

    Doubly Occupied:

       1A    -20.558170     2A    -20.548815     3A    -11.345878
       4A    -11.338358     5A    -11.258542     6A    -11.252856
       7A    -11.237377     8A    -11.235655     9A    -11.225911
      10A    -11.217945    11A     -1.392341    12A     -1.378621
      13A     -1.107619    14A     -1.060698    15A     -1.022532
      16A     -0.969647    17A     -0.894743    18A     -0.837343
      19A     -0.768627    20A     -0.723375    21A     -0.683160
      22A     -0.673466    23A     -0.644214    24A     -0.626010
      25A     -0.623256    26A     -0.599583    27A     -0.591726
      28A     -0.568268    29A     -0.556184    30A     -0.537809
      31A     -0.534978    32A     -0.522669    33A     -0.509794
      34A     -0.506553    35A     -0.492283    36A     -0.484659
      37A     -0.482758    38A     -0.427204    39A     -0.407441

  @DF-RHF Final Energy:  -460.99209092805813

   => Energetics <=

    Nuclear Repulsion Energy =            551.1022611823884745
    One-Electron Energy =               -1720.4945669922983598
    Two-Electron Energy =                 708.4002148818517526
    Total Energy =                       -460.9920909280581327
  Basis Set: (AUG-CC-PVTZ AUX)
    Blend: AUG-CC-PVTZ-RI
    Molecular point group: c1

    Geometry (in Angstrom), charge = 0, multiplicity = 1:

       Center              X                  Y                   Z               Mass
    ------------   -----------------  -----------------  -----------------  -----------------
         O           -1.180838334531    -0.788749172576    -1.086321977869    15.994914619570
         O            2.233055665469    -0.803344172576    -0.726049977869    15.994914619570
         C            0.385542665469     0.272580827424     0.386241022131    12.000000000000
         C            0.841137665469     1.566796827424    -0.303749977869    12.000000000000
         C           -1.018834334531    -0.079961172576    -0.094463977869    12.000000000000
         C            1.318369665469    -0.900225172576     0.085298022131    12.000000000000
         C           -2.183181334531     0.504858827424     0.677996022131    12.000000000000
         C            2.093750665469     2.164539827424     0.330876022131    12.000000000000
         C            1.037480665469    -2.189819172576     0.821530022131    12.000000000000
         C           -3.522723334531     0.294235827424    -0.012333977869    12.000000000000
         H            0.357965665469     0.428180827424     1.475724022131     1.007825032230
         H            1.024317665469     1.333480827424    -1.356616977869     1.007825032230
         H            0.027180665469     2.301337827424    -0.268207977869     1.007825032230
         H           -1.984244334531     1.569513827424     0.855411022131     1.007825032230
         H           -2.173333334531     0.037956827424     1.673465022131     1.007825032230
         H            2.929191665469     1.468672927424     0.238177322131     1.007825032230
         H            2.377400665469     3.090984827424    -0.176961977869     1.007825032230
         H            1.923564665469     2.399849827424     1.386619022131     1.007825032230
         H           -3.713442334531    -0.769259172576    -0.166425977869     1.007825032230
         H           -3.531277334531     0.775711827424    -0.992591977869     1.007825032230
         H           -4.334407334531     0.713330827424     0.587889022131     1.007825032230
         H            0.918220665469    -2.011694172576     1.894937022131     1.007825032230
         H            1.856121665469    -2.889465172576     0.647884022131     1.007825032230
         H            0.107094665469    -2.624855172576     0.443862022131     1.007825032230

  Basis Set: AUG-CC-PVTZ
    Blend: AUG-CC-PVTZ
  Basis Set: (AUG-CC-PVTZ AUX)
    Blend: AUG-CC-PVTZ-JKFIT
	 Reference Energy          =    -460.9920909280581327 [Eh]
	 Singles Energy            =      -0.0000000000000000 [Eh]
	 Same-Spin Energy          =      -0.4688578636434412 [Eh]
	 Opposite-Spin Energy      =      -1.5687120425469250 [Eh]
	 Correlation Energy        =      -2.0375699061903663 [Eh]
	 Total Energy              =    -463.0296608342484888 [Eh]

	 ================> DF-SCS-MP2 Energies <==================
	-----------------------------------------------------------
	 SCS Same-Spin Scale       =       0.3333333333333333 [-]
	 SCS Opposite-Spin Scale   =       1.2000000000000000 [-]
	 SCS Same-Spin Energy      =      -0.1562859545478137 [Eh]
	 SCS Opposite-Spin Energy  =      -1.8824544510563099 [Eh]
	 SCS Correlation Energy    =      -2.0387404056041238 [Eh]
	 SCS Total Energy          =    -463.0308313336622632 [Eh]
	-----------------------------------------------------------

  Dipole Moment: [D]
     X:    -1.7731      Y:     1.4104      Z:     3.5864     Total:     4.2421

*** Psi4 exiting successfully. Buy a developer a beer!
