                               Psi4 1.4a3.dev225

  ==> Input File <==

--------------------------------------------------------------------------
#psi4
#
memory 32 gb

molecule  {
0 1
  O       -1.1540860    -0.8257380    -1.1262130
  O        2.2598080    -0.8403330    -0.7659410
  C        0.3600631     0.1718176     0.4140731
  C        0.8678900     1.5298080    -0.3436410
  C       -0.9920820    -0.1169500    -0.1343550
  C        1.3451220    -0.9372140     0.0454070
  C       -2.1564290     0.4678700     0.6381050
  C        2.1205030     2.1275510     0.2909850
  C        1.0642330    -2.2268080     0.7816390
  C       -3.4959710     0.2572470    -0.0522250
  H        0.3847180     0.3911920     1.4358330
  H        1.0510700     1.2964920    -1.3965080
  H        0.0539330     2.2643490    -0.3080990
  H       -1.9574920     1.5325250     0.8155200
  H       -2.1465810     0.0009680     1.6335740
  H        2.9579070     1.4317780     0.2172300
  H        2.4041530     3.0539960    -0.2168530
  H        1.9503170     2.3628610     1.3467280
  H       -3.6866900    -0.8062480    -0.2063170
  H       -3.5045250     0.7387230    -1.0324830
  H       -4.3076550     0.6763420     0.5479980
  H        0.9449730    -2.0486830     1.8550460
  H        1.8828740    -2.9264540     0.6079930
  H        0.1338470    -2.6618440     0.4039710
units angstrom
no_reorient  #important for SAPT in psi4, default
symmetry c1  #important for SAPT in psi4, default
}

set PROPERTIES_ORIGIN ["COM"]
properties('MP2/aug-cc-pvtz', properties = ['dipole'])
--------------------------------------------------------------------------

    Molecular point group: c1
  Charge       = 0
  Multiplicity = 1
  Basis Set: AUG-CC-PVTZ
    Blend: AUG-CC-PVTZ
  Basis Set: (AUG-CC-PVTZ AUX)
    Blend: AUG-CC-PVTZ-JKFIT

    Orbital Energies [Eh]
    ---------------------

    Doubly Occupied:

       1A    -20.556042     2A    -20.551668     3A    -11.344617
       4A    -11.340163     5A    -11.256437     6A    -11.251444
       7A    -11.245437     8A    -11.232675     9A    -11.224851
      10A    -11.219864    11A     -1.391667    12A     -1.379067
      13A     -1.105636    14A     -1.058387    15A     -1.022641
      16A     -0.973197    17A     -0.893277    18A     -0.834262
      19A     -0.772220    20A     -0.731124    21A     -0.687431
      22A     -0.671137    23A     -0.643644    24A     -0.626284
      25A     -0.622498    26A     -0.599158    27A     -0.588752
      28A     -0.572654    29A     -0.556564    30A     -0.537785
      31A     -0.535177    32A     -0.523183    33A     -0.510260
      34A     -0.506323    35A     -0.493944    36A     -0.484789
      37A     -0.471063    38A     -0.425165    39A     -0.408745

  @DF-RHF Final Energy:  -460.98245819302565

   => Energetics <=

    Nuclear Repulsion Energy =            550.7670417255436632
    One-Electron Energy =               -1719.8005357714177990
    Two-Electron Energy =                 708.0510358528485995
    Total Energy =                       -460.9824581930256500
  Basis Set: (AUG-CC-PVTZ AUX)
    Blend: AUG-CC-PVTZ-RI
    Molecular point group: c1

    Geometry (in Angstrom), charge = 0, multiplicity = 1:

       Center              X                  Y                   Z               Mass
    ------------   -----------------  -----------------  -----------------  -----------------
         O           -1.176441380506    -0.783364221798    -1.092175410423    15.994914619570
         O            2.237452619494    -0.797959221798    -0.731903410423    15.994914619570
         C            0.337707719494     0.214191378202     0.448110689577    12.000000000000
         C            0.845534619494     1.572181778202    -0.309603410423    12.000000000000
         C           -1.014437380506    -0.074576221798    -0.100317410423    12.000000000000
         C            1.322766619494    -0.894840221798     0.079444589577    12.000000000000
         C           -2.178784380506     0.510243778202     0.672142589577    12.000000000000
         C            2.098147619494     2.169924778202     0.325022589577    12.000000000000
         C            1.041877619494    -2.184434221798     0.815676589577    12.000000000000
         C           -3.518326380506     0.299620778202    -0.018187410423    12.000000000000
         H            0.362362619494     0.433565778202     1.469870589577     1.007825032230
         H            1.028714619494     1.338865778202    -1.362470410423     1.007825032230
         H            0.031577619494     2.306722778202    -0.274061410423     1.007825032230
         H           -1.979847380506     1.574898778202     0.849557589577     1.007825032230
         H           -2.168936380506     0.043341778202     1.667611589577     1.007825032230
         H            2.935551619494     1.474151778202     0.251267589577     1.007825032230
         H            2.381797619494     3.096369778202    -0.182815410423     1.007825032230
         H            1.927961619494     2.405234778202     1.380765589577     1.007825032230
         H           -3.709045380506    -0.763874221798    -0.172279410423     1.007825032230
         H           -3.526880380506     0.781096778202    -0.998445410423     1.007825032230
         H           -4.330010380506     0.718715778202     0.582035589577     1.007825032230
         H            0.922617619494    -2.006309221798     1.889083589577     1.007825032230
         H            1.860518619494    -2.884080221798     0.642030589577     1.007825032230
         H            0.111491619494    -2.619470221798     0.438008589577     1.007825032230

  Basis Set: AUG-CC-PVTZ
    Blend: AUG-CC-PVTZ
  Basis Set: (AUG-CC-PVTZ AUX)
    Blend: AUG-CC-PVTZ-JKFIT
	 Reference Energy          =    -460.9824581930256500 [Eh]
	 Singles Energy            =      -0.0000000000000000 [Eh]
	 Same-Spin Energy          =      -0.4691267048887646 [Eh]
	 Opposite-Spin Energy      =      -1.5693061871919487 [Eh]
	 Correlation Energy        =      -2.0384328920807135 [Eh]
	 Total Energy              =    -463.0208910851063706 [Eh]

	 ================> DF-SCS-MP2 Energies <==================
	-----------------------------------------------------------
	 SCS Same-Spin Scale       =       0.3333333333333333 [-]
	 SCS Opposite-Spin Scale   =       1.2000000000000000 [-]
	 SCS Same-Spin Energy      =      -0.1563755682962549 [Eh]
	 SCS Opposite-Spin Energy  =      -1.8831674246303383 [Eh]
	 SCS Correlation Energy    =      -2.0395429929265929 [Eh]
	 SCS Total Energy          =    -463.0220011859522629 [Eh]
	-----------------------------------------------------------

  Dipole Moment: [D]
     X:    -1.5931      Y:     1.5156      Z:     3.6229     Total:     4.2380

*** Psi4 exiting successfully. Buy a developer a beer!
