                               Psi4 1.4a3.dev225

  ==> Input File <==

--------------------------------------------------------------------------
#psi4
#
memory 32 gb

molecule  {
0 1
  O       -1.1540860    -0.8257380    -1.1262130
  O        2.2598080    -0.8403330    -0.7659410
  C        0.4122950     0.2355920     0.3463500
  C        0.8678900     1.5298080    -0.3436410
  C       -0.9920820    -0.1169500    -0.1343550
  C        1.3451220    -0.9372140     0.0454070
  C       -2.1564290     0.4678700     0.6381050
  C        2.1205030     2.1275510     0.2909850
  C        1.0642330    -2.2268080     0.7816390
  C       -3.4959710     0.2572470    -0.0522250
  H        0.3847180     0.3911920     1.4358330
  H        1.0510700     1.2964920    -1.3965080
  H        0.0539330     2.2643490    -0.3080990
  H       -1.9574920     1.5325250     0.8155200
  H       -2.1465810     0.0009680     1.6335740
  H        2.9579070     1.4317780     0.2172300
  H        2.4041530     3.0539960    -0.2168530
  H        1.9503170     2.3628610     1.3467280
  H       -3.6544456    -0.8084259    -0.2264857
  H       -3.5045250     0.7387230    -1.0324830
  H       -4.3076550     0.6763420     0.5479980
  H        0.9449730    -2.0486830     1.8550460
  H        1.8828740    -2.9264540     0.6079930
  H        0.1338470    -2.6618440     0.4039710
units angstrom
no_reorient  #important for SAPT in psi4, default
symmetry c1  #important for SAPT in psi4, default
}

set PROPERTIES_ORIGIN ["COM"]
properties('MP2/aug-cc-pvtz', properties = ['dipole'])
--------------------------------------------------------------------------

    Molecular point group: c1
  Charge       = 0
  Multiplicity = 1
  Basis Set: AUG-CC-PVTZ
    Blend: AUG-CC-PVTZ
  Basis Set: (AUG-CC-PVTZ AUX)
    Blend: AUG-CC-PVTZ-JKFIT

    Orbital Energies [Eh]
    ---------------------

    Doubly Occupied:

       1A    -20.558320     2A    -20.548814     3A    -11.346004
       4A    -11.338354     5A    -11.258597     6A    -11.252601
       7A    -11.237520     8A    -11.235691     9A    -11.225793
      10A    -11.218021    11A     -1.392505    12A     -1.378635
      13A     -1.107648    14A     -1.060825    15A     -1.022528
      16A     -0.969663    17A     -0.894435    18A     -0.837609
      19A     -0.768560    20A     -0.723455    21A     -0.683528
      22A     -0.673440    23A     -0.643961    24A     -0.625792
      25A     -0.623647    26A     -0.599118    27A     -0.591757
      28A     -0.568697    29A     -0.556521    30A     -0.537648
      31A     -0.535714    32A     -0.522118    33A     -0.509451
      34A     -0.506939    35A     -0.492128    36A     -0.484339
      37A     -0.482950    38A     -0.427307    39A     -0.407511

  @DF-RHF Final Energy:  -460.99197248762334

   => Energetics <=

    Nuclear Repulsion Energy =            551.1580520386845592
    One-Electron Energy =               -1720.6037645908222657
    Two-Electron Energy =                 708.4537400645142498
    Total Energy =                       -460.9919724876233431
  Basis Set: (AUG-CC-PVTZ AUX)
    Blend: AUG-CC-PVTZ-RI
    Molecular point group: c1

    Geometry (in Angstrom), charge = 0, multiplicity = 1:

       Center              X                  Y                   Z               Mass
    ------------   -----------------  -----------------  -----------------  -----------------
         O           -1.181080946948    -0.788734392024    -1.086313289684    15.994914619570
         O            2.232813053052    -0.803329392024    -0.726041289684    15.994914619570
         C            0.385300053052     0.272595607976     0.386249710316    12.000000000000
         C            0.840895053052     1.566811607976    -0.303741289684    12.000000000000
         C           -1.019076946948    -0.079946392024    -0.094455289684    12.000000000000
         C            1.318127053052    -0.900210392024     0.085306710316    12.000000000000
         C           -2.183423946948     0.504873607976     0.678004710316    12.000000000000
         C            2.093508053052     2.164554607976     0.330884710316    12.000000000000
         C            1.037238053052    -2.189804392024     0.821538710316    12.000000000000
         C           -3.522965946948     0.294250607976    -0.012325289684    12.000000000000
         H            0.357723053052     0.428195607976     1.475732710316     1.007825032230
         H            1.024075053052     1.333495607976    -1.356608289684     1.007825032230
         H            0.026938053052     2.301352607976    -0.268199289684     1.007825032230
         H           -1.984486946948     1.569528607976     0.855419710316     1.007825032230
         H           -2.173575946948     0.037971607976     1.673473710316     1.007825032230
         H            2.930912053052     1.468781607976     0.257129710316     1.007825032230
         H            2.377158053052     3.090999607976    -0.176953289684     1.007825032230
         H            1.923322053052     2.399864607976     1.386627710316     1.007825032230
         H           -3.681440546948    -0.771422292024    -0.186585989684     1.007825032230
         H           -3.531519946948     0.775726607976    -0.992583289684     1.007825032230
         H           -4.334649946948     0.713345607976     0.587897710316     1.007825032230
         H            0.917978053052    -2.011679392024     1.894945710316     1.007825032230
         H            1.855879053052    -2.889450392024     0.647892710316     1.007825032230
         H            0.106852053052    -2.624840392024     0.443870710316     1.007825032230

  Basis Set: AUG-CC-PVTZ
    Blend: AUG-CC-PVTZ
  Basis Set: (AUG-CC-PVTZ AUX)
    Blend: AUG-CC-PVTZ-JKFIT
	 Reference Energy          =    -460.9919724876233431 [Eh]
	 Singles Energy            =      -0.0000000000000000 [Eh]
	 Same-Spin Energy          =      -0.4688822710815858 [Eh]
	 Opposite-Spin Energy      =      -1.5687363715002967 [Eh]
	 Correlation Energy        =      -2.0376186425818825 [Eh]
	 Total Energy              =    -463.0295911302052332 [Eh]

	 ================> DF-SCS-MP2 Energies <==================
	-----------------------------------------------------------
	 SCS Same-Spin Scale       =       0.3333333333333333 [-]
	 SCS Opposite-Spin Scale   =       1.2000000000000000 [-]
	 SCS Same-Spin Energy      =      -0.1562940903605286 [Eh]
	 SCS Opposite-Spin Energy  =      -1.8824836458003560 [Eh]
	 SCS Correlation Energy    =      -2.0387777361608848 [Eh]
	 SCS Total Energy          =    -463.0307502237842527 [Eh]
	-----------------------------------------------------------

  Dipole Moment: [D]
     X:    -1.7622      Y:     1.4126      Z:     3.5831     Total:     4.2355

*** Psi4 exiting successfully. Buy a developer a beer!
