                               Psi4 1.4a3.dev225

  ==> Input File <==

--------------------------------------------------------------------------
#psi4
#
memory 32 gb

molecule  {
0 1
  O       -1.1540860    -0.8257380    -1.1262130
  O        2.2598080    -0.8403330    -0.7659410
  C        0.4122950     0.2355920     0.3463500
  C        0.8678900     1.5298080    -0.3436410
  C       -1.0614276    -0.1488007    -0.2075320
  C        1.3451220    -0.9372140     0.0454070
  C       -2.1564290     0.4678700     0.6381050
  C        2.1205030     2.1275510     0.2909850
  C        1.0642330    -2.2268080     0.7816390
  C       -3.4959710     0.2572470    -0.0522250
  H        0.3847180     0.3911920     1.4358330
  H        1.0510700     1.2964920    -1.3965080
  H        0.0539330     2.2643490    -0.3080990
  H       -1.9574920     1.5325250     0.8155200
  H       -2.1465810     0.0009680     1.6335740
  H        2.9579070     1.4317780     0.2172300
  H        2.4041530     3.0539960    -0.2168530
  H        1.9503170     2.3628610     1.3467280
  H       -3.6866900    -0.8062480    -0.2063170
  H       -3.5045250     0.7387230    -1.0324830
  H       -4.3076550     0.6763420     0.5479980
  H        0.9449730    -2.0486830     1.8550460
  H        1.8828740    -2.9264540     0.6079930
  H        0.1338470    -2.6618440     0.4039710
units angstrom
no_reorient  #important for SAPT in psi4, default
symmetry c1  #important for SAPT in psi4, default
}

set PROPERTIES_ORIGIN ["COM"]
properties('MP2/aug-cc-pvtz', properties = ['dipole'])
--------------------------------------------------------------------------

    Molecular point group: c1
  Charge       = 0
  Multiplicity = 1
  Basis Set: AUG-CC-PVTZ
    Blend: AUG-CC-PVTZ
  Basis Set: (AUG-CC-PVTZ AUX)
    Blend: AUG-CC-PVTZ-JKFIT

    Orbital Energies [Eh]
    ---------------------

    Doubly Occupied:

       1A    -20.567565     2A    -20.544391     3A    -11.341447
       4A    -11.332668     5A    -11.251939     6A    -11.250489
       7A    -11.233724     8A    -11.230891     9A    -11.226778
      10A    -11.213510    11A     -1.454107    12A     -1.376154
      13A     -1.094762    14A     -1.062210    15A     -1.018273
      16A     -0.957504    17A     -0.891782    18A     -0.830957
      19A     -0.761426    20A     -0.723858    21A     -0.693287
      22A     -0.670029    23A     -0.648714    24A     -0.645095
      25A     -0.622809    26A     -0.596551    27A     -0.588711
      28A     -0.570387    29A     -0.554436    30A     -0.548704
      31A     -0.537926    32A     -0.529018    33A     -0.513642
      34A     -0.510573    35A     -0.497688    36A     -0.482677
      37A     -0.480685    38A     -0.418082    39A     -0.389697

  @DF-RHF Final Energy:  -460.98586344853823

   => Energetics <=

    Nuclear Repulsion Energy =            551.2373386171688026
    One-Electron Energy =               -1720.7201142230044297
    Two-Electron Energy =                 708.4969121572975155
    Total Energy =                       -460.9858634485382254
  Basis Set: (AUG-CC-PVTZ AUX)
    Blend: AUG-CC-PVTZ-RI
    Molecular point group: c1

    Geometry (in Angstrom), charge = 0, multiplicity = 1:

       Center              X                  Y                   Z               Mass
    ------------   -----------------  -----------------  -----------------  -----------------
         O           -1.174996163782    -0.786060112525    -1.080276687123    15.994914619570
         O            2.238897836218    -0.800655112525    -0.720004687123    15.994914619570
         C            0.391384836218     0.275269887475     0.392286312877    12.000000000000
         C            0.846979836218     1.569485887475    -0.297704687123    12.000000000000
         C           -1.082337763782    -0.109122812525    -0.161595687123    12.000000000000
         C            1.324211836218    -0.897536112525     0.091343312877    12.000000000000
         C           -2.177339163782     0.507547887475     0.684041312877    12.000000000000
         C            2.099592836218     2.167228887475     0.336921312877    12.000000000000
         C            1.043322836218    -2.187130112525     0.827575312877    12.000000000000
         C           -3.516881163782     0.296924887475    -0.006288687123    12.000000000000
         H            0.363807836218     0.430869887475     1.481769312877     1.007825032230
         H            1.030159836218     1.336169887475    -1.350571687123     1.007825032230
         H            0.033022836218     2.304026887475    -0.262162687123     1.007825032230
         H           -1.978402163782     1.572202887475     0.861456312877     1.007825032230
         H           -2.167491163782     0.040645887475     1.679510312877     1.007825032230
         H            2.936996836218     1.471455887475     0.263166312877     1.007825032230
         H            2.383242836218     3.093673887475    -0.170916687123     1.007825032230
         H            1.929406836218     2.402538887475     1.392664312877     1.007825032230
         H           -3.707600163782    -0.766570112525    -0.160380687123     1.007825032230
         H           -3.525435163782     0.778400887475    -0.986546687123     1.007825032230
         H           -4.328565163782     0.716019887475     0.593934312877     1.007825032230
         H            0.924062836218    -2.009005112525     1.900982312877     1.007825032230
         H            1.861963836218    -2.886776112525     0.653929312877     1.007825032230
         H            0.112936836218    -2.622166112525     0.449907312877     1.007825032230

  Basis Set: AUG-CC-PVTZ
    Blend: AUG-CC-PVTZ
  Basis Set: (AUG-CC-PVTZ AUX)
    Blend: AUG-CC-PVTZ-JKFIT
	 Reference Energy          =    -460.9858634485382254 [Eh]
	 Singles Energy            =      -0.0000000000000000 [Eh]
	 Same-Spin Energy          =      -0.4667799529861671 [Eh]
	 Opposite-Spin Energy      =      -1.5641819795016918 [Eh]
	 Correlation Energy        =      -2.0309619324878589 [Eh]
	 Total Energy              =    -463.0168253810260808 [Eh]

	 ================> DF-SCS-MP2 Energies <==================
	-----------------------------------------------------------
	 SCS Same-Spin Scale       =       0.3333333333333333 [-]
	 SCS Opposite-Spin Scale   =       1.2000000000000000 [-]
	 SCS Same-Spin Energy      =      -0.1555933176620557 [Eh]
	 SCS Opposite-Spin Energy  =      -1.8770183754020300 [Eh]
	 SCS Correlation Energy    =      -2.0326116930640858 [Eh]
	 SCS Total Energy          =    -463.0184751416023232 [Eh]
	-----------------------------------------------------------

  Dipole Moment: [D]
     X:    -2.2766      Y:     1.2049      Z:     3.3401     Total:     4.2179

*** Psi4 exiting successfully. Buy a developer a beer!
