                               Psi4 1.4a3.dev225

  ==> Input File <==

--------------------------------------------------------------------------
#psi4
#
memory 32 gb

molecule  {
0 1
  O       -1.1540860    -0.8257380    -1.1262130
  O        2.2598080    -0.8403330    -0.7659410
  C        0.4122950     0.2355920     0.3463500
  C        0.8444642     1.5308542    -0.3566258
  C       -0.9920820    -0.1169500    -0.1343550
  C        1.3451220    -0.9372140     0.0454070
  C       -2.1564290     0.4678700     0.6381050
  C        2.1205030     2.1275510     0.2909850
  C        1.0642330    -2.2268080     0.7816390
  C       -3.4959710     0.2572470    -0.0522250
  H        0.3847180     0.3911920     1.4358330
  H        1.0510700     1.2964920    -1.3965080
  H        0.0539330     2.2643490    -0.3080990
  H       -1.9574920     1.5325250     0.8155200
  H       -2.1465810     0.0009680     1.6335740
  H        2.9579070     1.4317780     0.2172300
  H        2.4041530     3.0539960    -0.2168530
  H        1.9503170     2.3628610     1.3467280
  H       -3.6866900    -0.8062480    -0.2063170
  H       -3.5045250     0.7387230    -1.0324830
  H       -4.3076550     0.6763420     0.5479980
  H        0.9449730    -2.0486830     1.8550460
  H        1.8828740    -2.9264540     0.6079930
  H        0.1338470    -2.6618440     0.4039710
units angstrom
no_reorient  #important for SAPT in psi4, default
symmetry c1  #important for SAPT in psi4, default
}

set PROPERTIES_ORIGIN ["COM"]
properties('MP2/aug-cc-pvtz', properties = ['dipole'])
--------------------------------------------------------------------------

    Molecular point group: c1
  Charge       = 0
  Multiplicity = 1
  Basis Set: AUG-CC-PVTZ
    Blend: AUG-CC-PVTZ
  Basis Set: (AUG-CC-PVTZ AUX)
    Blend: AUG-CC-PVTZ-JKFIT

    Orbital Energies [Eh]
    ---------------------

    Doubly Occupied:

       1A    -20.557600     2A    -20.548809     3A    -11.345428
       4A    -11.338567     5A    -11.258621     6A    -11.252824
       7A    -11.236644     8A    -11.235827     9A    -11.225866
      10A    -11.218883    11A     -1.392007    12A     -1.378509
      13A     -1.107081    14A     -1.060212    15A     -1.021338
      16A     -0.967628    17A     -0.894460    18A     -0.840467
      19A     -0.768476    20A     -0.723343    21A     -0.682851
      22A     -0.673717    23A     -0.644421    24A     -0.626296
      25A     -0.622693    26A     -0.599712    27A     -0.591720
      28A     -0.567583    29A     -0.555667    30A     -0.536776
      31A     -0.534485    32A     -0.522681    33A     -0.510160
      34A     -0.505425    35A     -0.493258    36A     -0.486041
      37A     -0.483698    38A     -0.426266    39A     -0.407416

  @DF-RHF Final Energy:  -460.99173772783558

   => Energetics <=

    Nuclear Repulsion Energy =            551.0043465170733725
    One-Electron Energy =               -1720.3052499185764646
    Two-Electron Energy =                 708.3091656736675077
    Total Energy =                       -460.9917377278355843
  Basis Set: (AUG-CC-PVTZ AUX)
    Blend: AUG-CC-PVTZ-RI
    Molecular point group: c1

    Geometry (in Angstrom), charge = 0, multiplicity = 1:

       Center              X                  Y                   Z               Mass
    ------------   -----------------  -----------------  -----------------  -----------------
         O           -1.178873996333    -0.788838187988    -1.085359794464    15.994914619570
         O            2.235020003667    -0.803433187988    -0.725087794464    15.994914619570
         C            0.387507003667     0.272491812012     0.387203205536    12.000000000000
         C            0.819676203667     1.567754012012    -0.315772594464    12.000000000000
         C           -1.016869996333    -0.080050187988    -0.093501794464    12.000000000000
         C            1.320334003667    -0.900314187988     0.086260205536    12.000000000000
         C           -2.181216996333     0.504769812012     0.678958205536    12.000000000000
         C            2.095715003667     2.164450812012     0.331838205536    12.000000000000
         C            1.039445003667    -2.189908187988     0.822492205536    12.000000000000
         C           -3.520758996333     0.294146812012    -0.011371794464    12.000000000000
         H            0.359930003667     0.428091812012     1.476686205536     1.007825032230
         H            1.026282003667     1.333391812012    -1.355654794464     1.007825032230
         H            0.029145003667     2.301248812012    -0.267245794464     1.007825032230
         H           -1.982279996333     1.569424812012     0.856373205536     1.007825032230
         H           -2.171368996333     0.037867812012     1.674427205536     1.007825032230
         H            2.933119003667     1.468677812012     0.258083205536     1.007825032230
         H            2.379365003667     3.090895812012    -0.175999794464     1.007825032230
         H            1.925529003667     2.399760812012     1.387581205536     1.007825032230
         H           -3.711477996333    -0.769348187988    -0.165463794464     1.007825032230
         H           -3.529312996333     0.775622812012    -0.991629794464     1.007825032230
         H           -4.332442996333     0.713241812012     0.588851205536     1.007825032230
         H            0.920185003667    -2.011783187988     1.895899205536     1.007825032230
         H            1.858086003667    -2.889554187988     0.648846205536     1.007825032230
         H            0.109059003667    -2.624944187988     0.444824205536     1.007825032230

  Basis Set: AUG-CC-PVTZ
    Blend: AUG-CC-PVTZ
  Basis Set: (AUG-CC-PVTZ AUX)
    Blend: AUG-CC-PVTZ-JKFIT
	 Reference Energy          =    -460.9917377278355843 [Eh]
	 Singles Energy            =      -0.0000000000000000 [Eh]
	 Same-Spin Energy          =      -0.4687432850868324 [Eh]
	 Opposite-Spin Energy      =      -1.5686176964798129 [Eh]
	 Correlation Energy        =      -2.0373609815666454 [Eh]
	 Total Energy              =    -463.0290987094022057 [Eh]

	 ================> DF-SCS-MP2 Energies <==================
	-----------------------------------------------------------
	 SCS Same-Spin Scale       =       0.3333333333333333 [-]
	 SCS Opposite-Spin Scale   =       1.2000000000000000 [-]
	 SCS Same-Spin Energy      =      -0.1562477616956108 [Eh]
	 SCS Opposite-Spin Energy  =      -1.8823412357757754 [Eh]
	 SCS Correlation Energy    =      -2.0385889974713862 [Eh]
	 SCS Total Energy          =    -463.0303267253069635 [Eh]
	-----------------------------------------------------------

  Dipole Moment: [D]
     X:    -1.7768      Y:     1.4109      Z:     3.5915     Total:     4.2481

*** Psi4 exiting successfully. Buy a developer a beer!
