                               Psi4 1.4a3.dev225

  ==> Input File <==

--------------------------------------------------------------------------
#psi4
#
memory 32 gb

molecule  {
0 1
  O       -1.1540860    -0.8257380    -1.1262130
  O        2.2598080    -0.8403330    -0.7659410
  C        0.4122950     0.2355920     0.3463500
  C        0.8678900     1.5298080    -0.3436410
  C       -0.9920820    -0.1169500    -0.1343550
  C        1.3451220    -0.9372140     0.0454070
  C       -2.1564290     0.4678700     0.6381050
  C        2.1205030     2.1275510     0.2909850
  C        1.0642330    -2.2268080     0.7816390
  C       -3.4959710     0.2572470    -0.0522250
  H        0.3847180     0.3911920     1.4358330
  H        1.0510700     1.2964920    -1.3965080
  H        0.0539330     2.2643490    -0.3080990
  H       -1.9574920     1.5325250     0.8155200
  H       -2.1465810     0.0009680     1.6335740
  H        2.9579070     1.4317780     0.2172300
  H        2.4041530     3.0539960    -0.2168530
  H        1.9503170     2.3628610     1.3467280
  H       -3.6866900    -0.8062480    -0.2063170
  H       -3.5045250     0.7387230    -1.0324830
  H       -4.3076550     0.6763420     0.5479980
  H        0.9504206    -2.0568195     1.8060142
  H        1.8828740    -2.9264540     0.6079930
  H        0.1338470    -2.6618440     0.4039710
units angstrom
no_reorient  #important for SAPT in psi4, default
symmetry c1  #important for SAPT in psi4, default
}

set PROPERTIES_ORIGIN ["COM"]
properties('MP2/aug-cc-pvtz', properties = ['dipole'])
--------------------------------------------------------------------------

    Molecular point group: c1
  Charge       = 0
  Multiplicity = 1
  Basis Set: AUG-CC-PVTZ
    Blend: AUG-CC-PVTZ
  Basis Set: (AUG-CC-PVTZ AUX)
    Blend: AUG-CC-PVTZ-JKFIT

    Orbital Energies [Eh]
    ---------------------

    Doubly Occupied:

       1A    -20.558158     2A    -20.548322     3A    -11.345869
       4A    -11.337823     5A    -11.258601     6A    -11.252907
       7A    -11.237529     8A    -11.229483     9A    -11.225939
      10A    -11.218010    11A     -1.392256    12A     -1.378215
      13A     -1.107750    14A     -1.060780    15A     -1.025236
      16A     -0.971035    17A     -0.894928    18A     -0.837984
      19A     -0.768905    20A     -0.724143    21A     -0.683080
      22A     -0.674874    23A     -0.644410    24A     -0.625900
      25A     -0.623234    26A     -0.598852    27A     -0.597658
      28A     -0.568510    29A     -0.557172    30A     -0.537640
      31A     -0.535350    32A     -0.522843    33A     -0.510072
      34A     -0.507284    35A     -0.492354    36A     -0.484576
      37A     -0.482756    38A     -0.427078    39A     -0.407248

  @DF-RHF Final Energy:  -460.99115403694407

   => Energetics <=

    Nuclear Repulsion Energy =            551.3164846093173992
    One-Electron Energy =               -1720.9057411667495217
    Two-Electron Energy =                 708.5981025204881689
    Total Energy =                       -460.9911540369440672
  Basis Set: (AUG-CC-PVTZ AUX)
    Blend: AUG-CC-PVTZ-RI
    Molecular point group: c1

    Geometry (in Angstrom), charge = 0, multiplicity = 1:

       Center              X                  Y                   Z               Mass
    ------------   -----------------  -----------------  -----------------  -----------------
         O           -1.180890893439    -0.788692131275    -1.086108581157    15.994914619570
         O            2.233003106561    -0.803287131275    -0.725836581157    15.994914619570
         C            0.385490106561     0.272637868725     0.386454418843    12.000000000000
         C            0.841085106561     1.566853868725    -0.303536581157    12.000000000000
         C           -1.018886893439    -0.079904131275    -0.094250581157    12.000000000000
         C            1.318317106561    -0.900168131275     0.085511418843    12.000000000000
         C           -2.183233893439     0.504915868725     0.678209418843    12.000000000000
         C            2.093698106561     2.164596868725     0.331089418843    12.000000000000
         C            1.037428106561    -2.189762131275     0.821743418843    12.000000000000
         C           -3.522775893439     0.294292868725    -0.012120581157    12.000000000000
         H            0.357913106561     0.428237868725     1.475937418843     1.007825032230
         H            1.024265106561     1.333537868725    -1.356403581157     1.007825032230
         H            0.027128106561     2.301394868725    -0.267994581157     1.007825032230
         H           -1.984296893439     1.569570868725     0.855624418843     1.007825032230
         H           -2.173385893439     0.038013868725     1.673678418843     1.007825032230
         H            2.931102106561     1.468823868725     0.257334418843     1.007825032230
         H            2.377348106561     3.091041868725    -0.176748581157     1.007825032230
         H            1.923512106561     2.399906868725     1.386832418843     1.007825032230
         H           -3.713494893439    -0.769202131275    -0.166212581157     1.007825032230
         H           -3.531329893439     0.775768868725    -0.992378581157     1.007825032230
         H           -4.334459893439     0.713387868725     0.588102418843     1.007825032230
         H            0.923615706561    -2.019773631275     1.846118618843     1.007825032230
         H            1.856069106561    -2.889408131275     0.648097418843     1.007825032230
         H            0.107042106561    -2.624798131275     0.444075418843     1.007825032230

  Basis Set: AUG-CC-PVTZ
    Blend: AUG-CC-PVTZ
  Basis Set: (AUG-CC-PVTZ AUX)
    Blend: AUG-CC-PVTZ-JKFIT
	 Reference Energy          =    -460.9911540369440672 [Eh]
	 Singles Energy            =      -0.0000000000000000 [Eh]
	 Same-Spin Energy          =      -0.4688618776570340 [Eh]
	 Opposite-Spin Energy      =      -1.5684488389045612 [Eh]
	 Correlation Energy        =      -2.0373107165615951 [Eh]
	 Total Energy              =    -463.0284647535056592 [Eh]

	 ================> DF-SCS-MP2 Energies <==================
	-----------------------------------------------------------
	 SCS Same-Spin Scale       =       0.3333333333333333 [-]
	 SCS Opposite-Spin Scale   =       1.2000000000000000 [-]
	 SCS Same-Spin Energy      =      -0.1562872925523446 [Eh]
	 SCS Opposite-Spin Energy  =      -1.8821386066854733 [Eh]
	 SCS Correlation Energy    =      -2.0384258992378181 [Eh]
	 SCS Total Energy          =    -463.0295799361819036 [Eh]
	-----------------------------------------------------------

  Dipole Moment: [D]
     X:    -1.7780      Y:     1.4113      Z:     3.6065     Total:     4.2614

*** Psi4 exiting successfully. Buy a developer a beer!
