                               Psi4 1.4a3.dev225

  ==> Input File <==

--------------------------------------------------------------------------
#psi4
#
memory 32 gb

molecule  {
0 1
  O       -1.1540860    -0.8257380    -1.1262130
  O        2.2649150    -0.8608080    -0.7623460
  C        0.4122950     0.2355920     0.3463500
  C        0.8678900     1.5298080    -0.3436410
  C       -0.9920820    -0.1169500    -0.1343550
  C        1.3451220    -0.9372140     0.0454070
  C       -2.1564290     0.4678700     0.6381050
  C        2.1205030     2.1275510     0.2909850
  C        1.0642330    -2.2268080     0.7816390
  C       -3.4959710     0.2572470    -0.0522250
  H        0.3847180     0.3911920     1.4358330
  H        1.0510700     1.2964920    -1.3965080
  H        0.0539330     2.2643490    -0.3080990
  H       -1.9574920     1.5325250     0.8155200
  H       -2.1465810     0.0009680     1.6335740
  H        2.9579070     1.4317780     0.2172300
  H        2.4041530     3.0539960    -0.2168530
  H        1.9503170     2.3628610     1.3467280
  H       -3.6866900    -0.8062480    -0.2063170
  H       -3.5045250     0.7387230    -1.0324830
  H       -4.3076550     0.6763420     0.5479980
  H        0.9449730    -2.0486830     1.8550460
  H        1.8828740    -2.9264540     0.6079930
  H        0.1338470    -2.6618440     0.4039710
units angstrom
no_reorient  #important for SAPT in psi4, default
symmetry c1  #important for SAPT in psi4, default
}

set PROPERTIES_ORIGIN ["COM"]
properties('MP2/aug-cc-pvtz', properties = ['dipole'])
--------------------------------------------------------------------------

    Molecular point group: c1
  Charge       = 0
  Multiplicity = 1
  Basis Set: AUG-CC-PVTZ
    Blend: AUG-CC-PVTZ
  Basis Set: (AUG-CC-PVTZ AUX)
    Blend: AUG-CC-PVTZ-JKFIT

    Orbital Energies [Eh]
    ---------------------

    Doubly Occupied:

       1A    -20.558490     2A    -20.548701     3A    -11.346298
       4A    -11.338173     5A    -11.259472     6A    -11.253167
       7A    -11.238139     8A    -11.234510     9A    -11.226123
      10A    -11.218519    11A     -1.392536    12A     -1.378497
      13A     -1.108291    14A     -1.061025    15A     -1.021936
      16A     -0.969698    17A     -0.895064    18A     -0.838049
      19A     -0.768930    20A     -0.723641    21A     -0.683381
      22A     -0.673208    23A     -0.644442    24A     -0.625860
      25A     -0.623446    26A     -0.599148    27A     -0.591542
      28A     -0.568441    29A     -0.556517    30A     -0.537735
      31A     -0.535023    32A     -0.522850    33A     -0.510448
      34A     -0.507083    35A     -0.492432    36A     -0.484647
      37A     -0.483309    38A     -0.427120    39A     -0.407695

  @DF-RHF Final Energy:  -460.99213180222682

   => Energetics <=

    Nuclear Repulsion Energy =            550.9022871101473129
    One-Electron Energy =               -1720.0816604053052288
    Two-Electron Energy =                 708.1872414929309798
    Total Energy =                       -460.9921318022268224
  Basis Set: (AUG-CC-PVTZ AUX)
    Blend: AUG-CC-PVTZ-RI
    Molecular point group: c1

    Geometry (in Angstrom), charge = 0, multiplicity = 1:

       Center              X                  Y                   Z               Mass
    ------------   -----------------  -----------------  -----------------  -----------------
         O           -1.181427108315    -0.786445142518    -1.086860992559    15.994914619570
         O            2.237573891685    -0.821515142518    -0.722993992559    15.994914619570
         C            0.384953891685     0.274884857482     0.385702007441    12.000000000000
         C            0.840548891685     1.569100857482    -0.304288992559    12.000000000000
         C           -1.019423108315    -0.077657142518    -0.095002992559    12.000000000000
         C            1.317780891685    -0.897921142518     0.084759007441    12.000000000000
         C           -2.183770108315     0.507162857482     0.677457007441    12.000000000000
         C            2.093161891685     2.166843857482     0.330337007441    12.000000000000
         C            1.036891891685    -2.187515142518     0.820991007441    12.000000000000
         C           -3.523312108315     0.296539857482    -0.012872992559    12.000000000000
         H            0.357376891685     0.430484857482     1.475185007441     1.007825032230
         H            1.023728891685     1.335784857482    -1.357155992559     1.007825032230
         H            0.026591891685     2.303641857482    -0.268746992559     1.007825032230
         H           -1.984833108315     1.571817857482     0.854872007441     1.007825032230
         H           -2.173922108315     0.040260857482     1.672926007441     1.007825032230
         H            2.930565891685     1.471070857482     0.256582007441     1.007825032230
         H            2.376811891685     3.093288857482    -0.177500992559     1.007825032230
         H            1.922975891685     2.402153857482     1.386080007441     1.007825032230
         H           -3.714031108315    -0.766955142518    -0.166964992559     1.007825032230
         H           -3.531866108315     0.778015857482    -0.993130992559     1.007825032230
         H           -4.334996108315     0.715634857482     0.587350007441     1.007825032230
         H            0.917631891685    -2.009390142518     1.894398007441     1.007825032230
         H            1.855532891685    -2.887161142518     0.647345007441     1.007825032230
         H            0.106505891685    -2.622551142518     0.443323007441     1.007825032230

  Basis Set: AUG-CC-PVTZ
    Blend: AUG-CC-PVTZ
  Basis Set: (AUG-CC-PVTZ AUX)
    Blend: AUG-CC-PVTZ-JKFIT
	 Reference Energy          =    -460.9921318022268224 [Eh]
	 Singles Energy            =      -0.0000000000000000 [Eh]
	 Same-Spin Energy          =      -0.4688027975549942 [Eh]
	 Opposite-Spin Energy      =      -1.5686651582117195 [Eh]
	 Correlation Energy        =      -2.0374679557667137 [Eh]
	 Total Energy              =    -463.0295997579935374 [Eh]

	 ================> DF-SCS-MP2 Energies <==================
	-----------------------------------------------------------
	 SCS Same-Spin Scale       =       0.3333333333333333 [-]
	 SCS Opposite-Spin Scale   =       1.2000000000000000 [-]
	 SCS Same-Spin Energy      =      -0.1562675991849981 [Eh]
	 SCS Opposite-Spin Energy  =      -1.8823981898540634 [Eh]
	 SCS Correlation Energy    =      -2.0386657890390616 [Eh]
	 SCS Total Energy          =    -463.0307975912658662 [Eh]
	-----------------------------------------------------------

  Dipole Moment: [D]
     X:    -1.7927      Y:     1.4687      Z:     3.5807     Total:     4.2652

*** Psi4 exiting successfully. Buy a developer a beer!
