                               Psi4 1.4a3.dev225

  ==> Input File <==

--------------------------------------------------------------------------
#psi4
#
memory 32 gb

molecule  {
0 1
  O       -1.1540860    -0.8257380    -1.1262130
  O        2.2598080    -0.8403330    -0.7659410
  C        0.4122950     0.2355920     0.3463500
  C        0.8678900     1.5298080    -0.3436410
  C       -0.9920820    -0.1169500    -0.1343550
  C        1.3451220    -0.9372140     0.0454070
  C       -2.1564290     0.4678700     0.6381050
  C        2.1205030     2.1275510     0.2909850
  C        1.0642330    -2.2268080     0.7816390
  C       -3.4959710     0.2572470    -0.0522250
  H        0.3847180     0.3911920     1.4358330
  H        0.9952991     1.3455046    -1.4143040
  H        0.0539330     2.2643490    -0.3080990
  H       -1.9574920     1.5325250     0.8155200
  H       -2.1465810     0.0009680     1.6335740
  H        2.9579070     1.4317780     0.2172300
  H        2.4041530     3.0539960    -0.2168530
  H        1.9503170     2.3628610     1.3467280
  H       -3.6866900    -0.8062480    -0.2063170
  H       -3.5045250     0.7387230    -1.0324830
  H       -4.3076550     0.6763420     0.5479980
  H        0.9449730    -2.0486830     1.8550460
  H        1.8828740    -2.9264540     0.6079930
  H        0.1338470    -2.6618440     0.4039710
units angstrom
no_reorient  #important for SAPT in psi4, default
symmetry c1  #important for SAPT in psi4, default
}

set PROPERTIES_ORIGIN ["COM"]
properties('MP2/aug-cc-pvtz', properties = ['dipole'])
--------------------------------------------------------------------------

    Molecular point group: c1
  Charge       = 0
  Multiplicity = 1
  Basis Set: AUG-CC-PVTZ
    Blend: AUG-CC-PVTZ
  Basis Set: (AUG-CC-PVTZ AUX)
    Blend: AUG-CC-PVTZ-JKFIT

    Orbital Energies [Eh]
    ---------------------

    Doubly Occupied:

       1A    -20.558222     2A    -20.548392     3A    -11.345953
       4A    -11.337975     5A    -11.259020     6A    -11.252805
       7A    -11.237838     8A    -11.235491     9A    -11.225920
      10A    -11.218513    11A     -1.392304    12A     -1.378145
      13A     -1.107473    14A     -1.060613    15A     -1.022319
      16A     -0.969645    17A     -0.894715    18A     -0.839233
      19A     -0.768447    20A     -0.723738    21A     -0.683053
      22A     -0.671747    23A     -0.644585    24A     -0.626336
      25A     -0.623018    26A     -0.597804    27A     -0.591554
      28A     -0.567942    29A     -0.556576    30A     -0.537826
      31A     -0.534874    32A     -0.522571    33A     -0.511993
      34A     -0.506148    35A     -0.492142    36A     -0.484970
      37A     -0.481887    38A     -0.427096    39A     -0.407210

  @DF-RHF Final Energy:  -460.99170640672241

   => Energetics <=

    Nuclear Repulsion Energy =            550.9936232508165403
    One-Electron Energy =               -1720.2784772135571529
    Two-Electron Energy =                 708.2931475560183117
    Total Energy =                       -460.9917064067224146
  Basis Set: (AUG-CC-PVTZ AUX)
    Blend: AUG-CC-PVTZ-RI
    Molecular point group: c1

    Geometry (in Angstrom), charge = 0, multiplicity = 1:

       Center              X                  Y                   Z               Mass
    ------------   -----------------  -----------------  -----------------  -----------------
         O           -1.180456707611    -0.789097455307    -1.086330117811    15.994914619570
         O            2.233437292389    -0.803692455307    -0.726058117811    15.994914619570
         C            0.385924292389     0.272232544693     0.386232882189    12.000000000000
         C            0.841519292389     1.566448544693    -0.303758117811    12.000000000000
         C           -1.018452707611    -0.080309455307    -0.094472117811    12.000000000000
         C            1.318751292389    -0.900573455307     0.085289882189    12.000000000000
         C           -2.182799707611     0.504510544693     0.677987882189    12.000000000000
         C            2.094132292389     2.164191544693     0.330867882189    12.000000000000
         C            1.037862292389    -2.190167455307     0.821521882189    12.000000000000
         C           -3.522341707611     0.293887544693    -0.012342117811    12.000000000000
         H            0.358347292389     0.427832544693     1.475715882189     1.007825032230
         H            0.968928392389     1.382145144693    -1.374421117811     1.007825032230
         H            0.027562292389     2.300989544693    -0.268216117811     1.007825032230
         H           -1.983862707611     1.569165544693     0.855402882189     1.007825032230
         H           -2.172951707611     0.037608544693     1.673456882189     1.007825032230
         H            2.931536292389     1.468418544693     0.257112882189     1.007825032230
         H            2.377782292389     3.090636544693    -0.176970117811     1.007825032230
         H            1.923946292389     2.399501544693     1.386610882189     1.007825032230
         H           -3.713060707611    -0.769607455307    -0.166434117811     1.007825032230
         H           -3.530895707611     0.775363544693    -0.992600117811     1.007825032230
         H           -4.334025707611     0.712982544693     0.587880882189     1.007825032230
         H            0.918602292389    -2.012042455307     1.894928882189     1.007825032230
         H            1.856503292389    -2.889813455307     0.647875882189     1.007825032230
         H            0.107476292389    -2.625203455307     0.443853882189     1.007825032230

  Basis Set: AUG-CC-PVTZ
    Blend: AUG-CC-PVTZ
  Basis Set: (AUG-CC-PVTZ AUX)
    Blend: AUG-CC-PVTZ-JKFIT
	 Reference Energy          =    -460.9917064067224146 [Eh]
	 Singles Energy            =      -0.0000000000000000 [Eh]
	 Same-Spin Energy          =      -0.4687897384103904 [Eh]
	 Opposite-Spin Energy      =      -1.5686233224526747 [Eh]
	 Correlation Energy        =      -2.0374130608630652 [Eh]
	 Total Energy              =    -463.0291194675854740 [Eh]

	 ================> DF-SCS-MP2 Energies <==================
	-----------------------------------------------------------
	 SCS Same-Spin Scale       =       0.3333333333333333 [-]
	 SCS Opposite-Spin Scale   =       1.2000000000000000 [-]
	 SCS Same-Spin Energy      =      -0.1562632461367968 [Eh]
	 SCS Opposite-Spin Energy  =      -1.8823479869432096 [Eh]
	 SCS Correlation Energy    =      -2.0386112330800064 [Eh]
	 SCS Total Energy          =    -463.0303176398024334 [Eh]
	-----------------------------------------------------------

  Dipole Moment: [D]
     X:    -1.7879      Y:     1.4354      Z:     3.5841     Total:     4.2547

*** Psi4 exiting successfully. Buy a developer a beer!
