                               Psi4 1.4a3.dev225

  ==> Input File <==

--------------------------------------------------------------------------
#psi4
#
memory 32 gb

molecule  {
0 1
  O       -1.1540860    -0.8257380    -1.1262130
  O        2.2598080    -0.8403330    -0.7659410
  C        0.4122950     0.2355920     0.3463500
  C        0.8678900     1.5298080    -0.3436410
  C       -0.9920820    -0.1169500    -0.1343550
  C        1.3451220    -0.9372140     0.0454070
  C       -2.1564290     0.4678700     0.6381050
  C        2.1205030     2.1275510     0.2909850
  C        1.0642330    -2.2268080     0.7816390
  C       -3.4959710     0.2572470    -0.0522250
  H        0.3847180     0.3911920     1.4358330
  H        1.0510700     1.2964920    -1.3965080
  H       -0.0944682     2.3982710    -0.3016190
  H       -1.9574920     1.5325250     0.8155200
  H       -2.1465810     0.0009680     1.6335740
  H        2.9579070     1.4317780     0.2172300
  H        2.4041530     3.0539960    -0.2168530
  H        1.9503170     2.3628610     1.3467280
  H       -3.6866900    -0.8062480    -0.2063170
  H       -3.5045250     0.7387230    -1.0324830
  H       -4.3076550     0.6763420     0.5479980
  H        0.9449730    -2.0486830     1.8550460
  H        1.8828740    -2.9264540     0.6079930
  H        0.1338470    -2.6618440     0.4039710
units angstrom
no_reorient  #important for SAPT in psi4, default
symmetry c1  #important for SAPT in psi4, default
}

set PROPERTIES_ORIGIN ["COM"]
properties('MP2/aug-cc-pvtz', properties = ['dipole'])
--------------------------------------------------------------------------

    Molecular point group: c1
  Charge       = 0
  Multiplicity = 1
  Basis Set: AUG-CC-PVTZ
    Blend: AUG-CC-PVTZ
  Basis Set: (AUG-CC-PVTZ AUX)
    Blend: AUG-CC-PVTZ-JKFIT

    Orbital Energies [Eh]
    ---------------------

    Doubly Occupied:

       1A    -20.558246     2A    -20.550710     3A    -11.346254
       4A    -11.340598     5A    -11.261481     6A    -11.260879
       7A    -11.251659     8A    -11.237057     9A    -11.225164
      10A    -11.220822    11A     -1.392780    12A     -1.380322
      13A     -1.106301    14A     -1.059617    15A     -1.022090
      16A     -0.970536    17A     -0.894645    18A     -0.826157
      19A     -0.769242    20A     -0.724112    21A     -0.683530
      22A     -0.670549    23A     -0.642312    24A     -0.626253
      25A     -0.623126    26A     -0.597449    27A     -0.588090
      28A     -0.568825    29A     -0.557638    30A     -0.538574
      31A     -0.534907    32A     -0.522091    33A     -0.511280
      34A     -0.498747    35A     -0.492729    36A     -0.485615
      37A     -0.470834    38A     -0.428109    39A     -0.407393

  @DF-RHF Final Energy:  -460.97239714873768

   => Energetics <=

    Nuclear Repulsion Energy =            550.2343496189442931
    One-Electron Energy =               -1718.7200437220958520
    Two-Electron Energy =                 707.5132969544140451
    Total Energy =                       -460.9723971487376275
  Basis Set: (AUG-CC-PVTZ AUX)
    Blend: AUG-CC-PVTZ-RI
    Molecular point group: c1

    Geometry (in Angstrom), charge = 0, multiplicity = 1:

       Center              X                  Y                   Z               Mass
    ------------   -----------------  -----------------  -----------------  -----------------
         O           -1.179799736868    -0.789699666372    -1.086502292810    15.994914619570
         O            2.234094263132    -0.804294666372    -0.726230292810    15.994914619570
         C            0.386581263132     0.271630333628     0.386060707190    12.000000000000
         C            0.842176263132     1.565846333628    -0.303930292810    12.000000000000
         C           -1.017795736868    -0.080911666372    -0.094644292810    12.000000000000
         C            1.319408263132    -0.901175666372     0.085117707190    12.000000000000
         C           -2.182142736868     0.503908333628     0.677815707190    12.000000000000
         C            2.094789263132     2.163589333628     0.330695707190    12.000000000000
         C            1.038519263132    -2.190769666372     0.821349707190    12.000000000000
         C           -3.521684736868     0.293285333628    -0.012514292810    12.000000000000
         H            0.359004263132     0.427230333628     1.475543707190     1.007825032230
         H            1.025356263132     1.332530333628    -1.356797292810     1.007825032230
         H           -0.120181936868     2.434309333628    -0.261908292810     1.007825032230
         H           -1.983205736868     1.568563333628     0.855230707190     1.007825032230
         H           -2.172294736868     0.037006333628     1.673284707190     1.007825032230
         H            2.932193263132     1.467816333628     0.256940707190     1.007825032230
         H            2.378439263132     3.090034333628    -0.177142292810     1.007825032230
         H            1.924603263132     2.398899333628     1.386438707190     1.007825032230
         H           -3.712403736868    -0.770209666372    -0.166606292810     1.007825032230
         H           -3.530238736868     0.774761333628    -0.992772292810     1.007825032230
         H           -4.333368736868     0.712380333628     0.587708707190     1.007825032230
         H            0.919259263132    -2.012644666372     1.894756707190     1.007825032230
         H            1.857160263132    -2.890415666372     0.647703707190     1.007825032230
         H            0.108133263132    -2.625805666372     0.443681707190     1.007825032230

  Basis Set: AUG-CC-PVTZ
    Blend: AUG-CC-PVTZ
  Basis Set: (AUG-CC-PVTZ AUX)
    Blend: AUG-CC-PVTZ-JKFIT
	 Reference Energy          =    -460.9723971487376843 [Eh]
	 Singles Energy            =      -0.0000000000000000 [Eh]
	 Same-Spin Energy          =      -0.4689791211474778 [Eh]
	 Opposite-Spin Energy      =      -1.5704359070638754 [Eh]
	 Correlation Energy        =      -2.0394150282113532 [Eh]
	 Total Energy              =    -463.0118121769490358 [Eh]

	 ================> DF-SCS-MP2 Energies <==================
	-----------------------------------------------------------
	 SCS Same-Spin Scale       =       0.3333333333333333 [-]
	 SCS Opposite-Spin Scale   =       1.2000000000000000 [-]
	 SCS Same-Spin Energy      =      -0.1563263737158259 [Eh]
	 SCS Opposite-Spin Energy  =      -1.8845230884766504 [Eh]
	 SCS Correlation Energy    =      -2.0408494621924764 [Eh]
	 SCS Total Energy          =    -463.0132466109301390 [Eh]
	-----------------------------------------------------------

  Dipole Moment: [D]
     X:    -1.6236      Y:     1.2888      Z:     3.6138     Total:     4.1661

*** Psi4 exiting successfully. Buy a developer a beer!
