                               Psi4 1.4a3.dev225

  ==> Input File <==

--------------------------------------------------------------------------
#psi4
#
memory 32 gb

molecule  {
0 1
  O       -1.1540860    -0.8257380    -1.1262130
  O        2.2598080    -0.8403330    -0.7659410
  C        0.4122950     0.2355920     0.3463500
  C        0.8678900     1.5298080    -0.3436410
  C       -0.9920820    -0.1169500    -0.1343550
  C        1.3451220    -0.9372140     0.0454070
  C       -2.1564290     0.4678700     0.6381050
  C        2.1205030     2.1275510     0.2909850
  C        1.0642330    -2.2268080     0.7816390
  C       -3.4959710     0.2572470    -0.0522250
  H        0.3847180     0.3911920     1.4358330
  H        0.9671638     1.3703627    -1.4212504
  H        0.0539330     2.2643490    -0.3080990
  H       -1.9574920     1.5325250     0.8155200
  H       -2.1465810     0.0009680     1.6335740
  H        2.9579070     1.4317780     0.2172300
  H        2.4041530     3.0539960    -0.2168530
  H        1.9503170     2.3628610     1.3467280
  H       -3.6866900    -0.8062480    -0.2063170
  H       -3.5045250     0.7387230    -1.0324830
  H       -4.3076550     0.6763420     0.5479980
  H        0.9449730    -2.0486830     1.8550460
  H        1.8828740    -2.9264540     0.6079930
  H        0.1338470    -2.6618440     0.4039710
units angstrom
no_reorient  #important for SAPT in psi4, default
symmetry c1  #important for SAPT in psi4, default
}

set PROPERTIES_ORIGIN ["COM"]
properties('MP2/aug-cc-pvtz', properties = ['dipole'])
--------------------------------------------------------------------------

    Molecular point group: c1
  Charge       = 0
  Multiplicity = 1
  Basis Set: AUG-CC-PVTZ
    Blend: AUG-CC-PVTZ
  Basis Set: (AUG-CC-PVTZ AUX)
    Blend: AUG-CC-PVTZ-JKFIT

    Orbital Energies [Eh]
    ---------------------

    Doubly Occupied:

       1A    -20.558244     2A    -20.548223     3A    -11.345989
       4A    -11.337815     5A    -11.259262     6A    -11.252775
       7A    -11.237981     8A    -11.235420     9A    -11.225923
      10A    -11.218770    11A     -1.392292    12A     -1.377955
      13A     -1.107422    14A     -1.060577    15A     -1.022253
      16A     -0.969662    17A     -0.894697    18A     -0.840103
      19A     -0.768365    20A     -0.723922    21A     -0.683039
      22A     -0.671017    23A     -0.644752    24A     -0.626515
      25A     -0.622912    26A     -0.597230    27A     -0.591383
      28A     -0.567835    29A     -0.556618    30A     -0.537911
      31A     -0.534864    32A     -0.522538    33A     -0.513205
      34A     -0.505944    35A     -0.491768    36A     -0.485293
      37A     -0.480948    38A     -0.427041    39A     -0.407083

  @DF-RHF Final Energy:  -460.99103840958406

   => Energetics <=

    Nuclear Repulsion Energy =            550.9490054354974973
    One-Electron Energy =               -1720.1889993890536061
    Two-Electron Energy =                 708.2489555439722153
    Total Energy =                       -460.9910384095840072
  Basis Set: (AUG-CC-PVTZ AUX)
    Blend: AUG-CC-PVTZ-RI
    Molecular point group: c1

    Geometry (in Angstrom), charge = 0, multiplicity = 1:

       Center              X                  Y                   Z               Mass
    ------------   -----------------  -----------------  -----------------  -----------------
         O           -1.180257160930    -0.789273758789    -1.086280851194    15.994914619570
         O            2.233636839070    -0.803868758789    -0.726008851194    15.994914619570
         C            0.386123839070     0.272056241211     0.386282148806    12.000000000000
         C            0.841718839070     1.566272241211    -0.303708851194    12.000000000000
         C           -1.018253160930    -0.080485758789    -0.094422851194    12.000000000000
         C            1.318950839070    -0.900749758789     0.085339148806    12.000000000000
         C           -2.182600160930     0.504334241211     0.678037148806    12.000000000000
         C            2.094331839070     2.164015241211     0.330917148806    12.000000000000
         C            1.038061839070    -2.190343758789     0.821571148806    12.000000000000
         C           -3.522142160930     0.293711241211    -0.012292851194    12.000000000000
         H            0.358546839070     0.427656241211     1.475765148806     1.007825032230
         H            0.940992639070     1.406826941211    -1.381318251194     1.007825032230
         H            0.027761839070     2.300813241211    -0.268166851194     1.007825032230
         H           -1.983663160930     1.568989241211     0.855452148806     1.007825032230
         H           -2.172752160930     0.037432241211     1.673506148806     1.007825032230
         H            2.931735839070     1.468242241211     0.257162148806     1.007825032230
         H            2.377981839070     3.090460241211    -0.176920851194     1.007825032230
         H            1.924145839070     2.399325241211     1.386660148806     1.007825032230
         H           -3.712861160930    -0.769783758789    -0.166384851194     1.007825032230
         H           -3.530696160930     0.775187241211    -0.992550851194     1.007825032230
         H           -4.333826160930     0.712806241211     0.587930148806     1.007825032230
         H            0.918801839070    -2.012218758789     1.894978148806     1.007825032230
         H            1.856702839070    -2.889989758789     0.647925148806     1.007825032230
         H            0.107675839070    -2.625379758789     0.443903148806     1.007825032230

  Basis Set: AUG-CC-PVTZ
    Blend: AUG-CC-PVTZ
  Basis Set: (AUG-CC-PVTZ AUX)
    Blend: AUG-CC-PVTZ-JKFIT
	 Reference Energy          =    -460.9910384095840641 [Eh]
	 Singles Energy            =      -0.0000000000000000 [Eh]
	 Same-Spin Energy          =      -0.4687863567958427 [Eh]
	 Opposite-Spin Energy      =      -1.5686213566869593 [Eh]
	 Correlation Energy        =      -2.0374077134828021 [Eh]
	 Total Energy              =    -463.0284461230668853 [Eh]

	 ================> DF-SCS-MP2 Energies <==================
	-----------------------------------------------------------
	 SCS Same-Spin Scale       =       0.3333333333333333 [-]
	 SCS Opposite-Spin Scale   =       1.2000000000000000 [-]
	 SCS Same-Spin Energy      =      -0.1562621189319476 [Eh]
	 SCS Opposite-Spin Energy  =      -1.8823456280243511 [Eh]
	 SCS Correlation Energy    =      -2.0386077469562989 [Eh]
	 SCS Total Energy          =    -463.0296461565403661 [Eh]
	-----------------------------------------------------------

  Dipole Moment: [D]
     X:    -1.7959      Y:     1.4479      Z:     3.5814     Total:     4.2601

*** Psi4 exiting successfully. Buy a developer a beer!
