                               Psi4 1.4a3.dev225

  ==> Input File <==

--------------------------------------------------------------------------
#psi4
#
memory 32 gb

molecule  {
0 1
  O       -1.1540860    -0.8257380    -1.1262130
  O        2.2598080    -0.8403330    -0.7659410
  C        0.4122950     0.2355920     0.3463500
  C        1.0052836     1.5152715    -0.2614610
  C       -0.9920820    -0.1169500    -0.1343550
  C        1.3451220    -0.9372140     0.0454070
  C       -2.1564290     0.4678700     0.6381050
  C        2.1205030     2.1275510     0.2909850
  C        1.0642330    -2.2268080     0.7816390
  C       -3.4959710     0.2572470    -0.0522250
  H        0.3847180     0.3911920     1.4358330
  H        1.0510700     1.2964920    -1.3965080
  H        0.0539330     2.2643490    -0.3080990
  H       -1.9574920     1.5325250     0.8155200
  H       -2.1465810     0.0009680     1.6335740
  H        2.9579070     1.4317780     0.2172300
  H        2.4041530     3.0539960    -0.2168530
  H        1.9503170     2.3628610     1.3467280
  H       -3.6866900    -0.8062480    -0.2063170
  H       -3.5045250     0.7387230    -1.0324830
  H       -4.3076550     0.6763420     0.5479980
  H        0.9449730    -2.0486830     1.8550460
  H        1.8828740    -2.9264540     0.6079930
  H        0.1338470    -2.6618440     0.4039710
units angstrom
no_reorient  #important for SAPT in psi4, default
symmetry c1  #important for SAPT in psi4, default
}

set PROPERTIES_ORIGIN ["COM"]
properties('MP2/aug-cc-pvtz', properties = ['dipole'])
--------------------------------------------------------------------------

    Molecular point group: c1
  Charge       = 0
  Multiplicity = 1
  Basis Set: AUG-CC-PVTZ
    Blend: AUG-CC-PVTZ
  Basis Set: (AUG-CC-PVTZ AUX)
    Blend: AUG-CC-PVTZ-JKFIT

    Orbital Energies [Eh]
    ---------------------

    Doubly Occupied:

       1A    -20.561633     2A    -20.549103     3A    -11.349079
       4A    -11.337391     5A    -11.260271     6A    -11.253084
       7A    -11.246556     8A    -11.234915     9A    -11.226175
      10A    -11.212986    11A     -1.394594    12A     -1.379448
      13A     -1.115177    14A     -1.065407    15A     -1.033099
      16A     -0.980607    17A     -0.896764    18A     -0.819956
      19A     -0.770316    20A     -0.723604    21A     -0.686186
      22A     -0.672698    23A     -0.644677    24A     -0.628274
      25A     -0.624975    26A     -0.600322    27A     -0.594501
      28A     -0.578948    29A     -0.565846    30A     -0.549233
      31A     -0.536447    32A     -0.525570    33A     -0.522229
      34A     -0.498781    35A     -0.490829    36A     -0.471491
      37A     -0.450180    38A     -0.432357    39A     -0.404722

  @DF-RHF Final Energy:  -460.96183422867784

   => Energetics <=

    Nuclear Repulsion Energy =            551.7638671528877694
    One-Electron Energy =               -1721.6745421527691633
    Two-Electron Energy =                 708.9488407712035496
    Total Energy =                       -460.9618342286778443
  Basis Set: (AUG-CC-PVTZ AUX)
    Blend: AUG-CC-PVTZ-RI
    Molecular point group: c1

    Geometry (in Angstrom), charge = 0, multiplicity = 1:

       Center              X                  Y                   Z               Mass
    ------------   -----------------  -----------------  -----------------  -----------------
         O           -1.192454863499    -0.787522261061    -1.093396265858    15.994914619570
         O            2.221439136501    -0.802117261061    -0.733124265858    15.994914619570
         C            0.373926136501     0.273807738939     0.379166734142    12.000000000000
         C            0.966914736501     1.553487238939    -0.228644265858    12.000000000000
         C           -1.030450863499    -0.078734261061    -0.101538265858    12.000000000000
         C            1.306753136501    -0.898998261061     0.078223734142    12.000000000000
         C           -2.194797863499     0.506085738939     0.670921734142    12.000000000000
         C            2.082134136501     2.165766738939     0.323801734142    12.000000000000
         C            1.025864136501    -2.188592261061     0.814455734142    12.000000000000
         C           -3.534339863499     0.295462738939    -0.019408265858    12.000000000000
         H            0.346349136501     0.429407738939     1.468649734142     1.007825032230
         H            1.012701136501     1.334707738939    -1.363691265858     1.007825032230
         H            0.015564136501     2.302564738939    -0.275282265858     1.007825032230
         H           -1.995860863499     1.570740738939     0.848336734142     1.007825032230
         H           -2.184949863499     0.039183738939     1.666390734142     1.007825032230
         H            2.919538136501     1.469993738939     0.250046734142     1.007825032230
         H            2.365784136501     3.092211738939    -0.184036265858     1.007825032230
         H            1.911948136501     2.401076738939     1.379544734142     1.007825032230
         H           -3.725058863499    -0.768032261061    -0.173500265858     1.007825032230
         H           -3.542893863499     0.776938738939    -0.999666265858     1.007825032230
         H           -4.346023863499     0.714557738939     0.580814734142     1.007825032230
         H            0.906604136501    -2.010467261061     1.887862734142     1.007825032230
         H            1.844505136501    -2.888238261061     0.640809734142     1.007825032230
         H            0.095478136501    -2.623628261061     0.436787734142     1.007825032230

  Basis Set: AUG-CC-PVTZ
    Blend: AUG-CC-PVTZ
  Basis Set: (AUG-CC-PVTZ AUX)
    Blend: AUG-CC-PVTZ-JKFIT
	 Reference Energy          =    -460.9618342286778443 [Eh]
	 Singles Energy            =      -0.0000000000000000 [Eh]
	 Same-Spin Energy          =      -0.4705657349523423 [Eh]
	 Opposite-Spin Energy      =      -1.5712560074667907 [Eh]
	 Correlation Energy        =      -2.0418217424191329 [Eh]
	 Total Energy              =    -463.0036559710969755 [Eh]

	 ================> DF-SCS-MP2 Energies <==================
	-----------------------------------------------------------
	 SCS Same-Spin Scale       =       0.3333333333333333 [-]
	 SCS Opposite-Spin Scale   =       1.2000000000000000 [-]
	 SCS Same-Spin Energy      =      -0.1568552449841141 [Eh]
	 SCS Opposite-Spin Energy  =      -1.8855072089601488 [Eh]
	 SCS Correlation Energy    =      -2.0423624539442629 [Eh]
	 SCS Total Energy          =    -463.0041966826220801 [Eh]
	-----------------------------------------------------------

  Dipole Moment: [D]
     X:    -1.7049      Y:     1.3867      Z:     3.6037     Total:     4.2209

*** Psi4 exiting successfully. Buy a developer a beer!
