                               Psi4 1.4a3.dev225

  ==> Input File <==

--------------------------------------------------------------------------
#psi4
#
memory 32 gb

molecule  {
0 1
  O       -1.1540860    -0.8257380    -1.1262130
  O        2.2598080    -0.8403330    -0.7659410
  C        0.4122950     0.2355920     0.3463500
  C        0.8678900     1.5298080    -0.3436410
  C       -0.9920820    -0.1169500    -0.1343550
  C        1.3451220    -0.9372140     0.0454070
  C       -2.1564290     0.4678700     0.6381050
  C        2.1205030     2.1275510     0.2909850
  C        1.0642330    -2.2268080     0.7816390
  C       -3.4959710     0.2572470    -0.0522250
  H        0.3847180     0.3911920     1.4358330
  H        1.0845625     1.2538326    -1.5890137
  H        0.0539330     2.2643490    -0.3080990
  H       -1.9574920     1.5325250     0.8155200
  H       -2.1465810     0.0009680     1.6335740
  H        2.9579070     1.4317780     0.2172300
  H        2.4041530     3.0539960    -0.2168530
  H        1.9503170     2.3628610     1.3467280
  H       -3.6866900    -0.8062480    -0.2063170
  H       -3.5045250     0.7387230    -1.0324830
  H       -4.3076550     0.6763420     0.5479980
  H        0.9449730    -2.0486830     1.8550460
  H        1.8828740    -2.9264540     0.6079930
  H        0.1338470    -2.6618440     0.4039710
units angstrom
no_reorient  #important for SAPT in psi4, default
symmetry c1  #important for SAPT in psi4, default
}

set PROPERTIES_ORIGIN ["COM"]
properties('MP2/aug-cc-pvtz', properties = ['dipole'])
--------------------------------------------------------------------------

    Molecular point group: c1
  Charge       = 0
  Multiplicity = 1
  Basis Set: AUG-CC-PVTZ
    Blend: AUG-CC-PVTZ
  Basis Set: (AUG-CC-PVTZ AUX)
    Blend: AUG-CC-PVTZ-JKFIT

    Orbital Energies [Eh]
    ---------------------

    Doubly Occupied:

       1A    -20.558171     2A    -20.548423     3A    -11.346050
       4A    -11.338281     5A    -11.260500     6A    -11.258230
       7A    -11.253203     8A    -11.235821     9A    -11.226027
      10A    -11.219873    11A     -1.392150    12A     -1.378214
      13A     -1.105905    14A     -1.060132    15A     -1.020916
      16A     -0.969876    17A     -0.894880    18A     -0.827539
      19A     -0.768177    20A     -0.720365    21A     -0.682345
      22A     -0.671101    23A     -0.644075    24A     -0.626021
      25A     -0.621375    26A     -0.593717    27A     -0.592283
      28A     -0.567432    29A     -0.557111    30A     -0.538306
      31A     -0.535080    32A     -0.522761    33A     -0.509890
      34A     -0.506924    35A     -0.488893    36A     -0.483583
      37A     -0.459602    38A     -0.427561    39A     -0.407574

  @DF-RHF Final Energy:  -460.97137319205507

   => Energetics <=

    Nuclear Repulsion Energy =            550.2402834909607918
    One-Electron Energy =               -1718.7865811373806082
    Two-Electron Energy =                 707.5749244543648047
    Total Energy =                       -460.9713731920550117
  Basis Set: (AUG-CC-PVTZ AUX)
    Blend: AUG-CC-PVTZ-RI
    Molecular point group: c1

    Geometry (in Angstrom), charge = 0, multiplicity = 1:

       Center              X                  Y                   Z               Mass
    ------------   -----------------  -----------------  -----------------  -----------------
         O           -1.181089798967    -0.788447281206    -1.085091007483    15.994914619570
         O            2.232804201033    -0.803042281206    -0.724819007483    15.994914619570
         C            0.385291201033     0.272882718794     0.387471992517    12.000000000000
         C            0.840886201033     1.567098718794    -0.302519007483    12.000000000000
         C           -1.019085798967    -0.079659281206    -0.093233007483    12.000000000000
         C            1.318118201033    -0.899923281206     0.086528992517    12.000000000000
         C           -2.183432798967     0.505160718794     0.679226992517    12.000000000000
         C            2.093499201033     2.164841718794     0.332106992517    12.000000000000
         C            1.037229201033    -2.189517281206     0.822760992517    12.000000000000
         C           -3.522974798967     0.294537718794    -0.011103007483    12.000000000000
         H            0.357714201033     0.428482718794     1.476954992517     1.007825032230
         H            1.057558701033     1.291123318794    -1.547891707483     1.007825032230
         H            0.026929201033     2.301639718794    -0.266977007483     1.007825032230
         H           -1.984495798967     1.569815718794     0.856641992517     1.007825032230
         H           -2.173584798967     0.038258718794     1.674695992517     1.007825032230
         H            2.930903201033     1.469068718794     0.258351992517     1.007825032230
         H            2.377149201033     3.091286718794    -0.175731007483     1.007825032230
         H            1.923313201033     2.400151718794     1.387849992517     1.007825032230
         H           -3.713693798967    -0.768957281206    -0.165195007483     1.007825032230
         H           -3.531528798967     0.776013718794    -0.991361007483     1.007825032230
         H           -4.334658798967     0.713632718794     0.589119992517     1.007825032230
         H            0.917969201033    -2.011392281206     1.896167992517     1.007825032230
         H            1.855870201033    -2.889163281206     0.649114992517     1.007825032230
         H            0.106843201033    -2.624553281206     0.445092992517     1.007825032230

  Basis Set: AUG-CC-PVTZ
    Blend: AUG-CC-PVTZ
  Basis Set: (AUG-CC-PVTZ AUX)
    Blend: AUG-CC-PVTZ-JKFIT
	 Reference Energy          =    -460.9713731920550686 [Eh]
	 Singles Energy            =      -0.0000000000000000 [Eh]
	 Same-Spin Energy          =      -0.4692745630551339 [Eh]
	 Opposite-Spin Energy      =      -1.5708155439483704 [Eh]
	 Correlation Energy        =      -2.0400901070035045 [Eh]
	 Total Energy              =    -463.0114632990585619 [Eh]

	 ================> DF-SCS-MP2 Energies <==================
	-----------------------------------------------------------
	 SCS Same-Spin Scale       =       0.3333333333333333 [-]
	 SCS Opposite-Spin Scale   =       1.2000000000000000 [-]
	 SCS Same-Spin Energy      =      -0.1564248543517113 [Eh]
	 SCS Opposite-Spin Energy  =      -1.8849786527380443 [Eh]
	 SCS Correlation Energy    =      -2.0414035070897558 [Eh]
	 SCS Total Energy          =    -463.0127766991448084 [Eh]
	-----------------------------------------------------------

  Dipole Moment: [D]
     X:    -1.7547      Y:     1.3942      Z:     3.6734     Total:     4.3031

*** Psi4 exiting successfully. Buy a developer a beer!
