                               Psi4 1.4a3.dev225

  ==> Input File <==

--------------------------------------------------------------------------
#psi4
#
memory 32 gb

molecule  {
0 1
  O       -1.1540860    -0.8257380    -1.1262130
  O        2.2598080    -0.8403330    -0.7659410
  C        0.4122950     0.2355920     0.3463500
  C        0.8678900     1.5298080    -0.3436410
  C       -1.1761829    -0.1631650    -0.1973710
  C        1.3451220    -0.9372140     0.0454070
  C       -2.1564290     0.4678700     0.6381050
  C        2.1205030     2.1275510     0.2909850
  C        1.0642330    -2.2268080     0.7816390
  C       -3.4959710     0.2572470    -0.0522250
  H        0.3847180     0.3911920     1.4358330
  H        1.0510700     1.2964920    -1.3965080
  H        0.0539330     2.2643490    -0.3080990
  H       -1.9574920     1.5325250     0.8155200
  H       -2.1465810     0.0009680     1.6335740
  H        2.9579070     1.4317780     0.2172300
  H        2.4041530     3.0539960    -0.2168530
  H        1.9503170     2.3628610     1.3467280
  H       -3.6866900    -0.8062480    -0.2063170
  H       -3.5045250     0.7387230    -1.0324830
  H       -4.3076550     0.6763420     0.5479980
  H        0.9449730    -2.0486830     1.8550460
  H        1.8828740    -2.9264540     0.6079930
  H        0.1338470    -2.6618440     0.4039710
units angstrom
no_reorient  #important for SAPT in psi4, default
symmetry c1  #important for SAPT in psi4, default
}

set PROPERTIES_ORIGIN ["COM"]
properties('MP2/aug-cc-pvtz', properties = ['dipole'])
--------------------------------------------------------------------------

    Molecular point group: c1
  Charge       = 0
  Multiplicity = 1
  Basis Set: AUG-CC-PVTZ
    Blend: AUG-CC-PVTZ
  Basis Set: (AUG-CC-PVTZ AUX)
    Blend: AUG-CC-PVTZ-JKFIT

    Orbital Energies [Eh]
    ---------------------

    Doubly Occupied:

       1A    -20.573561     2A    -20.538629     3A    -11.347849
       4A    -11.326624     5A    -11.258111     6A    -11.241581
       7A    -11.233136     8A    -11.229882     9A    -11.224497
      10A    -11.208801    11A     -1.461223    12A     -1.370567
      13A     -1.101426    14A     -1.067575    15A     -1.012737
      16A     -0.948103    17A     -0.902918    18A     -0.823699
      19A     -0.761546    20A     -0.720964    21A     -0.696681
      22A     -0.668043    23A     -0.657517    24A     -0.650374
      25A     -0.617923    26A     -0.592615    27A     -0.584828
      28A     -0.570061    29A     -0.552937    30A     -0.549377
      31A     -0.542263    32A     -0.532825    33A     -0.517473
      34A     -0.514246    35A     -0.494389    36A     -0.476331
      37A     -0.475757    38A     -0.409243    39A     -0.373825

  @DF-RHF Final Energy:  -460.96262160280179

   => Energetics <=

    Nuclear Repulsion Energy =            550.6216200305906341
    One-Electron Energy =               -1719.5082106629647569
    Two-Electron Energy =                 707.9239690295721630
    Total Energy =                       -460.9626216028018462
  Basis Set: (AUG-CC-PVTZ AUX)
    Blend: AUG-CC-PVTZ-RI
    Molecular point group: c1

    Geometry (in Angstrom), charge = 0, multiplicity = 1:

       Center              X                  Y                   Z               Mass
    ------------   -----------------  -----------------  -----------------  -----------------
         O           -1.165305315004    -0.784847076969    -1.081134762650    15.994914619570
         O            2.248588684996    -0.799442076969    -0.720862762650    15.994914619570
         C            0.401075684996     0.276482923031     0.391428237350    12.000000000000
         C            0.856670684996     1.570698923031    -0.298562762650    12.000000000000
         C           -1.187402215004    -0.122274076969    -0.152292762650    12.000000000000
         C            1.333902684996    -0.896323076969     0.090485237350    12.000000000000
         C           -2.167648315004     0.508760923031     0.683183237350    12.000000000000
         C            2.109283684996     2.168441923031     0.336063237350    12.000000000000
         C            1.053013684996    -2.185917076969     0.826717237350    12.000000000000
         C           -3.507190315004     0.298137923031    -0.007146762650    12.000000000000
         H            0.373498684996     0.432082923031     1.480911237350     1.007825032230
         H            1.039850684996     1.337382923031    -1.351429762650     1.007825032230
         H            0.042713684996     2.305239923031    -0.263020762650     1.007825032230
         H           -1.968711315004     1.573415923031     0.860598237350     1.007825032230
         H           -2.157800315004     0.041858923031     1.678652237350     1.007825032230
         H            2.946687684996     1.472668923031     0.262308237350     1.007825032230
         H            2.392933684996     3.094886923031    -0.171774762650     1.007825032230
         H            1.939097684996     2.403751923031     1.391806237350     1.007825032230
         H           -3.697909315004    -0.765357076969    -0.161238762650     1.007825032230
         H           -3.515744315004     0.779613923031    -0.987404762650     1.007825032230
         H           -4.318874315004     0.717232923031     0.593076237350     1.007825032230
         H            0.933753684996    -2.007792076969     1.900124237350     1.007825032230
         H            1.871654684996    -2.885563076969     0.653071237350     1.007825032230
         H            0.122627684996    -2.620953076969     0.449049237350     1.007825032230

  Basis Set: AUG-CC-PVTZ
    Blend: AUG-CC-PVTZ
  Basis Set: (AUG-CC-PVTZ AUX)
    Blend: AUG-CC-PVTZ-JKFIT
	 Reference Energy          =    -460.9626216028017893 [Eh]
	 Singles Energy            =      -0.0000000000000000 [Eh]
	 Same-Spin Energy          =      -0.4680432063235170 [Eh]
	 Opposite-Spin Energy      =      -1.5661151120759100 [Eh]
	 Correlation Energy        =      -2.0341583183994270 [Eh]
	 Total Energy              =    -462.9967799212012096 [Eh]

	 ================> DF-SCS-MP2 Energies <==================
	-----------------------------------------------------------
	 SCS Same-Spin Scale       =       0.3333333333333333 [-]
	 SCS Opposite-Spin Scale   =       1.2000000000000000 [-]
	 SCS Same-Spin Energy      =      -0.1560144021078390 [Eh]
	 SCS Opposite-Spin Energy  =      -1.8793381344910920 [Eh]
	 SCS Correlation Energy    =      -2.0353525365989311 [Eh]
	 SCS Total Energy          =    -462.9979741394006965 [Eh]
	-----------------------------------------------------------

  Dipole Moment: [D]
     X:    -3.1185      Y:     1.1984      Z:     3.3495     Total:     4.7308

*** Psi4 exiting successfully. Buy a developer a beer!
