                               Psi4 1.4a3.dev225

  ==> Input File <==

--------------------------------------------------------------------------
#psi4
#
memory 32 gb

molecule  {
0 1
  O       -1.1540860    -0.8257380    -1.1262130
  O        2.2598080    -0.8403330    -0.7659410
  C        0.4122950     0.2355920     0.3463500
  C        0.8678900     1.5298080    -0.3436410
  C       -0.9920820    -0.1169500    -0.1343550
  C        1.3451220    -0.9372140     0.0454070
  C       -2.1564290     0.4678700     0.6381050
  C        2.1205030     2.1275510     0.2909850
  C        1.0642330    -2.2268080     0.7816390
  C       -3.4959710     0.2572470    -0.0522250
  H        0.3847180     0.3911920     1.4358330
  H        1.0510700     1.2964920    -1.3965080
  H        0.0539330     2.2643490    -0.3080990
  H       -1.9574920     1.5325250     0.8155200
  H       -2.1465810     0.0009680     1.6335740
  H        2.9485307     1.4326741     0.1416478
  H        2.4041530     3.0539960    -0.2168530
  H        1.9503170     2.3628610     1.3467280
  H       -3.6866900    -0.8062480    -0.2063170
  H       -3.5045250     0.7387230    -1.0324830
  H       -4.3076550     0.6763420     0.5479980
  H        0.9449730    -2.0486830     1.8550460
  H        1.8828740    -2.9264540     0.6079930
  H        0.1338470    -2.6618440     0.4039710
units angstrom
no_reorient  #important for SAPT in psi4, default
symmetry c1  #important for SAPT in psi4, default
}

set PROPERTIES_ORIGIN ["COM"]
properties('MP2/aug-cc-pvtz', properties = ['dipole'])
--------------------------------------------------------------------------

    Molecular point group: c1
  Charge       = 0
  Multiplicity = 1
  Basis Set: AUG-CC-PVTZ
    Blend: AUG-CC-PVTZ
  Basis Set: (AUG-CC-PVTZ AUX)
    Blend: AUG-CC-PVTZ-JKFIT

    Orbital Energies [Eh]
    ---------------------

    Doubly Occupied:

       1A    -20.558133     2A    -20.548920     3A    -11.345857
       4A    -11.338461     5A    -11.258495     6A    -11.252815
       7A    -11.236979     8A    -11.235666     9A    -11.225880
      10A    -11.217750    11A     -1.392336    12A     -1.378746
      13A     -1.107626    14A     -1.060688    15A     -1.022657
      16A     -0.969737    17A     -0.894692    18A     -0.836592
      19A     -0.768592    20A     -0.723361    21A     -0.683249
      22A     -0.673836    23A     -0.643961    24A     -0.625864
      25A     -0.623490    26A     -0.601021    27A     -0.591543
      28A     -0.568770    29A     -0.555171    30A     -0.538213
      31A     -0.535131    32A     -0.522721    33A     -0.509630
      34A     -0.504853    35A     -0.492363    36A     -0.485563
      37A     -0.482083    38A     -0.427178    39A     -0.407348

  @DF-RHF Final Energy:  -460.99147653149157

   => Energetics <=

    Nuclear Repulsion Energy =            551.1400629046103177
    One-Electron Energy =               -1720.5711361173080149
    Two-Electron Energy =                 708.4395966812062397
    Total Energy =                       -460.9914765314915712
  Basis Set: (AUG-CC-PVTZ AUX)
    Blend: AUG-CC-PVTZ-RI
    Molecular point group: c1

    Geometry (in Angstrom), charge = 0, multiplicity = 1:

       Center              X                  Y                   Z               Mass
    ------------   -----------------  -----------------  -----------------  -----------------
         O           -1.180785756474    -0.788756194048    -1.085920275214    15.994914619570
         O            2.233108243526    -0.803351194048    -0.725648275214    15.994914619570
         C            0.385595243526     0.272573805952     0.386642724786    12.000000000000
         C            0.841190243526     1.566789805952    -0.303348275214    12.000000000000
         C           -1.018781756474    -0.079968194048    -0.094062275214    12.000000000000
         C            1.318422243526    -0.900232194048     0.085699724786    12.000000000000
         C           -2.183128756474     0.504851805952     0.678397724786    12.000000000000
         C            2.093803243526     2.164532805952     0.331277724786    12.000000000000
         C            1.037533243526    -2.189826194048     0.821931724786    12.000000000000
         C           -3.522670756474     0.294228805952    -0.011932275214    12.000000000000
         H            0.358018243526     0.428173805952     1.476125724786     1.007825032230
         H            1.024370243526     1.333473805952    -1.356215275214     1.007825032230
         H            0.027233243526     2.301330805952    -0.267806275214     1.007825032230
         H           -1.984191756474     1.569506805952     0.855812724786     1.007825032230
         H           -2.173280756474     0.037949805952     1.673866724786     1.007825032230
         H            2.921830943526     1.469655905952     0.181940524786     1.007825032230
         H            2.377453243526     3.090977805952    -0.176560275214     1.007825032230
         H            1.923617243526     2.399842805952     1.387020724786     1.007825032230
         H           -3.713389756474    -0.769266194048    -0.166024275214     1.007825032230
         H           -3.531224756474     0.775704805952    -0.992190275214     1.007825032230
         H           -4.334354756474     0.713323805952     0.588290724786     1.007825032230
         H            0.918273243526    -2.011701194048     1.895338724786     1.007825032230
         H            1.856174243526    -2.889472194048     0.648285724786     1.007825032230
         H            0.107147243526    -2.624862194048     0.444263724786     1.007825032230

  Basis Set: AUG-CC-PVTZ
    Blend: AUG-CC-PVTZ
  Basis Set: (AUG-CC-PVTZ AUX)
    Blend: AUG-CC-PVTZ-JKFIT
	 Reference Energy          =    -460.9914765314915712 [Eh]
	 Singles Energy            =      -0.0000000000000000 [Eh]
	 Same-Spin Energy          =      -0.4689109441855887 [Eh]
	 Opposite-Spin Energy      =      -1.5687805406180098 [Eh]
	 Correlation Energy        =      -2.0376914848035983 [Eh]
	 Total Energy              =    -463.0291680162951593 [Eh]

	 ================> DF-SCS-MP2 Energies <==================
	-----------------------------------------------------------
	 SCS Same-Spin Scale       =       0.3333333333333333 [-]
	 SCS Opposite-Spin Scale   =       1.2000000000000000 [-]
	 SCS Same-Spin Energy      =      -0.1563036480618629 [Eh]
	 SCS Opposite-Spin Energy  =      -1.8825366487416115 [Eh]
	 SCS Correlation Energy    =      -2.0388402968034742 [Eh]
	 SCS Total Energy          =    -463.0303168282950423 [Eh]
	-----------------------------------------------------------

  Dipole Moment: [D]
     X:    -1.7727      Y:     1.4117      Z:     3.5745     Total:     4.2323

*** Psi4 exiting successfully. Buy a developer a beer!
