                               Psi4 1.4a3.dev225

  ==> Input File <==

--------------------------------------------------------------------------
#psi4
#
memory 32 gb

molecule  {
0 1
  O       -1.1540860    -0.8257380    -1.1262130
  O        2.2598080    -0.8403330    -0.7659410
  C        0.4122950     0.2355920     0.3463500
  C        0.8678900     1.5298080    -0.3436410
  C       -0.8079811    -0.0707350    -0.0713390
  C        1.3451220    -0.9372140     0.0454070
  C       -2.1564290     0.4678700     0.6381050
  C        2.1205030     2.1275510     0.2909850
  C        1.0642330    -2.2268080     0.7816390
  C       -3.4959710     0.2572470    -0.0522250
  H        0.3847180     0.3911920     1.4358330
  H        1.0510700     1.2964920    -1.3965080
  H        0.0539330     2.2643490    -0.3080990
  H       -1.9574920     1.5325250     0.8155200
  H       -2.1465810     0.0009680     1.6335740
  H        2.9579070     1.4317780     0.2172300
  H        2.4041530     3.0539960    -0.2168530
  H        1.9503170     2.3628610     1.3467280
  H       -3.6866900    -0.8062480    -0.2063170
  H       -3.5045250     0.7387230    -1.0324830
  H       -4.3076550     0.6763420     0.5479980
  H        0.9449730    -2.0486830     1.8550460
  H        1.8828740    -2.9264540     0.6079930
  H        0.1338470    -2.6618440     0.4039710
units angstrom
no_reorient  #important for SAPT in psi4, default
symmetry c1  #important for SAPT in psi4, default
}

set PROPERTIES_ORIGIN ["COM"]
properties('MP2/aug-cc-pvtz', properties = ['dipole'])
--------------------------------------------------------------------------

    Molecular point group: c1
  Charge       = 0
  Multiplicity = 1
  Basis Set: AUG-CC-PVTZ
    Blend: AUG-CC-PVTZ
  Basis Set: (AUG-CC-PVTZ AUX)
    Blend: AUG-CC-PVTZ-JKFIT

    Orbital Energies [Eh]
    ---------------------

    Doubly Occupied:

       1A    -20.556325     2A    -20.544287     3A    -11.350990
       4A    -11.348495     5A    -11.259556     6A    -11.255911
       7A    -11.252676     8A    -11.239894     9A    -11.226733
      10A    -11.222020    11A     -1.389119    12A     -1.320806
      13A     -1.146381    14A     -1.043613    15A     -1.032689
      16A     -0.994258    17A     -0.884693    18A     -0.852178
      19A     -0.792953    20A     -0.729528    21A     -0.687871
      22A     -0.662051    23A     -0.646683    24A     -0.623234
      25A     -0.607248    26A     -0.599751    27A     -0.595207
      28A     -0.571347    29A     -0.560744    30A     -0.536529
      31A     -0.531380    32A     -0.513594    33A     -0.511304
      34A     -0.505921    35A     -0.496712    36A     -0.490005
      37A     -0.450619    38A     -0.428661    39A     -0.407451

  @DF-RHF Final Energy:  -460.92689229364186

   => Energetics <=

    Nuclear Repulsion Energy =            551.9891456575221582
    One-Electron Energy =               -1722.0932390973755446
    Two-Electron Energy =                 709.1772011462114733
    Total Energy =                       -460.9268922936419131
  Basis Set: (AUG-CC-PVTZ AUX)
    Blend: AUG-CC-PVTZ-RI
    Molecular point group: c1

    Geometry (in Angstrom), charge = 0, multiplicity = 1:

       Center              X                  Y                   Z               Mass
    ------------   -----------------  -----------------  -----------------  -----------------
         O           -1.196399198803    -0.792652600135    -1.091777905521    15.994914619570
         O            2.217494801197    -0.807247600135    -0.731505905521    15.994914619570
         C            0.369981801197     0.268677399865     0.380785094479    12.000000000000
         C            0.825576801197     1.562893399865    -0.309205905521    12.000000000000
         C           -0.850294298803    -0.037649600135    -0.036903905521    12.000000000000
         C            1.302808801197    -0.904128600135     0.079842094479    12.000000000000
         C           -2.198742198803     0.500955399865     0.672540094479    12.000000000000
         C            2.078189801197     2.160636399865     0.325420094479    12.000000000000
         C            1.021919801197    -2.193722600135     0.816074094479    12.000000000000
         C           -3.538284198803     0.290332399865    -0.017789905521    12.000000000000
         H            0.342404801197     0.424277399865     1.470268094479     1.007825032230
         H            1.008756801197     1.329577399865    -1.362072905521     1.007825032230
         H            0.011619801197     2.297434399865    -0.273663905521     1.007825032230
         H           -1.999805198803     1.565610399865     0.849955094479     1.007825032230
         H           -2.188894198803     0.034053399865     1.668009094479     1.007825032230
         H            2.915593801197     1.464863399865     0.251665094479     1.007825032230
         H            2.361839801197     3.087081399865    -0.182417905521     1.007825032230
         H            1.908003801197     2.395946399865     1.381163094479     1.007825032230
         H           -3.729003198803    -0.773162600135    -0.171881905521     1.007825032230
         H           -3.546838198803     0.771808399865    -0.998047905521     1.007825032230
         H           -4.349968198803     0.709427399865     0.582433094479     1.007825032230
         H            0.902659801197    -2.015597600135     1.889481094479     1.007825032230
         H            1.840560801197    -2.893368600135     0.642428094479     1.007825032230
         H            0.091533801197    -2.628758600135     0.438406094479     1.007825032230

  Basis Set: AUG-CC-PVTZ
    Blend: AUG-CC-PVTZ
  Basis Set: (AUG-CC-PVTZ AUX)
    Blend: AUG-CC-PVTZ-JKFIT
	 Reference Energy          =    -460.9268922936418562 [Eh]
	 Singles Energy            =      -0.0000000000000000 [Eh]
	 Same-Spin Energy          =      -0.4746834508400547 [Eh]
	 Opposite-Spin Energy      =      -1.5795269128652658 [Eh]
	 Correlation Energy        =      -2.0542103637053204 [Eh]
	 Total Energy              =    -462.9811026573471509 [Eh]

	 ================> DF-SCS-MP2 Energies <==================
	-----------------------------------------------------------
	 SCS Same-Spin Scale       =       0.3333333333333333 [-]
	 SCS Opposite-Spin Scale   =       1.2000000000000000 [-]
	 SCS Same-Spin Energy      =      -0.1582278169466849 [Eh]
	 SCS Opposite-Spin Energy  =      -1.8954322954383189 [Eh]
	 SCS Correlation Energy    =      -2.0536601123850038 [Eh]
	 SCS Total Energy          =    -462.9805524060268453 [Eh]
	-----------------------------------------------------------

  Dipole Moment: [D]
     X:    -0.7633      Y:     1.6164      Z:     3.7331     Total:     4.1390

*** Psi4 exiting successfully. Buy a developer a beer!
