                               Psi4 1.4a3.dev225

  ==> Input File <==

--------------------------------------------------------------------------
#psi4
#
memory 32 gb

molecule  {
0 1
  O       -1.1540860    -0.8257380    -1.1262130
  O        2.2598080    -0.8403330    -0.7659410
  C        0.4122950     0.2355920     0.3463500
  C        0.8678900     1.5298080    -0.3436410
  C       -0.9920820    -0.1169500    -0.1343550
  C        1.3451220    -0.9372140     0.0454070
  C       -2.1564290     0.4678700     0.6381050
  C        2.1205030     2.1275510     0.2909850
  C        1.0642330    -2.2268080     0.7816390
  C       -3.4959710     0.2572470    -0.0522250
  H        0.3847180     0.3911920     1.4358330
  H        1.0510700     1.2964920    -1.3965080
  H        0.0539330     2.2643490    -0.3080990
  H       -1.9574920     1.5325250     0.8155200
  H       -2.1465810     0.0009680     1.6335740
  H        2.9579070     1.4317780     0.2172300
  H        2.4041530     3.0539960    -0.2168530
  H        1.9503170     2.3628610     1.3467280
  H       -3.6220081    -0.8093054    -0.2464420
  H       -3.5045250     0.7387230    -1.0324830
  H       -4.3076550     0.6763420     0.5479980
  H        0.9449730    -2.0486830     1.8550460
  H        1.8828740    -2.9264540     0.6079930
  H        0.1338470    -2.6618440     0.4039710
units angstrom
no_reorient  #important for SAPT in psi4, default
symmetry c1  #important for SAPT in psi4, default
}

set PROPERTIES_ORIGIN ["COM"]
properties('MP2/aug-cc-pvtz', properties = ['dipole'])
--------------------------------------------------------------------------

    Molecular point group: c1
  Charge       = 0
  Multiplicity = 1
  Basis Set: AUG-CC-PVTZ
    Blend: AUG-CC-PVTZ
  Basis Set: (AUG-CC-PVTZ AUX)
    Blend: AUG-CC-PVTZ-JKFIT

    Orbital Energies [Eh]
    ---------------------

    Doubly Occupied:

       1A    -20.558474     2A    -20.548855     3A    -11.346134
       4A    -11.338389     5A    -11.258641     6A    -11.252343
       7A    -11.237529     8A    -11.235734     9A    -11.225656
      10A    -11.218030    11A     -1.392687    12A     -1.378698
      13A     -1.107682    14A     -1.060970    15A     -1.022563
      16A     -0.969708    17A     -0.894136    18A     -0.837618
      19A     -0.768490    20A     -0.723538    21A     -0.683973
      22A     -0.673543    23A     -0.643637    24A     -0.625520
      25A     -0.624131    26A     -0.599119    27A     -0.591733
      28A     -0.569308    29A     -0.556570    30A     -0.537636
      31A     -0.536914    32A     -0.521120    33A     -0.508702
      34A     -0.506946    35A     -0.491925    36A     -0.484390
      37A     -0.482984    38A     -0.427410    39A     -0.407558

  @DF-RHF Final Energy:  -460.99151402846195

   => Energetics <=

    Nuclear Repulsion Energy =            551.2286650294510082
    One-Electron Energy =               -1720.7423719083944889
    Two-Electron Energy =                 708.5221928504815878
    Total Energy =                       -460.9915140284620065
  Basis Set: (AUG-CC-PVTZ AUX)
    Blend: AUG-CC-PVTZ-RI
    Molecular point group: c1

    Geometry (in Angstrom), charge = 0, multiplicity = 1:

       Center              X                  Y                   Z               Mass
    ------------   -----------------  -----------------  -----------------  -----------------
         O           -1.181311006535    -0.788728154262    -1.086171751707    15.994914619570
         O            2.232582993465    -0.803323154262    -0.725899751707    15.994914619570
         C            0.385069993465     0.272601845738     0.386391248293    12.000000000000
         C            0.840664993465     1.566817845738    -0.303599751707    12.000000000000
         C           -1.019307006535    -0.079940154262    -0.094313751707    12.000000000000
         C            1.317896993465    -0.900204154262     0.085448248293    12.000000000000
         C           -2.183654006535     0.504879845738     0.678146248293    12.000000000000
         C            2.093277993465     2.164560845738     0.331026248293    12.000000000000
         C            1.037007993465    -2.189798154262     0.821680248293    12.000000000000
         C           -3.523196006535     0.294256845738    -0.012183751707    12.000000000000
         H            0.357492993465     0.428201845738     1.475874248293     1.007825032230
         H            1.023844993465     1.333501845738    -1.356466751707     1.007825032230
         H            0.026707993465     2.301358845738    -0.268057751707     1.007825032230
         H           -1.984717006535     1.569534845738     0.855561248293     1.007825032230
         H           -2.173806006535     0.037977845738     1.673615248293     1.007825032230
         H            2.930681993465     1.468787845738     0.257271248293     1.007825032230
         H            2.376927993465     3.091005845738    -0.176811751707     1.007825032230
         H            1.923091993465     2.399870845738     1.386769248293     1.007825032230
         H           -3.649233106535    -0.772295554262    -0.206400751707     1.007825032230
         H           -3.531750006535     0.775732845738    -0.992441751707     1.007825032230
         H           -4.334880006535     0.713351845738     0.588039248293     1.007825032230
         H            0.917747993465    -2.011673154262     1.895087248293     1.007825032230
         H            1.855648993465    -2.889444154262     0.648034248293     1.007825032230
         H            0.106621993465    -2.624834154262     0.444012248293     1.007825032230

  Basis Set: AUG-CC-PVTZ
    Blend: AUG-CC-PVTZ
  Basis Set: (AUG-CC-PVTZ AUX)
    Blend: AUG-CC-PVTZ-JKFIT
	 Reference Energy          =    -460.9915140284619497 [Eh]
	 Singles Energy            =      -0.0000000000000000 [Eh]
	 Same-Spin Energy          =      -0.4689328723691860 [Eh]
	 Opposite-Spin Energy      =      -1.5687920930921035 [Eh]
	 Correlation Energy        =      -2.0377249654612895 [Eh]
	 Total Energy              =    -463.0292389939232294 [Eh]

	 ================> DF-SCS-MP2 Energies <==================
	-----------------------------------------------------------
	 SCS Same-Spin Scale       =       0.3333333333333333 [-]
	 SCS Opposite-Spin Scale   =       1.2000000000000000 [-]
	 SCS Same-Spin Energy      =      -0.1563109574563953 [Eh]
	 SCS Opposite-Spin Energy  =      -1.8825505117105241 [Eh]
	 SCS Correlation Energy    =      -2.0388614691669193 [Eh]
	 SCS Total Energy          =    -463.0303754976288815 [Eh]
	-----------------------------------------------------------

  Dipole Moment: [D]
     X:    -1.7506      Y:     1.4156      Z:     3.5761     Total:     4.2258

*** Psi4 exiting successfully. Buy a developer a beer!
