                               Psi4 1.4a3.dev225

  ==> Input File <==

--------------------------------------------------------------------------
#psi4
#
memory 32 gb

molecule  {
0 1
  O       -1.1540860    -0.8257380    -1.1262130
  O        2.2598080    -0.8403330    -0.7659410
  C        0.4122950     0.2355920     0.3463500
  C        0.8678900     1.5298080    -0.3436410
  C       -0.9920820    -0.1169500    -0.1343550
  C        1.3451220    -0.9372140     0.0454070
  C       -2.1564290     0.4678700     0.6381050
  C        2.1205030     2.1275510     0.2909850
  C        1.0642330    -2.2268080     0.7816390
  C       -3.4959710     0.2572470    -0.0522250
  H        0.3847180     0.3911920     1.4358330
  H        1.1329692     1.2251775    -1.3602301
  H        0.0539330     2.2643490    -0.3080990
  H       -1.9574920     1.5325250     0.8155200
  H       -2.1465810     0.0009680     1.6335740
  H        2.9579070     1.4317780     0.2172300
  H        2.4041530     3.0539960    -0.2168530
  H        1.9503170     2.3628610     1.3467280
  H       -3.6866900    -0.8062480    -0.2063170
  H       -3.5045250     0.7387230    -1.0324830
  H       -4.3076550     0.6763420     0.5479980
  H        0.9449730    -2.0486830     1.8550460
  H        1.8828740    -2.9264540     0.6079930
  H        0.1338470    -2.6618440     0.4039710
units angstrom
no_reorient  #important for SAPT in psi4, default
symmetry c1  #important for SAPT in psi4, default
}

set PROPERTIES_ORIGIN ["COM"]
properties('MP2/aug-cc-pvtz', properties = ['dipole'])
--------------------------------------------------------------------------

    Molecular point group: c1
  Charge       = 0
  Multiplicity = 1
  Basis Set: AUG-CC-PVTZ
    Blend: AUG-CC-PVTZ
  Basis Set: (AUG-CC-PVTZ AUX)
    Blend: AUG-CC-PVTZ-JKFIT

    Orbital Energies [Eh]
    ---------------------

    Doubly Occupied:

       1A    -20.558134     2A    -20.549514     3A    -11.345802
       4A    -11.338936     5A    -11.257939     6A    -11.252977
       7A    -11.236917     8A    -11.235951     9A    -11.225934
      10A    -11.217313    11A     -1.392448    12A     -1.379378
      13A     -1.107962    14A     -1.060879    15A     -1.022882
      16A     -0.969644    17A     -0.894862    18A     -0.835399
      19A     -0.769013    20A     -0.722888    21A     -0.683517
      22A     -0.675999    23A     -0.644001    24A     -0.625985
      25A     -0.623243    26A     -0.601366    27A     -0.591998
      28A     -0.568410    29A     -0.556478    30A     -0.537534
      31A     -0.535007    32A     -0.522800    33A     -0.509229
      34A     -0.508007    35A     -0.491204    36A     -0.485089
      37A     -0.480223    38A     -0.427403    39A     -0.407863

  @DF-RHF Final Energy:  -460.99058729882773

   => Energetics <=

    Nuclear Repulsion Energy =            551.2510969720880212
    One-Electron Energy =               -1720.7831163600199034
    Two-Electron Energy =                 708.5414320891042053
    Total Energy =                       -460.9905872988277906
  Basis Set: (AUG-CC-PVTZ AUX)
    Blend: AUG-CC-PVTZ-RI
    Molecular point group: c1

    Geometry (in Angstrom), charge = 0, multiplicity = 1:

       Center              X                  Y                   Z               Mass
    ------------   -----------------  -----------------  -----------------  -----------------
         O           -1.181433118439    -0.788244047898    -1.086713631308    15.994914619570
         O            2.232460881561    -0.802839047898    -0.726441631308    15.994914619570
         C            0.384947881561     0.273085952102     0.385849368692    12.000000000000
         C            0.840542881561     1.567301952102    -0.304141631308    12.000000000000
         C           -1.019429118439    -0.079456047898    -0.094855631308    12.000000000000
         C            1.317774881561    -0.899720047898     0.084906368692    12.000000000000
         C           -2.183776118439     0.505363952102     0.677604368692    12.000000000000
         C            2.093155881561     2.165044952102     0.330484368692    12.000000000000
         C            1.036885881561    -2.189314047898     0.821138368692    12.000000000000
         C           -3.523318118439     0.294740952102    -0.012725631308    12.000000000000
         H            0.357370881561     0.428685952102     1.475332368692     1.007825032230
         H            1.105622081561     1.262671452102    -1.320730731308     1.007825032230
         H            0.026585881561     2.301842952102    -0.268599631308     1.007825032230
         H           -1.984839118439     1.570018952102     0.855019368692     1.007825032230
         H           -2.173928118439     0.038461952102     1.673073368692     1.007825032230
         H            2.930559881561     1.469271952102     0.256729368692     1.007825032230
         H            2.376805881561     3.091489952102    -0.177353631308     1.007825032230
         H            1.922969881561     2.400354952102     1.386227368692     1.007825032230
         H           -3.714037118439    -0.768754047898    -0.166817631308     1.007825032230
         H           -3.531872118439     0.776216952102    -0.992983631308     1.007825032230
         H           -4.335002118439     0.713835952102     0.587497368692     1.007825032230
         H            0.917625881561    -2.011189047898     1.894545368692     1.007825032230
         H            1.855526881561    -2.888960047898     0.647492368692     1.007825032230
         H            0.106499881561    -2.624350047898     0.443470368692     1.007825032230

  Basis Set: AUG-CC-PVTZ
    Blend: AUG-CC-PVTZ
  Basis Set: (AUG-CC-PVTZ AUX)
    Blend: AUG-CC-PVTZ-JKFIT
	 Reference Energy          =    -460.9905872988277338 [Eh]
	 Singles Energy            =      -0.0000000000000000 [Eh]
	 Same-Spin Energy          =      -0.4690567850614773 [Eh]
	 Opposite-Spin Energy      =      -1.5689778654881787 [Eh]
	 Correlation Energy        =      -2.0380346505496560 [Eh]
	 Total Energy              =    -463.0286219493773956 [Eh]

	 ================> DF-SCS-MP2 Energies <==================
	-----------------------------------------------------------
	 SCS Same-Spin Scale       =       0.3333333333333333 [-]
	 SCS Opposite-Spin Scale   =       1.2000000000000000 [-]
	 SCS Same-Spin Energy      =      -0.1563522616871591 [Eh]
	 SCS Opposite-Spin Energy  =      -1.8827734385858144 [Eh]
	 SCS Correlation Energy    =      -2.0391257002729732 [Eh]
	 SCS Total Energy          =    -463.0297129991006955 [Eh]
	-----------------------------------------------------------

  Dipole Moment: [D]
     X:    -1.7537      Y:     1.3698      Z:     3.6034     Total:     4.2351

*** Psi4 exiting successfully. Buy a developer a beer!
