                               Psi4 1.4a3.dev225

  ==> Input File <==

--------------------------------------------------------------------------
#psi4
#
memory 32 gb

molecule  {
0 1
  O       -1.1540860    -0.8257380    -1.1262130
  O        2.2598080    -0.8403330    -0.7659410
  C        0.4122950     0.2355920     0.3463500
  C        0.8678900     1.5298080    -0.3436410
  C       -0.9920820    -0.1169500    -0.1343550
  C        1.3451220    -0.9372140     0.0454070
  C       -2.1564290     0.4678700     0.6381050
  C        2.1205030     2.1275510     0.2909850
  C        1.0642330    -2.2268080     0.7816390
  C       -3.4959710     0.2572470    -0.0522250
  H        0.3847180     0.3911920     1.4358330
  H        1.0510700     1.2964920    -1.3965080
  H        0.0539330     2.2643490    -0.3080990
  H       -1.9574920     1.5325250     0.8155200
  H       -2.1465810     0.0009680     1.6335740
  H        2.9579070     1.4317780     0.2172300
  H        2.4041530     3.0539960    -0.2168530
  H        1.9503170     2.3628610     1.3467280
  H       -3.6866900    -0.8062480    -0.2063170
  H       -3.5045250     0.7387230    -1.0324830
  H       -4.3076550     0.6763420     0.5479980
  H        0.9231824    -2.0161369     2.0511733
  H        1.8828740    -2.9264540     0.6079930
  H        0.1338470    -2.6618440     0.4039710
units angstrom
no_reorient  #important for SAPT in psi4, default
symmetry c1  #important for SAPT in psi4, default
}

set PROPERTIES_ORIGIN ["COM"]
properties('MP2/aug-cc-pvtz', properties = ['dipole'])
--------------------------------------------------------------------------

    Molecular point group: c1
  Charge       = 0
  Multiplicity = 1
  Basis Set: AUG-CC-PVTZ
    Blend: AUG-CC-PVTZ
  Basis Set: (AUG-CC-PVTZ AUX)
    Blend: AUG-CC-PVTZ-JKFIT

    Orbital Energies [Eh]
    ---------------------

    Doubly Occupied:

       1A    -20.558412     2A    -20.551312     3A    -11.346076
       4A    -11.340947     5A    -11.258544     6A    -11.258518
       7A    -11.252741     8A    -11.237592     9A    -11.225872
      10A    -11.218119    11A     -1.392939    12A     -1.380531
      13A     -1.107457    14A     -1.060569    15A     -1.016606
      16A     -0.965733    17A     -0.894377    18A     -0.836834
      19A     -0.768358    20A     -0.721943    21A     -0.683559
      22A     -0.670252    23A     -0.644401    24A     -0.627321
      25A     -0.623364    26A     -0.601057    27A     -0.577284
      28A     -0.566193    29A     -0.549984    30A     -0.538116
      31A     -0.531334    32A     -0.521002    33A     -0.510038
      34A     -0.503999    35A     -0.491362    36A     -0.483930
      37A     -0.481232    38A     -0.428016    39A     -0.408614

  @DF-RHF Final Energy:  -460.97215606924505

   => Energetics <=

    Nuclear Repulsion Energy =            550.2963123927296465
    One-Electron Energy =               -1718.8678659543638787
    Two-Electron Energy =                 707.5993974923890164
    Total Energy =                       -460.9721560692451021
  Basis Set: (AUG-CC-PVTZ AUX)
    Blend: AUG-CC-PVTZ-RI
    Molecular point group: c1

    Geometry (in Angstrom), charge = 0, multiplicity = 1:

       Center              X                  Y                   Z               Mass
    ------------   -----------------  -----------------  -----------------  -----------------
         O           -1.180697709346    -0.788980668373    -1.087847346508    15.994914619570
         O            2.233196290654    -0.803575668373    -0.727575346508    15.994914619570
         C            0.385683290654     0.272349331627     0.384715653492    12.000000000000
         C            0.841278290654     1.566565331627    -0.305275346508    12.000000000000
         C           -1.018693709346    -0.080192668373    -0.095989346508    12.000000000000
         C            1.318510290654    -0.900456668373     0.083772653492    12.000000000000
         C           -2.183040709346     0.504627331627     0.676470653492    12.000000000000
         C            2.093891290654     2.164308331627     0.329350653492    12.000000000000
         C            1.037621290654    -2.190050668373     0.820004653492    12.000000000000
         C           -3.522582709346     0.294004331627    -0.013859346508    12.000000000000
         H            0.358106290654     0.427949331627     1.474198653492     1.007825032230
         H            1.024458290654     1.333249331627    -1.358142346508     1.007825032230
         H            0.027321290654     2.301106331627    -0.269733346508     1.007825032230
         H           -1.984103709346     1.569282331627     0.853885653492     1.007825032230
         H           -2.173192709346     0.037725331627     1.671939653492     1.007825032230
         H            2.931295290654     1.468535331627     0.255595653492     1.007825032230
         H            2.377541290654     3.090753331627    -0.178487346508     1.007825032230
         H            1.923705290654     2.399618331627     1.385093653492     1.007825032230
         H           -3.713301709346    -0.769490668373    -0.167951346508     1.007825032230
         H           -3.531136709346     0.775480331627    -0.994117346508     1.007825032230
         H           -4.334266709346     0.713099331627     0.586363653492     1.007825032230
         H            0.896570690654    -1.979379568373     2.089538953492     1.007825032230
         H            1.856262290654    -2.889696668373     0.646358653492     1.007825032230
         H            0.107235290654    -2.625086668373     0.442336653492     1.007825032230

  Basis Set: AUG-CC-PVTZ
    Blend: AUG-CC-PVTZ
  Basis Set: (AUG-CC-PVTZ AUX)
    Blend: AUG-CC-PVTZ-JKFIT
	 Reference Energy          =    -460.9721560692450453 [Eh]
	 Singles Energy            =      -0.0000000000000000 [Eh]
	 Same-Spin Energy          =      -0.4688174187386003 [Eh]
	 Opposite-Spin Energy      =      -1.5701996791441473 [Eh]
	 Correlation Energy        =      -2.0390170978827475 [Eh]
	 Total Energy              =    -463.0111731671277653 [Eh]

	 ================> DF-SCS-MP2 Energies <==================
	-----------------------------------------------------------
	 SCS Same-Spin Scale       =       0.3333333333333333 [-]
	 SCS Opposite-Spin Scale   =       1.2000000000000000 [-]
	 SCS Same-Spin Energy      =      -0.1562724729128668 [Eh]
	 SCS Opposite-Spin Energy  =      -1.8842396149729765 [Eh]
	 SCS Correlation Energy    =      -2.0405120878858432 [Eh]
	 SCS Total Energy          =    -463.0126681571308609 [Eh]
	-----------------------------------------------------------

  Dipole Moment: [D]
     X:    -1.7502      Y:     1.4111      Z:     3.4983     Total:     4.1584

*** Psi4 exiting successfully. Buy a developer a beer!
