                               Psi4 1.4a3.dev225

  ==> Input File <==

--------------------------------------------------------------------------
#psi4
#
memory 32 gb

molecule  {
0 1
  O       -1.1540860    -0.8257380    -1.1262130
  O        2.2598080    -0.8403330    -0.7659410
  C        0.4122950     0.2355920     0.3463500
  C        0.8678900     1.5298080    -0.3436410
  C       -1.0841325    -0.1400575    -0.1658630
  C        1.3451220    -0.9372140     0.0454070
  C       -2.1564290     0.4678700     0.6381050
  C        2.1205030     2.1275510     0.2909850
  C        1.0642330    -2.2268080     0.7816390
  C       -3.4959710     0.2572470    -0.0522250
  H        0.3847180     0.3911920     1.4358330
  H        1.0510700     1.2964920    -1.3965080
  H        0.0539330     2.2643490    -0.3080990
  H       -1.9574920     1.5325250     0.8155200
  H       -2.1465810     0.0009680     1.6335740
  H        2.9579070     1.4317780     0.2172300
  H        2.4041530     3.0539960    -0.2168530
  H        1.9503170     2.3628610     1.3467280
  H       -3.6866900    -0.8062480    -0.2063170
  H       -3.5045250     0.7387230    -1.0324830
  H       -4.3076550     0.6763420     0.5479980
  H        0.9449730    -2.0486830     1.8550460
  H        1.8828740    -2.9264540     0.6079930
  H        0.1338470    -2.6618440     0.4039710
units angstrom
no_reorient  #important for SAPT in psi4, default
symmetry c1  #important for SAPT in psi4, default
}

set PROPERTIES_ORIGIN ["COM"]
properties('MP2/aug-cc-pvtz', properties = ['dipole'])
--------------------------------------------------------------------------

    Molecular point group: c1
  Charge       = 0
  Multiplicity = 1
  Basis Set: AUG-CC-PVTZ
    Blend: AUG-CC-PVTZ
  Basis Set: (AUG-CC-PVTZ AUX)
    Blend: AUG-CC-PVTZ-JKFIT

    Orbital Energies [Eh]
    ---------------------

    Doubly Occupied:

       1A    -20.564502     2A    -20.544351     3A    -11.344666
       4A    -11.332998     5A    -11.253971     6A    -11.252576
       7A    -11.233092     8A    -11.231141     9A    -11.228779
      10A    -11.213738    11A     -1.425961    12A     -1.375858
      13A     -1.097973    14A     -1.068384    15A     -1.017844
      16A     -0.958082    17A     -0.899150    18A     -0.830867
      19A     -0.761149    20A     -0.723078    21A     -0.688126
      22A     -0.669588    23A     -0.650241    24A     -0.638337
      25A     -0.622876    26A     -0.595628    27A     -0.588649
      28A     -0.566466    29A     -0.554467    30A     -0.542994
      31A     -0.536792    32A     -0.529740    33A     -0.512684
      34A     -0.509190    35A     -0.496448    36A     -0.482455
      37A     -0.480436    38A     -0.418183    39A     -0.395880

  @DF-RHF Final Energy:  -460.98718889891285

   => Energetics <=

    Nuclear Repulsion Energy =            550.8318101636829169
    One-Electron Energy =               -1719.9633200444345675
    Two-Electron Energy =                 708.1443209818389732
    Total Energy =                       -460.9871888989127910
  Basis Set: (AUG-CC-PVTZ AUX)
    Blend: AUG-CC-PVTZ-RI
    Molecular point group: c1

    Geometry (in Angstrom), charge = 0, multiplicity = 1:

       Center              X                  Y                   Z               Mass
    ------------   -----------------  -----------------  -----------------  -----------------
         O           -1.173078781732    -0.786798457761    -1.083795548367    15.994914619570
         O            2.240815218268    -0.801393457761    -0.723523548367    15.994914619570
         C            0.393302218268     0.274531542239     0.388767451633    12.000000000000
         C            0.848897218268     1.568747542239    -0.301223548367    12.000000000000
         C           -1.103125281732    -0.101117957761    -0.123445548367    12.000000000000
         C            1.326129218268    -0.898274457761     0.087824451633    12.000000000000
         C           -2.175421781732     0.506809542239     0.680522451633    12.000000000000
         C            2.101510218268     2.166490542239     0.333402451633    12.000000000000
         C            1.045240218268    -2.187868457761     0.824056451633    12.000000000000
         C           -3.514963781732     0.296186542239    -0.009807548367    12.000000000000
         H            0.365725218268     0.430131542239     1.478250451633     1.007825032230
         H            1.032077218268     1.335431542239    -1.354090548367     1.007825032230
         H            0.034940218268     2.303288542239    -0.265681548367     1.007825032230
         H           -1.976484781732     1.571464542239     0.857937451633     1.007825032230
         H           -2.165573781732     0.039907542239     1.675991451633     1.007825032230
         H            2.938914218268     1.470717542239     0.259647451633     1.007825032230
         H            2.385160218268     3.092935542239    -0.174435548367     1.007825032230
         H            1.931324218268     2.401800542239     1.389145451633     1.007825032230
         H           -3.705682781732    -0.767308457761    -0.163899548367     1.007825032230
         H           -3.523517781732     0.777662542239    -0.990065548367     1.007825032230
         H           -4.326647781732     0.715281542239     0.590415451633     1.007825032230
         H            0.925980218268    -2.009743457761     1.897463451633     1.007825032230
         H            1.863881218268    -2.887514457761     0.650410451633     1.007825032230
         H            0.114854218268    -2.622904457761     0.446388451633     1.007825032230

  Basis Set: AUG-CC-PVTZ
    Blend: AUG-CC-PVTZ
  Basis Set: (AUG-CC-PVTZ AUX)
    Blend: AUG-CC-PVTZ-JKFIT
	 Reference Energy          =    -460.9871888989128479 [Eh]
	 Singles Energy            =      -0.0000000000000000 [Eh]
	 Same-Spin Energy          =      -0.4678279675248093 [Eh]
	 Opposite-Spin Energy      =      -1.5663887654602244 [Eh]
	 Correlation Energy        =      -2.0342167329850338 [Eh]
	 Total Energy              =    -463.0214056318978919 [Eh]

	 ================> DF-SCS-MP2 Energies <==================
	-----------------------------------------------------------
	 SCS Same-Spin Scale       =       0.3333333333333333 [-]
	 SCS Opposite-Spin Scale   =       1.2000000000000000 [-]
	 SCS Same-Spin Energy      =      -0.1559426558416031 [Eh]
	 SCS Opposite-Spin Energy  =      -1.8796665185522692 [Eh]
	 SCS Correlation Energy    =      -2.0356091743938722 [Eh]
	 SCS Total Energy          =    -463.0227980733067170 [Eh]
	-----------------------------------------------------------

  Dipole Moment: [D]
     X:    -2.3747      Y:     1.3089      Z:     3.4883     Total:     4.4182

*** Psi4 exiting successfully. Buy a developer a beer!
