                               Psi4 1.4a3.dev225

  ==> Input File <==

--------------------------------------------------------------------------
#psi4
#
memory 32 gb

molecule  {
0 1
  O       -1.1540860    -0.8257380    -1.1262130
  O        2.2598080    -0.8403330    -0.7659410
  C        0.4122950     0.2355920     0.3463500
  C        0.8678900     1.5298080    -0.3436410
  C       -0.9920820    -0.1169500    -0.1343550
  C        1.3451220    -0.9372140     0.0454070
  C       -2.1564290     0.4678700     0.6381050
  C        2.1205030     2.1275510     0.2909850
  C        1.0642330    -2.2268080     0.7816390
  C       -3.4959710     0.2572470    -0.0522250
  H        0.3847180     0.3911920     1.4358330
  H        1.0175775     1.3391514    -1.2040023
  H        0.0539330     2.2643490    -0.3080990
  H       -1.9574920     1.5325250     0.8155200
  H       -2.1465810     0.0009680     1.6335740
  H        2.9579070     1.4317780     0.2172300
  H        2.4041530     3.0539960    -0.2168530
  H        1.9503170     2.3628610     1.3467280
  H       -3.6866900    -0.8062480    -0.2063170
  H       -3.5045250     0.7387230    -1.0324830
  H       -4.3076550     0.6763420     0.5479980
  H        0.9449730    -2.0486830     1.8550460
  H        1.8828740    -2.9264540     0.6079930
  H        0.1338470    -2.6618440     0.4039710
units angstrom
no_reorient  #important for SAPT in psi4, default
symmetry c1  #important for SAPT in psi4, default
}

set PROPERTIES_ORIGIN ["COM"]
properties('MP2/aug-cc-pvtz', properties = ['dipole'])
--------------------------------------------------------------------------

    Molecular point group: c1
  Charge       = 0
  Multiplicity = 1
  Basis Set: AUG-CC-PVTZ
    Blend: AUG-CC-PVTZ
  Basis Set: (AUG-CC-PVTZ AUX)
    Blend: AUG-CC-PVTZ-JKFIT

    Orbital Energies [Eh]
    ---------------------

    Doubly Occupied:

       1A    -20.558289     2A    -20.549117     3A    -11.345897
       4A    -11.338510     5A    -11.257459     6A    -11.252749
       7A    -11.235616     8A    -11.225915     9A    -11.217022
      10A    -11.214420    11A     -1.392579    12A     -1.378901
      13A     -1.113432    14A     -1.062526    15A     -1.026260
      16A     -0.970482    17A     -0.895234    18A     -0.857858
      19A     -0.769684    20A     -0.728510    21A     -0.685242
      22A     -0.675785    23A     -0.645410    24A     -0.628398
      25A     -0.624827    26A     -0.605266    27A     -0.591630
      28A     -0.569414    29A     -0.556218    30A     -0.537476
      31A     -0.534893    32A     -0.523644    33A     -0.518059
      34A     -0.506904    35A     -0.501718    36A     -0.487616
      37A     -0.482643    38A     -0.427014    39A     -0.407461

  @DF-RHF Final Energy:  -460.95872500811652

   => Energetics <=

    Nuclear Repulsion Energy =            552.1359069308809921
    One-Electron Energy =               -1722.3891080363525816
    Two-Electron Energy =                 709.2944760973550729
    Total Energy =                       -460.9587250081165166
  Basis Set: (AUG-CC-PVTZ AUX)
    Blend: AUG-CC-PVTZ-RI
    Molecular point group: c1

    Geometry (in Angstrom), charge = 0, multiplicity = 1:

       Center              X                  Y                   Z               Mass
    ------------   -----------------  -----------------  -----------------  -----------------
         O           -1.180614714840    -0.789052395898    -1.087821660688    15.994914619570
         O            2.233279285160    -0.803647395898    -0.727549660688    15.994914619570
         C            0.385766285160     0.272277604102     0.384741339312    12.000000000000
         C            0.841361285160     1.566493604102    -0.305249660688    12.000000000000
         C           -1.018610714840    -0.080264395898    -0.095963660688    12.000000000000
         C            1.318593285160    -0.900528395898     0.083798339312    12.000000000000
         C           -2.182957714840     0.504555604102     0.676496339312    12.000000000000
         C            2.093974285160     2.164236604102     0.329376339312    12.000000000000
         C            1.037704285160    -2.190122395898     0.820030339312    12.000000000000
         C           -3.522499714840     0.293932604102    -0.013833660688    12.000000000000
         H            0.358189285160     0.427877604102     1.474224339312     1.007825032230
         H            0.991048785160     1.375837004102    -1.165610960688     1.007825032230
         H            0.027404285160     2.301034604102    -0.269707660688     1.007825032230
         H           -1.984020714840     1.569210604102     0.853911339312     1.007825032230
         H           -2.173109714840     0.037653604102     1.671965339312     1.007825032230
         H            2.931378285160     1.468463604102     0.255621339312     1.007825032230
         H            2.377624285160     3.090681604102    -0.178461660688     1.007825032230
         H            1.923788285160     2.399546604102     1.385119339312     1.007825032230
         H           -3.713218714840    -0.769562395898    -0.167925660688     1.007825032230
         H           -3.531053714840     0.775408604102    -0.994091660688     1.007825032230
         H           -4.334183714840     0.713027604102     0.586389339312     1.007825032230
         H            0.918444285160    -2.011997395898     1.893437339312     1.007825032230
         H            1.856345285160    -2.889768395898     0.646384339312     1.007825032230
         H            0.107318285160    -2.625158395898     0.442362339312     1.007825032230

  Basis Set: AUG-CC-PVTZ
    Blend: AUG-CC-PVTZ
  Basis Set: (AUG-CC-PVTZ AUX)
    Blend: AUG-CC-PVTZ-JKFIT
	 Reference Energy          =    -460.9587250081165166 [Eh]
	 Singles Energy            =      -0.0000000000000000 [Eh]
	 Same-Spin Energy          =      -0.4686030948126426 [Eh]
	 Opposite-Spin Energy      =      -1.5677447009126524 [Eh]
	 Correlation Energy        =      -2.0363477957252951 [Eh]
	 Total Energy              =    -462.9950728038418220 [Eh]

	 ================> DF-SCS-MP2 Energies <==================
	-----------------------------------------------------------
	 SCS Same-Spin Scale       =       0.3333333333333333 [-]
	 SCS Opposite-Spin Scale   =       1.2000000000000000 [-]
	 SCS Same-Spin Energy      =      -0.1562010316042142 [Eh]
	 SCS Opposite-Spin Energy  =      -1.8812936410951828 [Eh]
	 SCS Correlation Energy    =      -2.0374946726993972 [Eh]
	 SCS Total Energy          =    -462.9962196808158978 [Eh]
	-----------------------------------------------------------

  Dipole Moment: [D]
     X:    -1.7941      Y:     1.4228      Z:     3.5578     Total:     4.2309

*** Psi4 exiting successfully. Buy a developer a beer!
