                               Psi4 1.4a3.dev225

  ==> Input File <==

--------------------------------------------------------------------------
#psi4
#
memory 32 gb

molecule  {
0 1
  O       -1.1540860    -0.8257380    -1.1262130
  O        2.2598080    -0.8403330    -0.7659410
  C        0.4122950     0.2355920     0.3463500
  C        0.8678900     1.5298080    -0.3436410
  C       -0.9920820    -0.1169500    -0.1343550
  C        1.3451220    -0.9372140     0.0454070
  C       -2.1564290     0.4678700     0.6381050
  C        2.1205030     2.1275510     0.2909850
  C        1.0642330    -2.2268080     0.7816390
  C       -3.4959710     0.2572470    -0.0522250
  H        0.3847180     0.3911920     1.4358330
  H        1.0594431     1.2858272    -1.4446344
  H        0.0539330     2.2643490    -0.3080990
  H       -1.9574920     1.5325250     0.8155200
  H       -2.1465810     0.0009680     1.6335740
  H        2.9579070     1.4317780     0.2172300
  H        2.4041530     3.0539960    -0.2168530
  H        1.9503170     2.3628610     1.3467280
  H       -3.6866900    -0.8062480    -0.2063170
  H       -3.5045250     0.7387230    -1.0324830
  H       -4.3076550     0.6763420     0.5479980
  H        0.9449730    -2.0486830     1.8550460
  H        1.8828740    -2.9264540     0.6079930
  H        0.1338470    -2.6618440     0.4039710
units angstrom
no_reorient  #important for SAPT in psi4, default
symmetry c1  #important for SAPT in psi4, default
}

set PROPERTIES_ORIGIN ["COM"]
properties('MP2/aug-cc-pvtz', properties = ['dipole'])
--------------------------------------------------------------------------

    Molecular point group: c1
  Charge       = 0
  Multiplicity = 1
  Basis Set: AUG-CC-PVTZ
    Blend: AUG-CC-PVTZ
  Basis Set: (AUG-CC-PVTZ AUX)
    Blend: AUG-CC-PVTZ-JKFIT

    Orbital Energies [Eh]
    ---------------------

    Doubly Occupied:

       1A    -20.558167     2A    -20.548686     3A    -11.345908
       4A    -11.338294     5A    -11.258964     6A    -11.252932
       7A    -11.243021     8A    -11.235679     9A    -11.225937
      10A    -11.218402    11A     -1.392286    12A     -1.378485
      13A     -1.106915    14A     -1.060465    15A     -1.021923
      16A     -0.969596    17A     -0.894752    18A     -0.834256
      19A     -0.768464    20A     -0.722419    21A     -0.682829
      22A     -0.672720    23A     -0.644174    24A     -0.625960
      25A     -0.622630    26A     -0.597587    27A     -0.591883
      28A     -0.567890    29A     -0.556631    30A     -0.537800
      31A     -0.534938    32A     -0.522640    33A     -0.509556
      34A     -0.506897    35A     -0.490334    36A     -0.483051
      37A     -0.480143    38A     -0.427289    39A     -0.407481

  @DF-RHF Final Energy:  -460.98988586747998

   => Energetics <=

    Nuclear Repulsion Energy =            550.8628657088778482
    One-Electron Energy =               -1720.0295375558571322
    Two-Electron Energy =                 708.1767859794991864
    Total Energy =                       -460.9898858674799840
  Basis Set: (AUG-CC-PVTZ AUX)
    Blend: AUG-CC-PVTZ-RI
    Molecular point group: c1

    Geometry (in Angstrom), charge = 0, multiplicity = 1:

       Center              X                  Y                   Z               Mass
    ------------   -----------------  -----------------  -----------------  -----------------
         O           -1.180911642242    -0.788674199570    -1.086115002612    15.994914619570
         O            2.232982357758    -0.803269199570    -0.725843002612    15.994914619570
         C            0.385469357758     0.272655800430     0.386447997388    12.000000000000
         C            0.841064357758     1.566871800430    -0.303543002612    12.000000000000
         C           -1.018907642242    -0.079886199570    -0.094257002612    12.000000000000
         C            1.318296357758    -0.900150199570     0.085504997388    12.000000000000
         C           -2.183254642242     0.504933800430     0.678202997388    12.000000000000
         C            2.093677357758     2.164614800430     0.331082997388    12.000000000000
         C            1.037407357758    -2.189744199570     0.821736997388    12.000000000000
         C           -3.522796642242     0.294310800430    -0.012127002612    12.000000000000
         H            0.357892357758     0.428255800430     1.475930997388     1.007825032230
         H            1.032617457758     1.322891000430    -1.404536402612     1.007825032230
         H            0.027107357758     2.301412800430    -0.268001002612     1.007825032230
         H           -1.984317642242     1.569588800430     0.855617997388     1.007825032230
         H           -2.173406642242     0.038031800430     1.673671997388     1.007825032230
         H            2.931081357758     1.468841800430     0.257327997388     1.007825032230
         H            2.377327357758     3.091059800430    -0.176755002612     1.007825032230
         H            1.923491357758     2.399924800430     1.386825997388     1.007825032230
         H           -3.713515642242    -0.769184199570    -0.166219002612     1.007825032230
         H           -3.531350642242     0.775786800430    -0.992385002612     1.007825032230
         H           -4.334480642242     0.713405800430     0.588095997388     1.007825032230
         H            0.918147357758    -2.011619199570     1.895143997388     1.007825032230
         H            1.856048357758    -2.889390199570     0.648090997388     1.007825032230
         H            0.107021357758    -2.624780199570     0.444068997388     1.007825032230

  Basis Set: AUG-CC-PVTZ
    Blend: AUG-CC-PVTZ
  Basis Set: (AUG-CC-PVTZ AUX)
    Blend: AUG-CC-PVTZ-JKFIT
	 Reference Energy          =    -460.9898858674799840 [Eh]
	 Singles Energy            =      -0.0000000000000000 [Eh]
	 Same-Spin Energy          =      -0.4689454516343843 [Eh]
	 Opposite-Spin Energy      =      -1.5691517645420112 [Eh]
	 Correlation Energy        =      -2.0380972161763955 [Eh]
	 Total Energy              =    -463.0279830836563519 [Eh]

	 ================> DF-SCS-MP2 Energies <==================
	-----------------------------------------------------------
	 SCS Same-Spin Scale       =       0.3333333333333333 [-]
	 SCS Opposite-Spin Scale   =       1.2000000000000000 [-]
	 SCS Same-Spin Energy      =      -0.1563151505447948 [Eh]
	 SCS Opposite-Spin Energy  =      -1.8829821174504133 [Eh]
	 SCS Correlation Energy    =      -2.0392972679952082 [Eh]
	 SCS Total Energy          =    -463.0291831354751935 [Eh]
	-----------------------------------------------------------

  Dipole Moment: [D]
     X:    -1.7684      Y:     1.4064      Z:     3.6066     Total:     4.2559

*** Psi4 exiting successfully. Buy a developer a beer!
