                               Psi4 1.4a3.dev225

  ==> Input File <==

--------------------------------------------------------------------------
#psi4
#
memory 32 gb

molecule  {
0 1
  O       -1.1540860    -0.8257380    -1.1262130
  O        2.2598080    -0.8403330    -0.7659410
  C        0.4122950     0.2355920     0.3463500
  C        0.8678900     1.5298080    -0.3436410
  C       -0.9920820    -0.1169500    -0.1343550
  C        1.3451220    -0.9372140     0.0454070
  C       -2.1564290     0.4678700     0.6381050
  C        2.1205030     2.1275510     0.2909850
  C        1.0642330    -2.2268080     0.7816390
  C       -3.4959710     0.2572470    -0.0522250
  H        0.3847180     0.3911920     1.4358330
  H        1.0510700     1.2964920    -1.3965080
  H        0.0539330     2.2643490    -0.3080990
  H       -1.9574920     1.5325250     0.8155200
  H       -2.1465810     0.0009680     1.6335740
  H        2.9579070     1.4317780     0.2172300
  H        2.4041530     3.0539960    -0.2168530
  H        1.9503170     2.3628610     1.3467280
  H       -3.6866900    -0.8062480    -0.2063170
  H       -3.5045250     0.7387230    -1.0324830
  H       -4.3076550     0.6763420     0.5479980
  H        1.0032214    -2.0967140     1.8667690
  H        1.8828740    -2.9264540     0.6079930
  H        0.1338470    -2.6618440     0.4039710
units angstrom
no_reorient  #important for SAPT in psi4, default
symmetry c1  #important for SAPT in psi4, default
}

set PROPERTIES_ORIGIN ["COM"]
properties('MP2/aug-cc-pvtz', properties = ['dipole'])
--------------------------------------------------------------------------

    Molecular point group: c1
  Charge       = 0
  Multiplicity = 1
  Basis Set: AUG-CC-PVTZ
    Blend: AUG-CC-PVTZ
  Basis Set: (AUG-CC-PVTZ AUX)
    Blend: AUG-CC-PVTZ-JKFIT

    Orbital Energies [Eh]
    ---------------------

    Doubly Occupied:

       1A    -20.558137     2A    -20.549321     3A    -11.345840
       4A    -11.338897     5A    -11.258466     6A    -11.252742
       7A    -11.237472     8A    -11.235243     9A    -11.225831
      10A    -11.218027    11A     -1.392367    12A     -1.378886
      13A     -1.107481    14A     -1.060591    15A     -1.021923
      16A     -0.969665    17A     -0.894747    18A     -0.837851
      19A     -0.768879    20A     -0.723702    21A     -0.683085
      22A     -0.673396    23A     -0.644628    24A     -0.625714
      25A     -0.623211    26A     -0.599787    27A     -0.592776
      28A     -0.568202    29A     -0.553919    30A     -0.537050
      31A     -0.533827    32A     -0.522672    33A     -0.510046
      34A     -0.506493    35A     -0.492576    36A     -0.484784
      37A     -0.482933    38A     -0.427373    39A     -0.407805

  @DF-RHF Final Energy:  -460.99160894476631

   => Energetics <=

    Nuclear Repulsion Energy =            550.9655834447846701
    One-Electron Energy =               -1720.2216904666356641
    Two-Electron Energy =                 708.2644980770846814
    Total Energy =                       -460.9916089447663126
  Basis Set: (AUG-CC-PVTZ AUX)
    Blend: AUG-CC-PVTZ-RI
    Molecular point group: c1

    Geometry (in Angstrom), charge = 0, multiplicity = 1:

       Center              X                  Y                   Z               Mass
    ------------   -----------------  -----------------  -----------------  -----------------
         O           -1.181265377607    -0.788409183694    -1.086539478240    15.994914619570
         O            2.232628622393    -0.803004183694    -0.726267478240    15.994914619570
         C            0.385115622393     0.272920816306     0.386023521760    12.000000000000
         C            0.840710622393     1.567136816306    -0.303967478240    12.000000000000
         C           -1.019261377607    -0.079621183694    -0.094681478240    12.000000000000
         C            1.317942622393    -0.899885183694     0.085080521760    12.000000000000
         C           -2.183608377607     0.505198816306     0.677778521760    12.000000000000
         C            2.093323622393     2.164879816306     0.330658521760    12.000000000000
         C            1.037053622393    -2.189479183694     0.821312521760    12.000000000000
         C           -3.523150377607     0.294575816306    -0.012551478240    12.000000000000
         H            0.357538622393     0.428520816306     1.475506521760     1.007825032230
         H            1.023890622393     1.333820816306    -1.356834478240     1.007825032230
         H            0.026753622393     2.301677816306    -0.268425478240     1.007825032230
         H           -1.984671377607     1.569853816306     0.855193521760     1.007825032230
         H           -2.173760377607     0.038296816306     1.673247521760     1.007825032230
         H            2.930727622393     1.469106816306     0.256903521760     1.007825032230
         H            2.376973622393     3.091324816306    -0.177179478240     1.007825032230
         H            1.923137622393     2.400189816306     1.386401521760     1.007825032230
         H           -3.713869377607    -0.768919183694    -0.166643478240     1.007825032230
         H           -3.531704377607     0.776051816306    -0.992809478240     1.007825032230
         H           -4.334834377607     0.713670816306     0.587671521760     1.007825032230
         H            0.976042022393    -2.059385183694     1.906442521760     1.007825032230
         H            1.855694622393    -2.889125183694     0.647666521760     1.007825032230
         H            0.106667622393    -2.624515183694     0.443644521760     1.007825032230

  Basis Set: AUG-CC-PVTZ
    Blend: AUG-CC-PVTZ
  Basis Set: (AUG-CC-PVTZ AUX)
    Blend: AUG-CC-PVTZ-JKFIT
	 Reference Energy          =    -460.9916089447663126 [Eh]
	 Singles Energy            =      -0.0000000000000000 [Eh]
	 Same-Spin Energy          =      -0.4688210850510977 [Eh]
	 Opposite-Spin Energy      =      -1.5686851984599051 [Eh]
	 Correlation Energy        =      -2.0375062835110027 [Eh]
	 Total Energy              =    -463.0291152282773055 [Eh]

	 ================> DF-SCS-MP2 Energies <==================
	-----------------------------------------------------------
	 SCS Same-Spin Scale       =       0.3333333333333333 [-]
	 SCS Opposite-Spin Scale   =       1.2000000000000000 [-]
	 SCS Same-Spin Energy      =      -0.1562736950170325 [Eh]
	 SCS Opposite-Spin Energy  =      -1.8824222381518860 [Eh]
	 SCS Correlation Energy    =      -2.0386959331689187 [Eh]
	 SCS Total Energy          =    -463.0303048779352366 [Eh]
	-----------------------------------------------------------

  Dipole Moment: [D]
     X:    -1.7456      Y:     1.4057      Z:     3.6026     Total:     4.2429

*** Psi4 exiting successfully. Buy a developer a beer!
