                               Psi4 1.4a3.dev225

  ==> Input File <==

--------------------------------------------------------------------------
#psi4
#
memory 32 gb

molecule  {
0 1
  O       -1.1540860    -0.8257380    -1.1262130
  O        2.2697419    -0.8813062    -0.7585049
  C        0.4122950     0.2355920     0.3463500
  C        0.8678900     1.5298080    -0.3436410
  C       -0.9920820    -0.1169500    -0.1343550
  C        1.3451220    -0.9372140     0.0454070
  C       -2.1564290     0.4678700     0.6381050
  C        2.1205030     2.1275510     0.2909850
  C        1.0642330    -2.2268080     0.7816390
  C       -3.4959710     0.2572470    -0.0522250
  H        0.3847180     0.3911920     1.4358330
  H        1.0510700     1.2964920    -1.3965080
  H        0.0539330     2.2643490    -0.3080990
  H       -1.9574920     1.5325250     0.8155200
  H       -2.1465810     0.0009680     1.6335740
  H        2.9579070     1.4317780     0.2172300
  H        2.4041530     3.0539960    -0.2168530
  H        1.9503170     2.3628610     1.3467280
  H       -3.6866900    -0.8062480    -0.2063170
  H       -3.5045250     0.7387230    -1.0324830
  H       -4.3076550     0.6763420     0.5479980
  H        0.9449730    -2.0486830     1.8550460
  H        1.8828740    -2.9264540     0.6079930
  H        0.1338470    -2.6618440     0.4039710
units angstrom
no_reorient  #important for SAPT in psi4, default
symmetry c1  #important for SAPT in psi4, default
}

set PROPERTIES_ORIGIN ["COM"]
properties('MP2/aug-cc-pvtz', properties = ['dipole'])
--------------------------------------------------------------------------

    Molecular point group: c1
  Charge       = 0
  Multiplicity = 1
  Basis Set: AUG-CC-PVTZ
    Blend: AUG-CC-PVTZ
  Basis Set: (AUG-CC-PVTZ AUX)
    Blend: AUG-CC-PVTZ-JKFIT

    Orbital Energies [Eh]
    ---------------------

    Doubly Occupied:

       1A    -20.558793     2A    -20.548608     3A    -11.346706
       4A    -11.338026     5A    -11.260383     6A    -11.253461
       7A    -11.238754     8A    -11.233365     9A    -11.226323
      10A    -11.219024    11A     -1.392737    12A     -1.378434
      13A     -1.108952    14A     -1.061341    15A     -1.021382
      16A     -0.969746    17A     -0.895362    18A     -0.838494
      19A     -0.769219    20A     -0.723900    21A     -0.683630
      22A     -0.673081    23A     -0.644584    24A     -0.625657
      25A     -0.623703    26A     -0.599192    27A     -0.591294
      28A     -0.568733    29A     -0.556518    30A     -0.537790
      31A     -0.535121    32A     -0.523045    33A     -0.510843
      34A     -0.507248    35A     -0.492624    36A     -0.484967
      37A     -0.483670    38A     -0.427018    39A     -0.407852

  @DF-RHF Final Energy:  -460.99193442391100

   => Energetics <=

    Nuclear Repulsion Energy =            550.7220083894586651
    One-Electron Energy =               -1719.7087218298138396
    Two-Electron Energy =                 707.9947790164442267
    Total Energy =                       -460.9919344239110615
  Basis Set: (AUG-CC-PVTZ AUX)
    Blend: AUG-CC-PVTZ-RI
    Molecular point group: c1

    Geometry (in Angstrom), charge = 0, multiplicity = 1:

       Center              X                  Y                   Z               Mass
    ------------   -----------------  -----------------  -----------------  -----------------
         O           -1.181970431260    -0.784137835058    -1.087293352409    15.994914619570
         O            2.241857468740    -0.839706035058    -0.719585252409    15.994914619570
         C            0.384410568740     0.277192164942     0.385269647591    12.000000000000
         C            0.840005568740     1.571408164942    -0.304721352409    12.000000000000
         C           -1.019966431260    -0.075349835058    -0.095435352409    12.000000000000
         C            1.317237568740    -0.895613835058     0.084326647591    12.000000000000
         C           -2.184313431260     0.509470164942     0.677024647591    12.000000000000
         C            2.092618568740     2.169151164942     0.329904647591    12.000000000000
         C            1.036348568740    -2.185207835058     0.820558647591    12.000000000000
         C           -3.523855431260     0.298847164942    -0.013305352409    12.000000000000
         H            0.356833568740     0.432792164942     1.474752647591     1.007825032230
         H            1.023185568740     1.338092164942    -1.357588352409     1.007825032230
         H            0.026048568740     2.305949164942    -0.269179352409     1.007825032230
         H           -1.985376431260     1.574125164942     0.854439647591     1.007825032230
         H           -2.174465431260     0.042568164942     1.672493647591     1.007825032230
         H            2.930022568740     1.473378164942     0.256149647591     1.007825032230
         H            2.376268568740     3.095596164942    -0.177933352409     1.007825032230
         H            1.922432568740     2.404461164942     1.385647647591     1.007825032230
         H           -3.714574431260    -0.764647835058    -0.167397352409     1.007825032230
         H           -3.532409431260     0.780323164942    -0.993563352409     1.007825032230
         H           -4.335539431260     0.717942164942     0.586917647591     1.007825032230
         H            0.917088568740    -2.007082835058     1.893965647591     1.007825032230
         H            1.854989568740    -2.884853835058     0.646912647591     1.007825032230
         H            0.105962568740    -2.620243835058     0.442890647591     1.007825032230

  Basis Set: AUG-CC-PVTZ
    Blend: AUG-CC-PVTZ
  Basis Set: (AUG-CC-PVTZ AUX)
    Blend: AUG-CC-PVTZ-JKFIT
	 Reference Energy          =    -460.9919344239110046 [Eh]
	 Singles Energy            =      -0.0000000000000000 [Eh]
	 Same-Spin Energy          =      -0.4687662218774031 [Eh]
	 Opposite-Spin Energy      =      -1.5686464666363218 [Eh]
	 Correlation Energy        =      -2.0374126885137249 [Eh]
	 Total Energy              =    -463.0293471124247162 [Eh]

	 ================> DF-SCS-MP2 Energies <==================
	-----------------------------------------------------------
	 SCS Same-Spin Scale       =       0.3333333333333333 [-]
	 SCS Opposite-Spin Scale   =       1.2000000000000000 [-]
	 SCS Same-Spin Energy      =      -0.1562554072924677 [Eh]
	 SCS Opposite-Spin Energy  =      -1.8823757599635860 [Eh]
	 SCS Correlation Energy    =      -2.0386311672560535 [Eh]
	 SCS Total Energy          =    -463.0305655911670328 [Eh]
	-----------------------------------------------------------

  Dipole Moment: [D]
     X:    -1.8112      Y:     1.5273      Z:     3.5703     Total:     4.2849

*** Psi4 exiting successfully. Buy a developer a beer!
