                               Psi4 1.4a3.dev225

  ==> Input File <==

--------------------------------------------------------------------------
#psi4
#
memory 32 gb

molecule  {
0 1
  O       -1.1540860    -0.8257380    -1.1262130
  O        2.2598080    -0.8403330    -0.7659410
  C        0.4122950     0.2355920     0.3463500
  C        0.8678900     1.5298080    -0.3436410
  C       -0.9000315    -0.0938425    -0.1028470
  C        1.3451220    -0.9372140     0.0454070
  C       -2.1564290     0.4678700     0.6381050
  C        2.1205030     2.1275510     0.2909850
  C        1.0642330    -2.2268080     0.7816390
  C       -3.4959710     0.2572470    -0.0522250
  H        0.3847180     0.3911920     1.4358330
  H        1.0510700     1.2964920    -1.3965080
  H        0.0539330     2.2643490    -0.3080990
  H       -1.9574920     1.5325250     0.8155200
  H       -2.1465810     0.0009680     1.6335740
  H        2.9579070     1.4317780     0.2172300
  H        2.4041530     3.0539960    -0.2168530
  H        1.9503170     2.3628610     1.3467280
  H       -3.6866900    -0.8062480    -0.2063170
  H       -3.5045250     0.7387230    -1.0324830
  H       -4.3076550     0.6763420     0.5479980
  H        0.9449730    -2.0486830     1.8550460
  H        1.8828740    -2.9264540     0.6079930
  H        0.1338470    -2.6618440     0.4039710
units angstrom
no_reorient  #important for SAPT in psi4, default
symmetry c1  #important for SAPT in psi4, default
}

set PROPERTIES_ORIGIN ["COM"]
properties('MP2/aug-cc-pvtz', properties = ['dipole'])
--------------------------------------------------------------------------

    Molecular point group: c1
  Charge       = 0
  Multiplicity = 1
  Basis Set: AUG-CC-PVTZ
    Blend: AUG-CC-PVTZ
  Basis Set: (AUG-CC-PVTZ AUX)
    Blend: AUG-CC-PVTZ-JKFIT

    Orbital Energies [Eh]
    ---------------------

    Doubly Occupied:

       1A    -20.552582     2A    -20.552216     3A    -11.348896
       4A    -11.343276     5A    -11.260538     6A    -11.253839
       7A    -11.244398     8A    -11.237833     9A    -11.223867
      10A    -11.222163    11A     -1.385584    12A     -1.354244
      13A     -1.124353    14A     -1.051688    15A     -1.027268
      16A     -0.982071    17A     -0.889927    18A     -0.844524
      19A     -0.780274    20A     -0.725086    21A     -0.683152
      22A     -0.671385    23A     -0.643124    24A     -0.626047
      25A     -0.608566    26A     -0.602494    27A     -0.594597
      28A     -0.570868    29A     -0.558527    30A     -0.537193
      31A     -0.531179    32A     -0.516331    33A     -0.509608
      34A     -0.508415    35A     -0.494561    36A     -0.486840
      37A     -0.468869    38A     -0.431079    39A     -0.411160

  @DF-RHF Final Energy:  -460.97347854321890

   => Energetics <=

    Nuclear Repulsion Energy =            551.4559964462679318
    One-Electron Energy =               -1721.1417047528316289
    Two-Electron Energy =                 708.7122297633449080
    Total Energy =                       -460.9734785432189028
  Basis Set: (AUG-CC-PVTZ AUX)
    Blend: AUG-CC-PVTZ-RI
    Molecular point group: c1

    Geometry (in Angstrom), charge = 0, multiplicity = 1:

       Center              X                  Y                   Z               Mass
    ------------   -----------------  -----------------  -----------------  -----------------
         O           -1.188625732076    -0.790701219344    -1.089117119803    15.994914619570
         O            2.225268267924    -0.805296219344    -0.728845119803    15.994914619570
         C            0.377755267924     0.270628780656     0.383445880197    12.000000000000
         C            0.833350267924     1.564844780656    -0.306545119803    12.000000000000
         C           -0.934571232076    -0.058805719344    -0.065751119803    12.000000000000
         C            1.310582267924    -0.902177219344     0.082502880197    12.000000000000
         C           -2.190968732076     0.502906780656     0.675200880197    12.000000000000
         C            2.085963267924     2.162587780656     0.328080880197    12.000000000000
         C            1.029693267924    -2.191771219344     0.818734880197    12.000000000000
         C           -3.530510732076     0.292283780656    -0.015129119803    12.000000000000
         H            0.350178267924     0.426228780656     1.472928880197     1.007825032230
         H            1.016530267924     1.331528780656    -1.359412119803     1.007825032230
         H            0.019393267924     2.299385780656    -0.271003119803     1.007825032230
         H           -1.992031732076     1.567561780656     0.852615880197     1.007825032230
         H           -2.181120732076     0.036004780656     1.670669880197     1.007825032230
         H            2.923367267924     1.466814780656     0.254325880197     1.007825032230
         H            2.369613267924     3.089032780656    -0.179757119803     1.007825032230
         H            1.915777267924     2.397897780656     1.383823880197     1.007825032230
         H           -3.721229732076    -0.771211219344    -0.169221119803     1.007825032230
         H           -3.539064732076     0.773759780656    -0.995387119803     1.007825032230
         H           -4.342194732076     0.711378780656     0.585093880197     1.007825032230
         H            0.910433267924    -2.013646219344     1.892141880197     1.007825032230
         H            1.848334267924    -2.891417219344     0.645088880197     1.007825032230
         H            0.099307267924    -2.626807219344     0.441066880197     1.007825032230

  Basis Set: AUG-CC-PVTZ
    Blend: AUG-CC-PVTZ
  Basis Set: (AUG-CC-PVTZ AUX)
    Blend: AUG-CC-PVTZ-JKFIT
	 Reference Energy          =    -460.9734785432189028 [Eh]
	 Singles Energy            =      -0.0000000000000000 [Eh]
	 Same-Spin Energy          =      -0.4711499529799772 [Eh]
	 Opposite-Spin Energy      =      -1.5731469414414869 [Eh]
	 Correlation Energy        =      -2.0442968944214641 [Eh]
	 Total Energy              =    -463.0177754376403527 [Eh]

	 ================> DF-SCS-MP2 Energies <==================
	-----------------------------------------------------------
	 SCS Same-Spin Scale       =       0.3333333333333333 [-]
	 SCS Opposite-Spin Scale   =       1.2000000000000000 [-]
	 SCS Same-Spin Energy      =      -0.1570499843266591 [Eh]
	 SCS Opposite-Spin Energy  =      -1.8877763297297843 [Eh]
	 SCS Correlation Energy    =      -2.0448263140564431 [Eh]
	 SCS Total Energy          =    -463.0183048572753250 [Eh]
	-----------------------------------------------------------

  Dipole Moment: [D]
     X:    -1.2555      Y:     1.5098      Z:     3.6677     Total:     4.1603

*** Psi4 exiting successfully. Buy a developer a beer!
