                               Psi4 1.4a3.dev225

  ==> Input File <==

--------------------------------------------------------------------------
#psi4
#
memory 32 gb

molecule  {
0 1
  O       -1.1540860    -0.8257380    -1.1262130
  O        2.2598080    -0.8403330    -0.7659410
  C        0.4122950     0.2355920     0.3463500
  C        0.7734258     1.5316248    -0.3942801
  C       -0.9920820    -0.1169500    -0.1343550
  C        1.3451220    -0.9372140     0.0454070
  C       -2.1564290     0.4678700     0.6381050
  C        2.1205030     2.1275510     0.2909850
  C        1.0642330    -2.2268080     0.7816390
  C       -3.4959710     0.2572470    -0.0522250
  H        0.3847180     0.3911920     1.4358330
  H        1.0510700     1.2964920    -1.3965080
  H        0.0539330     2.2643490    -0.3080990
  H       -1.9574920     1.5325250     0.8155200
  H       -2.1465810     0.0009680     1.6335740
  H        2.9579070     1.4317780     0.2172300
  H        2.4041530     3.0539960    -0.2168530
  H        1.9503170     2.3628610     1.3467280
  H       -3.6866900    -0.8062480    -0.2063170
  H       -3.5045250     0.7387230    -1.0324830
  H       -4.3076550     0.6763420     0.5479980
  H        0.9449730    -2.0486830     1.8550460
  H        1.8828740    -2.9264540     0.6079930
  H        0.1338470    -2.6618440     0.4039710
units angstrom
no_reorient  #important for SAPT in psi4, default
symmetry c1  #important for SAPT in psi4, default
}

set PROPERTIES_ORIGIN ["COM"]
properties('MP2/aug-cc-pvtz', properties = ['dipole'])
--------------------------------------------------------------------------

    Molecular point group: c1
  Charge       = 0
  Multiplicity = 1
  Basis Set: AUG-CC-PVTZ
    Blend: AUG-CC-PVTZ
  Basis Set: (AUG-CC-PVTZ AUX)
    Blend: AUG-CC-PVTZ-JKFIT

    Orbital Energies [Eh]
    ---------------------

    Doubly Occupied:

       1A    -20.555822     2A    -20.549029     3A    -11.344199
       4A    -11.339430     5A    -11.259346     6A    -11.252684
       7A    -11.236429     8A    -11.235253     9A    -11.225689
      10A    -11.221449    11A     -1.391081    12A     -1.378406
      13A     -1.106267    14A     -1.059062    15A     -1.018878
      16A     -0.961847    17A     -0.893628    18A     -0.848729
      19A     -0.768186    20A     -0.723199    21A     -0.682845
      22A     -0.674942    23A     -0.645122    24A     -0.627566
      25A     -0.621285    26A     -0.603019    27A     -0.591390
      28A     -0.566698    29A     -0.553907    30A     -0.535989
      31A     -0.533285    32A     -0.524325    33A     -0.519312
      34A     -0.500215    35A     -0.492349    36A     -0.487595
      37A     -0.477985    38A     -0.423330    39A     -0.406156

  @DF-RHF Final Energy:  -460.98235847596163

   => Energetics <=

    Nuclear Repulsion Energy =            550.7925854171874107
    One-Electron Energy =               -1719.8780320734779252
    Two-Electron Energy =                 708.1030881803288821
    Total Energy =                       -460.9823584759616324
  Basis Set: (AUG-CC-PVTZ AUX)
    Blend: AUG-CC-PVTZ-RI
    Molecular point group: c1

    Geometry (in Angstrom), charge = 0, multiplicity = 1:

       Center              X                  Y                   Z               Mass
    ------------   -----------------  -----------------  -----------------  -----------------
         O           -1.172874949737    -0.788903263571    -1.082179966368    15.994914619570
         O            2.241019050263    -0.803498263571    -0.721907966368    15.994914619570
         C            0.393506050263     0.272426736429     0.390383033632    12.000000000000
         C            0.754636850263     1.568459536429    -0.350247066368    12.000000000000
         C           -1.010870949737    -0.080115263571    -0.090321966368    12.000000000000
         C            1.326333050263    -0.900379263571     0.089440033632    12.000000000000
         C           -2.175217949737     0.504704736429     0.682138033632    12.000000000000
         C            2.101714050263     2.164385736429     0.335018033632    12.000000000000
         C            1.045444050263    -2.189973263571     0.825672033632    12.000000000000
         C           -3.514759949737     0.294081736429    -0.008191966368    12.000000000000
         H            0.365929050263     0.428026736429     1.479866033632     1.007825032230
         H            1.032281050263     1.333326736429    -1.352474966368     1.007825032230
         H            0.035144050263     2.301183736429    -0.264065966368     1.007825032230
         H           -1.976280949737     1.569359736429     0.859553033632     1.007825032230
         H           -2.165369949737     0.037802736429     1.677607033632     1.007825032230
         H            2.939118050263     1.468612736429     0.261263033632     1.007825032230
         H            2.385364050263     3.090830736429    -0.172819966368     1.007825032230
         H            1.931528050263     2.399695736429     1.390761033632     1.007825032230
         H           -3.705478949737    -0.769413263571    -0.162283966368     1.007825032230
         H           -3.523313949737     0.775557736429    -0.988449966368     1.007825032230
         H           -4.326443949737     0.713176736429     0.592031033632     1.007825032230
         H            0.926184050263    -2.011848263571     1.899079033632     1.007825032230
         H            1.864085050263    -2.889619263571     0.652026033632     1.007825032230
         H            0.115058050263    -2.625009263571     0.448004033632     1.007825032230

  Basis Set: AUG-CC-PVTZ
    Blend: AUG-CC-PVTZ
  Basis Set: (AUG-CC-PVTZ AUX)
    Blend: AUG-CC-PVTZ-JKFIT
	 Reference Energy          =    -460.9823584759616324 [Eh]
	 Singles Energy            =      -0.0000000000000000 [Eh]
	 Same-Spin Energy          =      -0.4687457092877300 [Eh]
	 Opposite-Spin Energy      =      -1.5689639160204489 [Eh]
	 Correlation Energy        =      -2.0377096253081790 [Eh]
	 Total Energy              =    -463.0200681012698283 [Eh]

	 ================> DF-SCS-MP2 Energies <==================
	-----------------------------------------------------------
	 SCS Same-Spin Scale       =       0.3333333333333333 [-]
	 SCS Opposite-Spin Scale   =       1.2000000000000000 [-]
	 SCS Same-Spin Energy      =      -0.1562485697625766 [Eh]
	 SCS Opposite-Spin Energy  =      -1.8827566992245386 [Eh]
	 SCS Correlation Energy    =      -2.0390052689871152 [Eh]
	 SCS Total Energy          =    -463.0213637449487578 [Eh]
	-----------------------------------------------------------

  Dipole Moment: [D]
     X:    -1.7743      Y:     1.4102      Z:     3.5991     Total:     4.2532

*** Psi4 exiting successfully. Buy a developer a beer!
