                               Psi4 1.4a3.dev225

  ==> Input File <==

--------------------------------------------------------------------------
#psi4
#
memory 32 gb

molecule  {
0 1
  O       -1.1540860    -0.8257380    -1.1262130
  O        2.2598080    -0.8403330    -0.7659410
  C        0.4122950     0.2355920     0.3463500
  C        0.8209068     1.5315058    -0.3693966
  C       -0.9920820    -0.1169500    -0.1343550
  C        1.3451220    -0.9372140     0.0454070
  C       -2.1564290     0.4678700     0.6381050
  C        2.1205030     2.1275510     0.2909850
  C        1.0642330    -2.2268080     0.7816390
  C       -3.4959710     0.2572470    -0.0522250
  H        0.3847180     0.3911920     1.4358330
  H        1.0510700     1.2964920    -1.3965080
  H        0.0539330     2.2643490    -0.3080990
  H       -1.9574920     1.5325250     0.8155200
  H       -2.1465810     0.0009680     1.6335740
  H        2.9579070     1.4317780     0.2172300
  H        2.4041530     3.0539960    -0.2168530
  H        1.9503170     2.3628610     1.3467280
  H       -3.6866900    -0.8062480    -0.2063170
  H       -3.5045250     0.7387230    -1.0324830
  H       -4.3076550     0.6763420     0.5479980
  H        0.9449730    -2.0486830     1.8550460
  H        1.8828740    -2.9264540     0.6079930
  H        0.1338470    -2.6618440     0.4039710
units angstrom
no_reorient  #important for SAPT in psi4, default
symmetry c1  #important for SAPT in psi4, default
}

set PROPERTIES_ORIGIN ["COM"]
properties('MP2/aug-cc-pvtz', properties = ['dipole'])
--------------------------------------------------------------------------

    Molecular point group: c1
  Charge       = 0
  Multiplicity = 1
  Basis Set: AUG-CC-PVTZ
    Blend: AUG-CC-PVTZ
  Basis Set: (AUG-CC-PVTZ AUX)
    Blend: AUG-CC-PVTZ-JKFIT

    Orbital Energies [Eh]
    ---------------------

    Doubly Occupied:

       1A    -20.557013     2A    -20.548862     3A    -11.344994
       4A    -11.338835     5A    -11.258774     6A    -11.252778
       7A    -11.236016     8A    -11.235973     9A    -11.225809
      10A    -11.219746    11A     -1.391686    12A     -1.378459
      13A     -1.106685    14A     -1.059779    15A     -1.020358
      16A     -0.965650    17A     -0.894170    18A     -0.843280
      19A     -0.768347    20A     -0.723301    21A     -0.682683
      22A     -0.674129    23A     -0.644595    24A     -0.626630
      25A     -0.622204    26A     -0.600576    27A     -0.591638
      28A     -0.567172    29A     -0.554971    30A     -0.536290
      31A     -0.534028    32A     -0.522826    33A     -0.513614
      34A     -0.501596    35A     -0.493895    36A     -0.486842
      37A     -0.483549    38A     -0.425299    39A     -0.407208

  @DF-RHF Final Energy:  -460.98991771453888

   => Energetics <=

    Nuclear Repulsion Energy =            550.9264745333606470
    One-Electron Energy =               -1720.1522702306046995
    Two-Electron Energy =                 708.2358779827051194
    Total Energy =                       -460.9899177145388194
  Basis Set: (AUG-CC-PVTZ AUX)
    Blend: AUG-CC-PVTZ-RI
    Molecular point group: c1

    Geometry (in Angstrom), charge = 0, multiplicity = 1:

       Center              X                  Y                   Z               Mass
    ------------   -----------------  -----------------  -----------------  -----------------
         O           -1.176884622413    -0.788893214266    -1.084281326702    15.994914619570
         O            2.237009377587    -0.803488214266    -0.724009326702    15.994914619570
         C            0.389496377587     0.272436785734     0.388281673298    12.000000000000
         C            0.798108177587     1.568350585734    -0.327464926702    12.000000000000
         C           -1.014880622413    -0.080105214266    -0.092423326702    12.000000000000
         C            1.322323377587    -0.900369214266     0.087338673298    12.000000000000
         C           -2.179227622413     0.504714785734     0.680036673298    12.000000000000
         C            2.097704377587     2.164395785734     0.332916673298    12.000000000000
         C            1.041434377587    -2.189963214266     0.823570673298    12.000000000000
         C           -3.518769622413     0.294091785734    -0.010293326702    12.000000000000
         H            0.361919377587     0.428036785734     1.477764673298     1.007825032230
         H            1.028271377587     1.333336785734    -1.354576326702     1.007825032230
         H            0.031134377587     2.301193785734    -0.266167326702     1.007825032230
         H           -1.980290622413     1.569369785734     0.857451673298     1.007825032230
         H           -2.169379622413     0.037812785734     1.675505673298     1.007825032230
         H            2.935108377587     1.468622785734     0.259161673298     1.007825032230
         H            2.381354377587     3.090840785734    -0.174921326702     1.007825032230
         H            1.927518377587     2.399705785734     1.388659673298     1.007825032230
         H           -3.709488622413    -0.769403214266    -0.164385326702     1.007825032230
         H           -3.527323622413     0.775567785734    -0.990551326702     1.007825032230
         H           -4.330453622413     0.713186785734     0.589929673298     1.007825032230
         H            0.922174377587    -2.011838214266     1.896977673298     1.007825032230
         H            1.860075377587    -2.889609214266     0.649924673298     1.007825032230
         H            0.111048377587    -2.624999214266     0.445902673298     1.007825032230

  Basis Set: AUG-CC-PVTZ
    Blend: AUG-CC-PVTZ
  Basis Set: (AUG-CC-PVTZ AUX)
    Blend: AUG-CC-PVTZ-JKFIT
	 Reference Energy          =    -460.9899177145388762 [Eh]
	 Singles Energy            =      -0.0000000000000000 [Eh]
	 Same-Spin Energy          =      -0.4686922751571923 [Eh]
	 Opposite-Spin Energy      =      -1.5686349402470063 [Eh]
	 Correlation Energy        =      -2.0373272154041988 [Eh]
	 Total Energy              =    -463.0272449299430946 [Eh]

	 ================> DF-SCS-MP2 Energies <==================
	-----------------------------------------------------------
	 SCS Same-Spin Scale       =       0.3333333333333333 [-]
	 SCS Opposite-Spin Scale   =       1.2000000000000000 [-]
	 SCS Same-Spin Energy      =      -0.1562307583857308 [Eh]
	 SCS Opposite-Spin Energy  =      -1.8823619282964075 [Eh]
	 SCS Correlation Energy    =      -2.0385926866821382 [Eh]
	 SCS Total Energy          =    -463.0285104012210127 [Eh]
	-----------------------------------------------------------

  Dipole Moment: [D]
     X:    -1.7781      Y:     1.4110      Z:     3.5933     Total:     4.2502

*** Psi4 exiting successfully. Buy a developer a beer!
