                               Psi4 1.4a3.dev225

  ==> Input File <==

--------------------------------------------------------------------------
#psi4
#
memory 32 gb

molecule  {
0 1
  O       -1.1540860    -0.8257380    -1.1262130
  O        2.2598080    -0.8403330    -0.7659410
  C        0.4122950     0.2355920     0.3463500
  C        0.8678900     1.5298080    -0.3436410
  C       -0.9920820    -0.1169500    -0.1343550
  C        1.3451220    -0.9372140     0.0454070
  C       -2.1564290     0.4678700     0.6381050
  C        2.1205030     2.1275510     0.2909850
  C        1.0642330    -2.2268080     0.7816390
  C       -3.4959710     0.2572470    -0.0522250
  H        0.3847180     0.3911920     1.4358330
  H        1.0426969     1.3071568    -1.3483816
  H        0.0539330     2.2643490    -0.3080990
  H       -1.9574920     1.5325250     0.8155200
  H       -2.1465810     0.0009680     1.6335740
  H        2.9579070     1.4317780     0.2172300
  H        2.4041530     3.0539960    -0.2168530
  H        1.9503170     2.3628610     1.3467280
  H       -3.6866900    -0.8062480    -0.2063170
  H       -3.5045250     0.7387230    -1.0324830
  H       -4.3076550     0.6763420     0.5479980
  H        0.9449730    -2.0486830     1.8550460
  H        1.8828740    -2.9264540     0.6079930
  H        0.1338470    -2.6618440     0.4039710
units angstrom
no_reorient  #important for SAPT in psi4, default
symmetry c1  #important for SAPT in psi4, default
}

set PROPERTIES_ORIGIN ["COM"]
properties('MP2/aug-cc-pvtz', properties = ['dipole'])
--------------------------------------------------------------------------

    Molecular point group: c1
  Charge       = 0
  Multiplicity = 1
  Basis Set: AUG-CC-PVTZ
    Blend: AUG-CC-PVTZ
  Basis Set: (AUG-CC-PVTZ AUX)
    Blend: AUG-CC-PVTZ-JKFIT

    Orbital Energies [Eh]
    ---------------------

    Doubly Occupied:

       1A    -20.558204     2A    -20.548870     3A    -11.345875
       4A    -11.338360     5A    -11.258205     6A    -11.252821
       7A    -11.235631     8A    -11.231831     9A    -11.225911
      10A    -11.217676    11A     -1.392401    12A     -1.378667
      13A     -1.108569    14A     -1.061018    15A     -1.023207
      16A     -0.969728    17A     -0.894804    18A     -0.841613
      19A     -0.768854    20A     -0.724486    21A     -0.683529
      22A     -0.673987    23A     -0.644485    24A     -0.626301
      25A     -0.623760    26A     -0.600716    27A     -0.591723
      28A     -0.568426    29A     -0.556413    30A     -0.537590
      31A     -0.534894    32A     -0.522703    33A     -0.511143
      34A     -0.506912    35A     -0.495352    36A     -0.486224
      37A     -0.482805    38A     -0.427145    39A     -0.407458

  @DF-RHF Final Energy:  -460.99132867949425

   => Energetics <=

    Nuclear Repulsion Energy =            551.3285104442828697
    One-Electron Energy =               -1720.9230778836445097
    Two-Electron Energy =                 708.6032387598672813
    Total Energy =                       -460.9913286794942451
  Basis Set: (AUG-CC-PVTZ AUX)
    Blend: AUG-CC-PVTZ-RI
    Molecular point group: c1

    Geometry (in Angstrom), charge = 0, multiplicity = 1:

       Center              X                  Y                   Z               Mass
    ------------   -----------------  -----------------  -----------------  -----------------
         O           -1.180792871565    -0.788825477534    -1.086797665559    15.994914619570
         O            2.233101128435    -0.803420477534    -0.726525665559    15.994914619570
         C            0.385588128435     0.272504522466     0.385765334441    12.000000000000
         C            0.841183128435     1.566720522466    -0.304225665559    12.000000000000
         C           -1.018788871565    -0.080037477534    -0.094939665559    12.000000000000
         C            1.318415128435    -0.900301477534     0.084822334441    12.000000000000
         C           -2.183135871565     0.504782522466     0.677520334441    12.000000000000
         C            2.093796128435     2.164463522466     0.330400334441    12.000000000000
         C            1.037526128435    -2.189895477534     0.821054334441    12.000000000000
         C           -3.522677871565     0.294159522466    -0.012809665559    12.000000000000
         H            0.358011128435     0.428104522466     1.475248334441     1.007825032230
         H            1.015990028435     1.344069322466    -1.308966265559     1.007825032230
         H            0.027226128435     2.301261522466    -0.268683665559     1.007825032230
         H           -1.984198871565     1.569437522466     0.854935334441     1.007825032230
         H           -2.173287871565     0.037880522466     1.672989334441     1.007825032230
         H            2.931200128435     1.468690522466     0.256645334441     1.007825032230
         H            2.377446128435     3.090908522466    -0.177437665559     1.007825032230
         H            1.923610128435     2.399773522466     1.386143334441     1.007825032230
         H           -3.713396871565    -0.769335477534    -0.166901665559     1.007825032230
         H           -3.531231871565     0.775635522466    -0.993067665559     1.007825032230
         H           -4.334361871565     0.713254522466     0.587413334441     1.007825032230
         H            0.918266128435    -2.011770477534     1.894461334441     1.007825032230
         H            1.856167128435    -2.889541477534     0.647408334441     1.007825032230
         H            0.107140128435    -2.624931477534     0.443386334441     1.007825032230

  Basis Set: AUG-CC-PVTZ
    Blend: AUG-CC-PVTZ
  Basis Set: (AUG-CC-PVTZ AUX)
    Blend: AUG-CC-PVTZ-JKFIT
	 Reference Energy          =    -460.9913286794942451 [Eh]
	 Singles Energy            =      -0.0000000000000000 [Eh]
	 Same-Spin Energy          =      -0.4687580979437848 [Eh]
	 Opposite-Spin Energy      =      -1.5683155847193000 [Eh]
	 Correlation Energy        =      -2.0370736826630846 [Eh]
	 Total Energy              =    -463.0284023621573510 [Eh]

	 ================> DF-SCS-MP2 Energies <==================
	-----------------------------------------------------------
	 SCS Same-Spin Scale       =       0.3333333333333333 [-]
	 SCS Opposite-Spin Scale   =       1.2000000000000000 [-]
	 SCS Same-Spin Energy      =      -0.1562526993145949 [Eh]
	 SCS Opposite-Spin Energy  =      -1.8819787016631599 [Eh]
	 SCS Correlation Energy    =      -2.0382314009777547 [Eh]
	 SCS Total Energy          =    -463.0295600804719811 [Eh]
	-----------------------------------------------------------

  Dipole Moment: [D]
     X:    -1.7783      Y:     1.4136      Z:     3.5776     Total:     4.2379

*** Psi4 exiting successfully. Buy a developer a beer!
