                               Psi4 1.4a3.dev225

  ==> Input File <==

--------------------------------------------------------------------------
#psi4
#
memory 32 gb

molecule  {
0 1
  O       -1.1540860    -0.8257380    -1.1262130
  O        2.2598080    -0.8403330    -0.7659410
  C        0.4122950     0.2355920     0.3463500
  C        0.8678900     1.5298080    -0.3436410
  C       -0.9595164    -0.0999460    -0.0963322
  C        1.3451220    -0.9372140     0.0454070
  C       -2.1564290     0.4678700     0.6381050
  C        2.1205030     2.1275510     0.2909850
  C        1.0642330    -2.2268080     0.7816390
  C       -3.4959710     0.2572470    -0.0522250
  H        0.3847180     0.3911920     1.4358330
  H        1.0510700     1.2964920    -1.3965080
  H        0.0539330     2.2643490    -0.3080990
  H       -1.9574920     1.5325250     0.8155200
  H       -2.1465810     0.0009680     1.6335740
  H        2.9579070     1.4317780     0.2172300
  H        2.4041530     3.0539960    -0.2168530
  H        1.9503170     2.3628610     1.3467280
  H       -3.6866900    -0.8062480    -0.2063170
  H       -3.5045250     0.7387230    -1.0324830
  H       -4.3076550     0.6763420     0.5479980
  H        0.9449730    -2.0486830     1.8550460
  H        1.8828740    -2.9264540     0.6079930
  H        0.1338470    -2.6618440     0.4039710
units angstrom
no_reorient  #important for SAPT in psi4, default
symmetry c1  #important for SAPT in psi4, default
}

set PROPERTIES_ORIGIN ["COM"]
properties('MP2/aug-cc-pvtz', properties = ['dipole'])
--------------------------------------------------------------------------

    Molecular point group: c1
  Charge       = 0
  Multiplicity = 1
  Basis Set: AUG-CC-PVTZ
    Blend: AUG-CC-PVTZ
  Basis Set: (AUG-CC-PVTZ AUX)
    Blend: AUG-CC-PVTZ-JKFIT

    Orbital Energies [Eh]
    ---------------------

    Doubly Occupied:

       1A    -20.553677     2A    -20.550493     3A    -11.348901
       4A    -11.340798     5A    -11.260714     6A    -11.254433
       7A    -11.240750     8A    -11.236345     9A    -11.226017
      10A    -11.219989    11A     -1.383529    12A     -1.359843
      13A     -1.114885    14A     -1.060316    15A     -1.024434
      16A     -0.975590    17A     -0.896606    18A     -0.840734
      19A     -0.774221    20A     -0.723114    21A     -0.681222
      22A     -0.673699    23A     -0.644130    24A     -0.627143
      25A     -0.611826    26A     -0.600560    27A     -0.593110
      28A     -0.568340    29A     -0.557973    30A     -0.537970
      31A     -0.531968    32A     -0.519140    33A     -0.509676
      34A     -0.506903    35A     -0.492634    36A     -0.485002
      37A     -0.472145    38A     -0.430662    39A     -0.412152

  @DF-RHF Final Energy:  -460.98295543676170

   => Energetics <=

    Nuclear Repulsion Energy =            551.0598354348082921
    One-Electron Energy =               -1720.4022994927363470
    Two-Electron Energy =                 708.3595086211663556
    Total Energy =                       -460.9829554367616993
  Basis Set: (AUG-CC-PVTZ AUX)
    Blend: AUG-CC-PVTZ-RI
    Molecular point group: c1

    Geometry (in Angstrom), charge = 0, multiplicity = 1:

       Center              X                  Y                   Z               Mass
    ------------   -----------------  -----------------  -----------------  -----------------
         O           -1.183602354764    -0.790185791337    -1.089667281248    15.994914619570
         O            2.230291645236    -0.804780791337    -0.729395281248    15.994914619570
         C            0.382778645236     0.271144208663     0.382895718752    12.000000000000
         C            0.838373645236     1.565360208663    -0.307095281248    12.000000000000
         C           -0.989032754764    -0.064393791337    -0.059786481248    12.000000000000
         C            1.315605645236    -0.901661791337     0.081952718752    12.000000000000
         C           -2.185945354764     0.503422208663     0.674650718752    12.000000000000
         C            2.090986645236     2.163103208663     0.327530718752    12.000000000000
         C            1.034716645236    -2.191255791337     0.818184718752    12.000000000000
         C           -3.525487354764     0.292799208663    -0.015679281248    12.000000000000
         H            0.355201645236     0.426744208663     1.472378718752     1.007825032230
         H            1.021553645236     1.332044208663    -1.359962281248     1.007825032230
         H            0.024416645236     2.299901208663    -0.271553281248     1.007825032230
         H           -1.987008354764     1.568077208663     0.852065718752     1.007825032230
         H           -2.176097354764     0.036520208663     1.670119718752     1.007825032230
         H            2.928390645236     1.467330208663     0.253775718752     1.007825032230
         H            2.374636645236     3.089548208663    -0.180307281248     1.007825032230
         H            1.920800645236     2.398413208663     1.383273718752     1.007825032230
         H           -3.716206354764    -0.770695791337    -0.169771281248     1.007825032230
         H           -3.534041354764     0.774275208663    -0.995937281248     1.007825032230
         H           -4.337171354764     0.711894208663     0.584543718752     1.007825032230
         H            0.915456645236    -2.013130791337     1.891591718752     1.007825032230
         H            1.853357645236    -2.890901791337     0.644538718752     1.007825032230
         H            0.104330645236    -2.626291791337     0.440516718752     1.007825032230

  Basis Set: AUG-CC-PVTZ
    Blend: AUG-CC-PVTZ
  Basis Set: (AUG-CC-PVTZ AUX)
    Blend: AUG-CC-PVTZ-JKFIT
	 Reference Energy          =    -460.9829554367616993 [Eh]
	 Singles Energy            =      -0.0000000000000000 [Eh]
	 Same-Spin Energy          =      -0.4704103230057353 [Eh]
	 Opposite-Spin Energy      =      -1.5718341939394767 [Eh]
	 Correlation Energy        =      -2.0422445169452121 [Eh]
	 Total Energy              =    -463.0251999537069310 [Eh]

	 ================> DF-SCS-MP2 Energies <==================
	-----------------------------------------------------------
	 SCS Same-Spin Scale       =       0.3333333333333333 [-]
	 SCS Opposite-Spin Scale   =       1.2000000000000000 [-]
	 SCS Same-Spin Energy      =      -0.1568034410019118 [Eh]
	 SCS Opposite-Spin Energy  =      -1.8862010327273719 [Eh]
	 SCS Correlation Energy    =      -2.0430044737292836 [Eh]
	 SCS Total Energy          =    -463.0259599104909967 [Eh]
	-----------------------------------------------------------

  Dipole Moment: [D]
     X:    -1.5867      Y:     1.5018      Z:     3.6899     Total:     4.2881

*** Psi4 exiting successfully. Buy a developer a beer!
