                               Psi4 1.4a3.dev225

  ==> Input File <==

--------------------------------------------------------------------------
#psi4
#
memory 32 gb

molecule  {
0 1
  O       -1.1540860    -0.8257380    -1.1262130
  O        2.2598080    -0.8403330    -0.7659410
  C        0.3357319     0.1378838     0.4472815
  C        0.8678900     1.5298080    -0.3436410
  C       -0.9920820    -0.1169500    -0.1343550
  C        1.3451220    -0.9372140     0.0454070
  C       -2.1564290     0.4678700     0.6381050
  C        2.1205030     2.1275510     0.2909850
  C        1.0642330    -2.2268080     0.7816390
  C       -3.4959710     0.2572470    -0.0522250
  H        0.3847180     0.3911920     1.4358330
  H        1.0510700     1.2964920    -1.3965080
  H        0.0539330     2.2643490    -0.3080990
  H       -1.9574920     1.5325250     0.8155200
  H       -2.1465810     0.0009680     1.6335740
  H        2.9579070     1.4317780     0.2172300
  H        2.4041530     3.0539960    -0.2168530
  H        1.9503170     2.3628610     1.3467280
  H       -3.6866900    -0.8062480    -0.2063170
  H       -3.5045250     0.7387230    -1.0324830
  H       -4.3076550     0.6763420     0.5479980
  H        0.9449730    -2.0486830     1.8550460
  H        1.8828740    -2.9264540     0.6079930
  H        0.1338470    -2.6618440     0.4039710
units angstrom
no_reorient  #important for SAPT in psi4, default
symmetry c1  #important for SAPT in psi4, default
}

set PROPERTIES_ORIGIN ["COM"]
properties('MP2/aug-cc-pvtz', properties = ['dipole'])
--------------------------------------------------------------------------

    Molecular point group: c1
  Charge       = 0
  Multiplicity = 1
  Basis Set: AUG-CC-PVTZ
    Blend: AUG-CC-PVTZ
  Basis Set: (AUG-CC-PVTZ AUX)
    Blend: AUG-CC-PVTZ-JKFIT

    Orbital Energies [Eh]
    ---------------------

    Doubly Occupied:

       1A    -20.554486     2A    -20.553055     3A    -11.344019
       4A    -11.341290     5A    -11.256055     6A    -11.250643
       7A    -11.249688     8A    -11.231212     9A    -11.224232
      10A    -11.221160    11A     -1.391077    12A     -1.379298
      13A     -1.105605    14A     -1.057390    15A     -1.022931
      16A     -0.974641    17A     -0.892538    18A     -0.833367
      19A     -0.773714    20A     -0.735816    21A     -0.689089
      22A     -0.670318    23A     -0.643267    24A     -0.626836
      25A     -0.621986    26A     -0.599550    27A     -0.587790
      28A     -0.574605    29A     -0.556730    30A     -0.537736
      31A     -0.534954    32A     -0.523209    33A     -0.511009
      34A     -0.506902    35A     -0.494037    36A     -0.485397
      37A     -0.464428    38A     -0.422420    39A     -0.407685

  @DF-RHF Final Energy:  -460.97114695788832

   => Energetics <=

    Nuclear Repulsion Energy =            550.6018574112583792
    One-Electron Energy =               -1719.4456807450544602
    Two-Electron Energy =                 707.8726763759077585
    Total Energy =                       -460.9711469578883225
  Basis Set: (AUG-CC-PVTZ AUX)
    Blend: AUG-CC-PVTZ-RI
    Molecular point group: c1

    Geometry (in Angstrom), charge = 0, multiplicity = 1:

       Center              X                  Y                   Z               Mass
    ------------   -----------------  -----------------  -----------------  -----------------
         O           -1.174386660770    -0.780498582266    -1.094979791420    15.994914619570
         O            2.239507339230    -0.795093582266    -0.734707791420    15.994914619570
         C            0.315431239230     0.183123217734     0.478514708580    12.000000000000
         C            0.847589339230     1.575047417734    -0.312407791420    12.000000000000
         C           -1.012382660770    -0.071710582266    -0.103121791420    12.000000000000
         C            1.324821339230    -0.891974582266     0.076640208580    12.000000000000
         C           -2.176729660770     0.513109417734     0.669338208580    12.000000000000
         C            2.100202339230     2.172790417734     0.322218208580    12.000000000000
         C            1.043932339230    -2.181568582266     0.812872208580    12.000000000000
         C           -3.516271660770     0.302486417734    -0.020991791420    12.000000000000
         H            0.364417339230     0.436431417734     1.467066208580     1.007825032230
         H            1.030769339230     1.341731417734    -1.365274791420     1.007825032230
         H            0.033632339230     2.309588417734    -0.276865791420     1.007825032230
         H           -1.977792660770     1.577764417734     0.846753208580     1.007825032230
         H           -2.166881660770     0.046207417734     1.664807208580     1.007825032230
         H            2.937606339230     1.477017417734     0.248463208580     1.007825032230
         H            2.383852339230     3.099235417734    -0.185619791420     1.007825032230
         H            1.930016339230     2.408100417734     1.377961208580     1.007825032230
         H           -3.706990660770    -0.761008582266    -0.175083791420     1.007825032230
         H           -3.524825660770     0.783962417734    -1.001249791420     1.007825032230
         H           -4.327955660770     0.721581417734     0.579231208580     1.007825032230
         H            0.924672339230    -2.003443582266     1.886279208580     1.007825032230
         H            1.862573339230    -2.881214582266     0.639226208580     1.007825032230
         H            0.113546339230    -2.616604582266     0.435204208580     1.007825032230

  Basis Set: AUG-CC-PVTZ
    Blend: AUG-CC-PVTZ
  Basis Set: (AUG-CC-PVTZ AUX)
    Blend: AUG-CC-PVTZ-JKFIT
	 Reference Energy          =    -460.9711469578883225 [Eh]
	 Singles Energy            =      -0.0000000000000000 [Eh]
	 Same-Spin Energy          =      -0.4695981961466261 [Eh]
	 Opposite-Spin Energy      =      -1.5702413826475212 [Eh]
	 Correlation Energy        =      -2.0398395787941475 [Eh]
	 Total Energy              =    -463.0109865366824806 [Eh]

	 ================> DF-SCS-MP2 Energies <==================
	-----------------------------------------------------------
	 SCS Same-Spin Scale       =       0.3333333333333333 [-]
	 SCS Opposite-Spin Scale   =       1.2000000000000000 [-]
	 SCS Same-Spin Energy      =      -0.1565327320488754 [Eh]
	 SCS Opposite-Spin Energy  =      -1.8842896591770253 [Eh]
	 SCS Correlation Energy    =      -2.0408223912259005 [Eh]
	 SCS Total Energy          =    -463.0119693491142243 [Eh]
	-----------------------------------------------------------

  Dipole Moment: [D]
     X:    -1.4904      Y:     1.5854      Z:     3.6320     Total:     4.2339

*** Psi4 exiting successfully. Buy a developer a beer!
