                               Psi4 1.4a3.dev225

  ==> Input File <==

--------------------------------------------------------------------------
#psi4
#
memory 32 gb

molecule  {
0 1
  O       -1.1540860    -0.8257380    -1.1262130
  O        2.2598080    -0.8403330    -0.7659410
  C        0.4122950     0.2355920     0.3463500
  C        0.8678900     1.5298080    -0.3436410
  C       -0.9920820    -0.1169500    -0.1343550
  C        1.3451220    -0.9372140     0.0454070
  C       -2.1564290     0.4678700     0.6381050
  C        2.1205030     2.1275510     0.2909850
  C        1.0642330    -2.2268080     0.7816390
  C       -3.4959710     0.2572470    -0.0522250
  H        0.3847180     0.3911920     1.4358330
  H        1.0510700     1.2964920    -1.3965080
  H        0.0539330     2.2643490    -0.3080990
  H       -1.9574920     1.5325250     0.8155200
  H       -2.1465810     0.0009680     1.6335740
  H        2.9596150     1.4320838     0.2361961
  H        2.4041530     3.0539960    -0.2168530
  H        1.9503170     2.3628610     1.3467280
  H       -3.6866900    -0.8062480    -0.2063170
  H       -3.5045250     0.7387230    -1.0324830
  H       -4.3076550     0.6763420     0.5479980
  H        0.9449730    -2.0486830     1.8550460
  H        1.8828740    -2.9264540     0.6079930
  H        0.1338470    -2.6618440     0.4039710
units angstrom
no_reorient  #important for SAPT in psi4, default
symmetry c1  #important for SAPT in psi4, default
}

set PROPERTIES_ORIGIN ["COM"]
properties('MP2/aug-cc-pvtz', properties = ['dipole'])
--------------------------------------------------------------------------

    Molecular point group: c1
  Charge       = 0
  Multiplicity = 1
  Basis Set: AUG-CC-PVTZ
    Blend: AUG-CC-PVTZ
  Basis Set: (AUG-CC-PVTZ AUX)
    Blend: AUG-CC-PVTZ-JKFIT

    Orbital Energies [Eh]
    ---------------------

    Doubly Occupied:

       1A    -20.558195     2A    -20.548742     3A    -11.345894
       4A    -11.338285     5A    -11.258578     6A    -11.252883
       7A    -11.237656     8A    -11.235646     9A    -11.225931
      10A    -11.218084    11A     -1.392344    12A     -1.378533
      13A     -1.107624    14A     -1.060708    15A     -1.022463
      16A     -0.969613    17A     -0.894782    18A     -0.837870
      19A     -0.768652    20A     -0.723390    21A     -0.683113
      22A     -0.673228    23A     -0.644391    24A     -0.626122
      25A     -0.623128    26A     -0.598676    27A     -0.591862
      28A     -0.568039    29A     -0.556829    30A     -0.537561
      31A     -0.534835    32A     -0.522632    33A     -0.510438
      34A     -0.507137    35A     -0.492235    36A     -0.483943
      37A     -0.482983    38A     -0.427219    39A     -0.407489

  @DF-RHF Final Energy:  -460.99214387879141

   => Energetics <=

    Nuclear Repulsion Energy =            551.0772514874721537
    One-Electron Energy =               -1720.4433188999630602
    Two-Electron Energy =                 708.3739235336993261
    Total Energy =                       -460.9921438787914667
  Basis Set: (AUG-CC-PVTZ AUX)
    Blend: AUG-CC-PVTZ-RI
    Molecular point group: c1

    Geometry (in Angstrom), charge = 0, multiplicity = 1:

       Center              X                  Y                   Z               Mass
    ------------   -----------------  -----------------  -----------------  -----------------
         O           -1.180864370716    -0.788752007407    -1.086590849172    15.994914619570
         O            2.233029629284    -0.803347007407    -0.726318849172    15.994914619570
         C            0.385516629284     0.272577992593     0.385972150828    12.000000000000
         C            0.841111629284     1.566793992593    -0.304018849172    12.000000000000
         C           -1.018860370716    -0.079964007407    -0.094732849172    12.000000000000
         C            1.318343629284    -0.900228007407     0.085029150828    12.000000000000
         C           -2.183207370716     0.504855992593     0.677727150828    12.000000000000
         C            2.093724629284     2.164536992593     0.330607150828    12.000000000000
         C            1.037454629284    -2.189822007407     0.821261150828    12.000000000000
         C           -3.522749370716     0.294232992593    -0.012602849172    12.000000000000
         H            0.357939629284     0.428177992593     1.475455150828     1.007825032230
         H            1.024291629284     1.333477992593    -1.356885849172     1.007825032230
         H            0.027154629284     2.301334992593    -0.268476849172     1.007825032230
         H           -1.984270370716     1.569510992593     0.855142150828     1.007825032230
         H           -2.173359370716     0.037953992593     1.673196150828     1.007825032230
         H            2.932836629284     1.469069792593     0.275818250828     1.007825032230
         H            2.377374629284     3.090981992593    -0.177230849172     1.007825032230
         H            1.923538629284     2.399846992593     1.386350150828     1.007825032230
         H           -3.713468370716    -0.769262007407    -0.166694849172     1.007825032230
         H           -3.531303370716     0.775708992593    -0.992860849172     1.007825032230
         H           -4.334433370716     0.713327992593     0.587620150828     1.007825032230
         H            0.918194629284    -2.011697007407     1.894668150828     1.007825032230
         H            1.856095629284    -2.889468007407     0.647615150828     1.007825032230
         H            0.107068629284    -2.624858007407     0.443593150828     1.007825032230

  Basis Set: AUG-CC-PVTZ
    Blend: AUG-CC-PVTZ
  Basis Set: (AUG-CC-PVTZ AUX)
    Blend: AUG-CC-PVTZ-JKFIT
	 Reference Energy          =    -460.9921438787914099 [Eh]
	 Singles Energy            =      -0.0000000000000000 [Eh]
	 Same-Spin Energy          =      -0.4688380315487531 [Eh]
	 Opposite-Spin Energy      =      -1.5686898599246675 [Eh]
	 Correlation Energy        =      -2.0375278914734207 [Eh]
	 Total Energy              =    -463.0296717702648266 [Eh]

	 ================> DF-SCS-MP2 Energies <==================
	-----------------------------------------------------------
	 SCS Same-Spin Scale       =       0.3333333333333333 [-]
	 SCS Opposite-Spin Scale   =       1.2000000000000000 [-]
	 SCS Same-Spin Energy      =      -0.1562793438495844 [Eh]
	 SCS Opposite-Spin Energy  =      -1.8824278319096008 [Eh]
	 SCS Correlation Energy    =      -2.0387071757591850 [Eh]
	 SCS Total Energy          =    -463.0308510545505669 [Eh]
	-----------------------------------------------------------

  Dipole Moment: [D]
     X:    -1.7736      Y:     1.4098      Z:     3.5947     Total:     4.2492

*** Psi4 exiting successfully. Buy a developer a beer!
