                               Psi4 1.4a3.dev225

  ==> Input File <==

--------------------------------------------------------------------------
#psi4
#
memory 32 gb

molecule  {
0 1
  O       -1.1540860    -0.8257380    -1.1262130
  O        2.2598080    -0.8403330    -0.7659410
  C        0.4122950     0.2355920     0.3463500
  C        0.8911770     1.5283676    -0.3304460
  C       -0.9920820    -0.1169500    -0.1343550
  C        1.3451220    -0.9372140     0.0454070
  C       -2.1564290     0.4678700     0.6381050
  C        2.1205030     2.1275510     0.2909850
  C        1.0642330    -2.2268080     0.7816390
  C       -3.4959710     0.2572470    -0.0522250
  H        0.3847180     0.3911920     1.4358330
  H        1.0510700     1.2964920    -1.3965080
  H        0.0539330     2.2643490    -0.3080990
  H       -1.9574920     1.5325250     0.8155200
  H       -2.1465810     0.0009680     1.6335740
  H        2.9579070     1.4317780     0.2172300
  H        2.4041530     3.0539960    -0.2168530
  H        1.9503170     2.3628610     1.3467280
  H       -3.6866900    -0.8062480    -0.2063170
  H       -3.5045250     0.7387230    -1.0324830
  H       -4.3076550     0.6763420     0.5479980
  H        0.9449730    -2.0486830     1.8550460
  H        1.8828740    -2.9264540     0.6079930
  H        0.1338470    -2.6618440     0.4039710
units angstrom
no_reorient  #important for SAPT in psi4, default
symmetry c1  #important for SAPT in psi4, default
}

set PROPERTIES_ORIGIN ["COM"]
properties('MP2/aug-cc-pvtz', properties = ['dipole'])
--------------------------------------------------------------------------

    Molecular point group: c1
  Charge       = 0
  Multiplicity = 1
  Basis Set: AUG-CC-PVTZ
    Blend: AUG-CC-PVTZ
  Basis Set: (AUG-CC-PVTZ AUX)
    Blend: AUG-CC-PVTZ-JKFIT

    Orbital Energies [Eh]
    ---------------------

    Doubly Occupied:

       1A    -20.558763     2A    -20.548770     3A    -11.346367
       4A    -11.338101     5A    -11.258593     6A    -11.252914
       7A    -11.238580     8A    -11.235488     9A    -11.225973
      10A    -11.217141    11A     -1.392690    12A     -1.378665
      13A     -1.108323    14A     -1.061261    15A     -1.023842
      16A     -0.971620    17A     -0.895075    18A     -0.834699
      19A     -0.768837    20A     -0.723418    21A     -0.683508
      22A     -0.673036    23A     -0.644234    24A     -0.625960
      25A     -0.623667    26A     -0.598807    27A     -0.591888
      28A     -0.568883    29A     -0.557557    30A     -0.539145
      31A     -0.535254    32A     -0.522693    33A     -0.514325
      34A     -0.504327    35A     -0.491507    36A     -0.482101
      37A     -0.480617    38A     -0.428132    39A     -0.407378

  @DF-RHF Final Energy:  -460.99109702946782

   => Energetics <=

    Nuclear Repulsion Energy =            551.1827625984680026
    One-Electron Energy =               -1720.6434388394045527
    Two-Electron Energy =                 708.4695792114688402
    Total Energy =                       -460.9910970294678236
  Basis Set: (AUG-CC-PVTZ AUX)
    Blend: AUG-CC-PVTZ-RI
    Molecular point group: c1

    Geometry (in Angstrom), charge = 0, multiplicity = 1:

       Center              X                  Y                   Z               Mass
    ------------   -----------------  -----------------  -----------------  -----------------
         O           -1.182818796101    -0.788628199738    -1.087570624664    15.994914619570
         O            2.231075203899    -0.803223199738    -0.727298624664    15.994914619570
         C            0.383562203899     0.272701800262     0.384992375336    12.000000000000
         C            0.862444203899     1.565477400262    -0.291803624664    12.000000000000
         C           -1.020814796101    -0.079840199738    -0.095712624664    12.000000000000
         C            1.316389203899    -0.900104199738     0.084049375336    12.000000000000
         C           -2.185161796101     0.504979800262     0.676747375336    12.000000000000
         C            2.091770203899     2.164660800262     0.329627375336    12.000000000000
         C            1.035500203899    -2.189698199738     0.820281375336    12.000000000000
         C           -3.524703796101     0.294356800262    -0.013582624664    12.000000000000
         H            0.355985203899     0.428301800262     1.474475375336     1.007825032230
         H            1.022337203899     1.333601800262    -1.357865624664     1.007825032230
         H            0.025200203899     2.301458800262    -0.269456624664     1.007825032230
         H           -1.986224796101     1.569634800262     0.854162375336     1.007825032230
         H           -2.175313796101     0.038077800262     1.672216375336     1.007825032230
         H            2.929174203899     1.468887800262     0.255872375336     1.007825032230
         H            2.375420203899     3.091105800262    -0.178210624664     1.007825032230
         H            1.921584203899     2.399970800262     1.385370375336     1.007825032230
         H           -3.715422796101    -0.769138199738    -0.167674624664     1.007825032230
         H           -3.533257796101     0.775832800262    -0.993840624664     1.007825032230
         H           -4.336387796101     0.713451800262     0.586640375336     1.007825032230
         H            0.916240203899    -2.011573199738     1.893688375336     1.007825032230
         H            1.854141203899    -2.889344199738     0.646635375336     1.007825032230
         H            0.105114203899    -2.624734199738     0.442613375336     1.007825032230

  Basis Set: AUG-CC-PVTZ
    Blend: AUG-CC-PVTZ
  Basis Set: (AUG-CC-PVTZ AUX)
    Blend: AUG-CC-PVTZ-JKFIT
	 Reference Energy          =    -460.9910970294678236 [Eh]
	 Singles Energy            =      -0.0000000000000000 [Eh]
	 Same-Spin Energy          =      -0.4690017350679436 [Eh]
	 Opposite-Spin Energy      =      -1.5688777221630541 [Eh]
	 Correlation Energy        =      -2.0378794572309977 [Eh]
	 Total Energy              =    -463.0289764866988094 [Eh]

	 ================> DF-SCS-MP2 Energies <==================
	-----------------------------------------------------------
	 SCS Same-Spin Scale       =       0.3333333333333333 [-]
	 SCS Opposite-Spin Scale   =       1.2000000000000000 [-]
	 SCS Same-Spin Energy      =      -0.1563339116893145 [Eh]
	 SCS Opposite-Spin Energy  =      -1.8826532665956648 [Eh]
	 SCS Correlation Energy    =      -2.0389871782849793 [Eh]
	 SCS Total Energy          =    -463.0300842077527932 [Eh]
	-----------------------------------------------------------

  Dipole Moment: [D]
     X:    -1.7678      Y:     1.4086      Z:     3.5902     Total:     4.2425

*** Psi4 exiting successfully. Buy a developer a beer!
