                               Psi4 1.4a3.dev225

  ==> Input File <==

--------------------------------------------------------------------------
#psi4
#
memory 32 gb

molecule  {
0 1
  O       -1.1540860    -0.8257380    -1.1262130
  O        2.2598080    -0.8403330    -0.7659410
  C        0.4401320     0.2653549     0.3119177
  C        0.8678900     1.5298080    -0.3436410
  C       -0.9920820    -0.1169500    -0.1343550
  C        1.3451220    -0.9372140     0.0454070
  C       -2.1564290     0.4678700     0.6381050
  C        2.1205030     2.1275510     0.2909850
  C        1.0642330    -2.2268080     0.7816390
  C       -3.4959710     0.2572470    -0.0522250
  H        0.3847180     0.3911920     1.4358330
  H        1.0510700     1.2964920    -1.3965080
  H        0.0539330     2.2643490    -0.3080990
  H       -1.9574920     1.5325250     0.8155200
  H       -2.1465810     0.0009680     1.6335740
  H        2.9579070     1.4317780     0.2172300
  H        2.4041530     3.0539960    -0.2168530
  H        1.9503170     2.3628610     1.3467280
  H       -3.6866900    -0.8062480    -0.2063170
  H       -3.5045250     0.7387230    -1.0324830
  H       -4.3076550     0.6763420     0.5479980
  H        0.9449730    -2.0486830     1.8550460
  H        1.8828740    -2.9264540     0.6079930
  H        0.1338470    -2.6618440     0.4039710
units angstrom
no_reorient  #important for SAPT in psi4, default
symmetry c1  #important for SAPT in psi4, default
}

set PROPERTIES_ORIGIN ["COM"]
properties('MP2/aug-cc-pvtz', properties = ['dipole'])
--------------------------------------------------------------------------

    Molecular point group: c1
  Charge       = 0
  Multiplicity = 1
  Basis Set: AUG-CC-PVTZ
    Blend: AUG-CC-PVTZ
  Basis Set: (AUG-CC-PVTZ AUX)
    Blend: AUG-CC-PVTZ-JKFIT

    Orbital Energies [Eh]
    ---------------------

    Doubly Occupied:

       1A    -20.558840     2A    -20.547295     3A    -11.346556
       4A    -11.337686     5A    -11.260256     6A    -11.253499
       7A    -11.237155     8A    -11.233860     9A    -11.226373
      10A    -11.217461    11A     -1.392445    12A     -1.378393
      13A     -1.110185    14A     -1.061903    15A     -1.022492
      16A     -0.967582    17A     -0.895531    18A     -0.839954
      19A     -0.766612    20A     -0.720485    21A     -0.680987
      22A     -0.674820    23A     -0.644590    24A     -0.627189
      25A     -0.622723    26A     -0.599596    27A     -0.593582
      28A     -0.566257    29A     -0.556777    30A     -0.537271
      31A     -0.534501    32A     -0.522273    33A     -0.511245
      34A     -0.508212    35A     -0.491164    36A     -0.486142
      37A     -0.483616    38A     -0.426467    39A     -0.405425

  @DF-RHF Final Energy:  -460.98917290430364

   => Energetics <=

    Nuclear Repulsion Energy =            551.2558067128954917
    One-Electron Energy =               -1720.7951563881904349
    Two-Electron Energy =                 708.5501767709912428
    Total Energy =                       -460.9891729043037003
  Basis Set: (AUG-CC-PVTZ AUX)
    Blend: AUG-CC-PVTZ-RI
    Molecular point group: c1

    Geometry (in Angstrom), charge = 0, multiplicity = 1:

       Center              X                  Y                   Z               Mass
    ------------   -----------------  -----------------  -----------------  -----------------
         O           -1.183203034231    -0.791263254169    -1.083548597254    15.994914619570
         O            2.230690965769    -0.805858254169    -0.723276597254    15.994914619570
         C            0.411014965769     0.299829645831     0.354582102746    12.000000000000
         C            0.838772965769     1.564282745831    -0.300976597254    12.000000000000
         C           -1.021199034231    -0.082475254169    -0.091690597254    12.000000000000
         C            1.316004965769    -0.902739254169     0.088071402746    12.000000000000
         C           -2.185546034231     0.502344745831     0.680769402746    12.000000000000
         C            2.091385965769     2.162025745831     0.333649402746    12.000000000000
         C            1.035115965769    -2.192333254169     0.824303402746    12.000000000000
         C           -3.525088034231     0.291721745831    -0.009560597254    12.000000000000
         H            0.355600965769     0.425666745831     1.478497402746     1.007825032230
         H            1.021952965769     1.330966745831    -1.353843597254     1.007825032230
         H            0.024815965769     2.298823745831    -0.265434597254     1.007825032230
         H           -1.986609034231     1.566999745831     0.858184402746     1.007825032230
         H           -2.175698034231     0.035442745831     1.676238402746     1.007825032230
         H            2.928789965769     1.466252745831     0.259894402746     1.007825032230
         H            2.375035965769     3.088470745831    -0.174188597254     1.007825032230
         H            1.921199965769     2.397335745831     1.389392402746     1.007825032230
         H           -3.715807034231    -0.771773254169    -0.163652597254     1.007825032230
         H           -3.533642034231     0.773197745831    -0.989818597254     1.007825032230
         H           -4.336772034231     0.710816745831     0.590662402746     1.007825032230
         H            0.915855965769    -2.014208254169     1.897710402746     1.007825032230
         H            1.853756965769    -2.891979254169     0.650657402746     1.007825032230
         H            0.104729965769    -2.627369254169     0.446635402746     1.007825032230

  Basis Set: AUG-CC-PVTZ
    Blend: AUG-CC-PVTZ
  Basis Set: (AUG-CC-PVTZ AUX)
    Blend: AUG-CC-PVTZ-JKFIT
	 Reference Energy          =    -460.9891729043036435 [Eh]
	 Singles Energy            =      -0.0000000000000000 [Eh]
	 Same-Spin Energy          =      -0.4690693191554717 [Eh]
	 Opposite-Spin Energy      =      -1.5690548924633976 [Eh]
	 Correlation Energy        =      -2.0381242116188694 [Eh]
	 Total Energy              =    -463.0272971159225222 [Eh]

	 ================> DF-SCS-MP2 Energies <==================
	-----------------------------------------------------------
	 SCS Same-Spin Scale       =       0.3333333333333333 [-]
	 SCS Opposite-Spin Scale   =       1.2000000000000000 [-]
	 SCS Same-Spin Energy      =      -0.1563564397184906 [Eh]
	 SCS Opposite-Spin Energy  =      -1.8828658709560770 [Eh]
	 SCS Correlation Energy    =      -2.0392223106745675 [Eh]
	 SCS Total Energy          =    -463.0283952149782181 [Eh]
	-----------------------------------------------------------

  Dipole Moment: [D]
     X:    -1.8502      Y:     1.3749      Z:     3.5647     Total:     4.2451

*** Psi4 exiting successfully. Buy a developer a beer!
