                               Psi4 1.4a3.dev225

  ==> Input File <==

--------------------------------------------------------------------------
#psi4
#
memory 32 gb

molecule  {
0 1
  O       -1.1540860    -0.8257380    -1.1262130
  O        2.2598080    -0.8403330    -0.7659410
  C        0.4122950     0.2355920     0.3463500
  C        0.8678900     1.5298080    -0.3436410
  C       -0.9920820    -0.1169500    -0.1343550
  C        1.3451220    -0.9372140     0.0454070
  C       -2.1564290     0.4678700     0.6381050
  C        2.1205030     2.1275510     0.2909850
  C        1.0642330    -2.2268080     0.7816390
  C       -3.4959710     0.2572470    -0.0522250
  H        0.3847180     0.3911920     1.4358330
  H        1.0510700     1.2964920    -1.3965080
  H        0.0539330     2.2643490    -0.3080990
  H       -1.9574920     1.5325250     0.8155200
  H       -2.1465810     0.0009680     1.6335740
  H        2.9579070     1.4317780     0.2172300
  H        2.4041530     3.0539960    -0.2168530
  H        1.9503170     2.3628610     1.3467280
  H       -3.7027275    -0.8046729    -0.1961607
  H       -3.5045250     0.7387230    -1.0324830
  H       -4.3076550     0.6763420     0.5479980
  H        0.9449730    -2.0486830     1.8550460
  H        1.8828740    -2.9264540     0.6079930
  H        0.1338470    -2.6618440     0.4039710
units angstrom
no_reorient  #important for SAPT in psi4, default
symmetry c1  #important for SAPT in psi4, default
}

set PROPERTIES_ORIGIN ["COM"]
properties('MP2/aug-cc-pvtz', properties = ['dipole'])
--------------------------------------------------------------------------

    Molecular point group: c1
  Charge       = 0
  Multiplicity = 1
  Basis Set: AUG-CC-PVTZ
    Blend: AUG-CC-PVTZ
  Basis Set: (AUG-CC-PVTZ AUX)
    Blend: AUG-CC-PVTZ-JKFIT

    Orbital Energies [Eh]
    ---------------------

    Doubly Occupied:

       1A    -20.558120     2A    -20.548762     3A    -11.345831
       4A    -11.338308     5A    -11.258543     6A    -11.253007
       7A    -11.237514     8A    -11.235631     9A    -11.225982
      10A    -11.218011    11A     -1.392268    12A     -1.378551
      13A     -1.107609    14A     -1.060650    15A     -1.022482
      16A     -0.969613    17A     -0.894936    18A     -0.837602
      19A     -0.768683    20A     -0.723348    21A     -0.682957
      22A     -0.673303    23A     -0.644479    24A     -0.626200
      25A     -0.622970    26A     -0.599129    27A     -0.591815
      28A     -0.567882    29A     -0.556525    30A     -0.537711
      31A     -0.534749    32A     -0.522633    33A     -0.510300
      34A     -0.506899    35A     -0.492301    36A     -0.484276
      37A     -0.482885    38A     -0.427167    39A     -0.407445

  @DF-RHF Final Energy:  -460.99213915359076

   => Energetics <=

    Nuclear Repulsion Energy =            551.0564354658714592
    One-Electron Energy =               -1720.4029911702070876
    Two-Electron Energy =                 708.3544165507447588
    Total Energy =                       -460.9921391535907560
  Basis Set: (AUG-CC-PVTZ AUX)
    Blend: AUG-CC-PVTZ-RI
    Molecular point group: c1

    Geometry (in Angstrom), charge = 0, multiplicity = 1:

       Center              X                  Y                   Z               Mass
    ------------   -----------------  -----------------  -----------------  -----------------
         O           -1.180738512607    -0.788761009785    -1.086528366584    15.994914619570
         O            2.233155487393    -0.803356009785    -0.726256366584    15.994914619570
         C            0.385642487393     0.272568990215     0.386034633416    12.000000000000
         C            0.841237487393     1.566784990215    -0.303956366584    12.000000000000
         C           -1.018734512607    -0.079973009785    -0.094670366584    12.000000000000
         C            1.318469487393    -0.900237009785     0.085091633416    12.000000000000
         C           -2.183081512607     0.504846990215     0.677789633416    12.000000000000
         C            2.093850487393     2.164527990215     0.330669633416    12.000000000000
         C            1.037580487393    -2.189831009785     0.821323633416    12.000000000000
         C           -3.522623512607     0.294223990215    -0.012540366584    12.000000000000
         H            0.358065487393     0.428168990215     1.475517633416     1.007825032230
         H            1.024417487393     1.333468990215    -1.356823366584     1.007825032230
         H            0.027280487393     2.301325990215    -0.268414366584     1.007825032230
         H           -1.984144512607     1.569501990215     0.855204633416     1.007825032230
         H           -2.173233512607     0.037944990215     1.673258633416     1.007825032230
         H            2.931254487393     1.468754990215     0.256914633416     1.007825032230
         H            2.377500487393     3.090972990215    -0.177168366584     1.007825032230
         H            1.923664487393     2.399837990215     1.386412633416     1.007825032230
         H           -3.729380012607    -0.767695909785    -0.156476066584     1.007825032230
         H           -3.531177512607     0.775699990215    -0.992798366584     1.007825032230
         H           -4.334307512607     0.713318990215     0.587682633416     1.007825032230
         H            0.918320487393    -2.011706009785     1.894730633416     1.007825032230
         H            1.856221487393    -2.889477009785     0.647677633416     1.007825032230
         H            0.107194487393    -2.624867009785     0.443655633416     1.007825032230

  Basis Set: AUG-CC-PVTZ
    Blend: AUG-CC-PVTZ
  Basis Set: (AUG-CC-PVTZ AUX)
    Blend: AUG-CC-PVTZ-JKFIT
	 Reference Energy          =    -460.9921391535907560 [Eh]
	 Singles Energy            =      -0.0000000000000000 [Eh]
	 Same-Spin Energy          =      -0.4688339239814575 [Eh]
	 Opposite-Spin Energy      =      -1.5686864483207188 [Eh]
	 Correlation Energy        =      -2.0375203723021764 [Eh]
	 Total Energy              =    -463.0296595258929528 [Eh]

	 ================> DF-SCS-MP2 Energies <==================
	-----------------------------------------------------------
	 SCS Same-Spin Scale       =       0.3333333333333333 [-]
	 SCS Opposite-Spin Scale   =       1.2000000000000000 [-]
	 SCS Same-Spin Energy      =      -0.1562779746604858 [Eh]
	 SCS Opposite-Spin Energy  =      -1.8824237379848625 [Eh]
	 SCS Correlation Energy    =      -2.0387017126453482 [Eh]
	 SCS Total Energy          =    -463.0308408662360762 [Eh]
	-----------------------------------------------------------

  Dipole Moment: [D]
     X:    -1.7788      Y:     1.4090      Z:     3.5943     Total:     4.2507

*** Psi4 exiting successfully. Buy a developer a beer!
