                               Psi4 1.4a3.dev225

  ==> Input File <==

--------------------------------------------------------------------------
#psi4
#
memory 32 gb

molecule  {
0 1
  C        0.6677790    -0.2877210    -0.0000110
  C       -0.6677790     0.2877220     0.0000160
  C        1.8019300     0.4385480     0.0000620
  C       -1.8019300    -0.4385470    -0.0000660
  C        3.1824410    -0.1410110     0.0000540
  C       -3.1824410     0.1410100    -0.0000550
  H        0.7356230    -1.3773410    -0.0000890
  H       -0.7343811     1.3573807     0.0000985
  H        1.7263590     1.5270040     0.0001430
  H       -1.7263580    -1.5270030    -0.0001530
  H        3.1481690    -1.2341710    -0.0000530
  H        3.7490380     0.1823190    -0.8804680
  H        3.7489810     0.1821480     0.8806760
  H       -3.7489900    -0.1821670    -0.8806650
  H       -3.7490280    -0.1823020     0.8804800
  H       -3.1481700     1.2341700     0.0000290
units angstrom
no_reorient  #important for SAPT in psi4, default
symmetry c1  #important for SAPT in psi4, default
}

set PROPERTIES_ORIGIN ["COM"]
properties('MP2/aug-cc-pvtz', properties = ['dipole'])
--------------------------------------------------------------------------

    Molecular point group: c1
  Charge       = 0
  Multiplicity = 1
  Basis Set: AUG-CC-PVTZ
    Blend: AUG-CC-PVTZ
  Basis Set: (AUG-CC-PVTZ AUX)
    Blend: AUG-CC-PVTZ-JKFIT

    Orbital Energies [Eh]
    ---------------------

    Doubly Occupied:

       1A    -11.230706     2A    -11.230598     3A    -11.226371
       4A    -11.224064     5A    -11.221241     6A    -11.221168
       7A     -1.096825     8A     -1.045754     9A     -0.966720
      10A     -0.892635    11A     -0.763706    12A     -0.750887
      13A     -0.644654    14A     -0.611110    15A     -0.566855
      16A     -0.563836    17A     -0.557041    18A     -0.547362
      19A     -0.511499    20A     -0.502393    21A     -0.483009
      22A     -0.422699    23A     -0.298376

  @DF-RHF Final Energy:  -233.08186640225907

   => Energetics <=

    Nuclear Repulsion Energy =            208.0590752371151666
    One-Electron Energy =                -725.1228667107154706
    Two-Electron Energy =                 283.9819250713412657
    Total Energy =                       -233.0818664022590383
  Basis Set: (AUG-CC-PVTZ AUX)
    Blend: AUG-CC-PVTZ-RI
    Molecular point group: c1

    Geometry (in Angstrom), charge = 0, multiplicity = 1:

       Center              X                  Y                   Z               Mass
    ------------   -----------------  -----------------  -----------------  -----------------
         C            0.667763738640    -0.287476032477    -0.000010981582    12.000000000000
         C           -0.667794261360     0.287966967523     0.000016018418    12.000000000000
         C            1.801914738640     0.438792967523     0.000062018418    12.000000000000
         C           -1.801945261360    -0.438302032477    -0.000065981582    12.000000000000
         C            3.182425738640    -0.140766032477     0.000054018418    12.000000000000
         C           -3.182456261360     0.141254967523    -0.000054981582    12.000000000000
         H            0.735607738640    -1.377096032477    -0.000088981582     1.007825032230
         H           -0.734396361360     1.357625667523     0.000098518418     1.007825032230
         H            1.726343738640     1.527248967523     0.000143018418     1.007825032230
         H           -1.726373261360    -1.526758032477    -0.000152981582     1.007825032230
         H            3.148153738640    -1.233926032477    -0.000052981582     1.007825032230
         H            3.749022738640     0.182563967523    -0.880467981582     1.007825032230
         H            3.748965738640     0.182392967523     0.880676018418     1.007825032230
         H           -3.749005261360    -0.181922032477    -0.880664981582     1.007825032230
         H           -3.749043261360    -0.182057032477     0.880480018418     1.007825032230
         H           -3.148185261360     1.234414967523     0.000029018418     1.007825032230

  Basis Set: AUG-CC-PVTZ
    Blend: AUG-CC-PVTZ
  Basis Set: (AUG-CC-PVTZ AUX)
    Blend: AUG-CC-PVTZ-JKFIT
	 Reference Energy          =    -233.0818664022590667 [Eh]
	 Singles Energy            =      -0.0000000000000000 [Eh]
	 Same-Spin Energy          =      -0.2454348599951591 [Eh]
	 Opposite-Spin Energy      =      -0.8818472080377877 [Eh]
	 Correlation Energy        =      -1.1272820680329469 [Eh]
	 Total Energy              =    -234.2091484702920070 [Eh]

	 ================> DF-SCS-MP2 Energies <==================
	-----------------------------------------------------------
	 SCS Same-Spin Scale       =       0.3333333333333333 [-]
	 SCS Opposite-Spin Scale   =       1.2000000000000000 [-]
	 SCS Same-Spin Energy      =      -0.0818116199983864 [Eh]
	 SCS Opposite-Spin Energy  =      -1.0582166496453451 [Eh]
	 SCS Correlation Energy    =      -1.1400282696437314 [Eh]
	 SCS Total Energy          =    -234.2218946719027883 [Eh]
	-----------------------------------------------------------

  Dipole Moment: [D]
     X:    -0.0050      Y:     0.0089      Z:     0.0000     Total:     0.0102

*** Psi4 exiting successfully. Buy a developer a beer!
