                               Psi4 1.4a3.dev225

  ==> Input File <==

--------------------------------------------------------------------------
#psi4
#
memory 32 gb

molecule  {
0 1
  C        0.6677790    -0.2877210    -0.0000110
  C       -0.6494114     0.2798081     0.0000156
  C        1.8019300     0.4385480     0.0000620
  C       -1.8019300    -0.4385470    -0.0000660
  C        3.1824410    -0.1410110     0.0000540
  C       -3.1824410     0.1410100    -0.0000550
  H        0.7356230    -1.3773410    -0.0000890
  H       -0.7356240     1.3773420     0.0001000
  H        1.7263590     1.5270040     0.0001430
  H       -1.7263580    -1.5270030    -0.0001530
  H        3.1481690    -1.2341710    -0.0000530
  H        3.7490380     0.1823190    -0.8804680
  H        3.7489810     0.1821480     0.8806760
  H       -3.7489900    -0.1821670    -0.8806650
  H       -3.7490280    -0.1823020     0.8804800
  H       -3.1481700     1.2341700     0.0000290
units angstrom
no_reorient  #important for SAPT in psi4, default
symmetry c1  #important for SAPT in psi4, default
}

set PROPERTIES_ORIGIN ["COM"]
properties('MP2/aug-cc-pvtz', properties = ['dipole'])
--------------------------------------------------------------------------

    Molecular point group: c1
  Charge       = 0
  Multiplicity = 1
  Basis Set: AUG-CC-PVTZ
    Blend: AUG-CC-PVTZ
  Basis Set: (AUG-CC-PVTZ AUX)
    Blend: AUG-CC-PVTZ-JKFIT

    Orbital Energies [Eh]
    ---------------------

    Doubly Occupied:

       1A    -11.232327     2A    -11.231181     3A    -11.227500
       4A    -11.225343     5A    -11.221815     6A    -11.221391
       7A     -1.097731     8A     -1.044677     9A     -0.968612
      10A     -0.891660    11A     -0.764946    12A     -0.747775
      13A     -0.645800    14A     -0.610066    15A     -0.567075
      16A     -0.563997    17A     -0.557183    18A     -0.544110
      19A     -0.511494    20A     -0.501472    21A     -0.484503
      22A     -0.424572    23A     -0.295553

  @DF-RHF Final Energy:  -233.08029299266690

   => Energetics <=

    Nuclear Repulsion Energy =            208.0446208050638006
    One-Electron Energy =                -725.0882586959050968
    Two-Electron Energy =                 283.9633448981743982
    Total Energy =                       -233.0802929926668980
  Basis Set: (AUG-CC-PVTZ AUX)
    Blend: AUG-CC-PVTZ-RI
    Molecular point group: c1

    Geometry (in Angstrom), charge = 0, multiplicity = 1:

       Center              X                  Y                   Z               Mass
    ------------   -----------------  -----------------  -----------------  -----------------
         C            0.665093621119    -0.286564106335    -0.000010941519    12.000000000000
         C           -0.652096778881     0.280964993665     0.000015658481    12.000000000000
         C            1.799244621119     0.439704893665     0.000062058481    12.000000000000
         C           -1.804615378881    -0.437390106335    -0.000065941519    12.000000000000
         C            3.179755621119    -0.139854106335     0.000054058481    12.000000000000
         C           -3.185126378881     0.142166893665    -0.000054941519    12.000000000000
         H            0.732937621119    -1.376184106335    -0.000088941519     1.007825032230
         H           -0.738309378881     1.378498893665     0.000100058481     1.007825032230
         H            1.723673621119     1.528160893665     0.000143058481     1.007825032230
         H           -1.729043378881    -1.525846106335    -0.000152941519     1.007825032230
         H            3.145483621119    -1.233014106335    -0.000052941519     1.007825032230
         H            3.746352621119     0.183475893665    -0.880467941519     1.007825032230
         H            3.746295621119     0.183304893665     0.880676058481     1.007825032230
         H           -3.751675378881    -0.181010106335    -0.880664941519     1.007825032230
         H           -3.751713378881    -0.181145106335     0.880480058481     1.007825032230
         H           -3.150855378881     1.235326893665     0.000029058481     1.007825032230

  Basis Set: AUG-CC-PVTZ
    Blend: AUG-CC-PVTZ
  Basis Set: (AUG-CC-PVTZ AUX)
    Blend: AUG-CC-PVTZ-JKFIT
	 Reference Energy          =    -233.0802929926668980 [Eh]
	 Singles Energy            =      -0.0000000000000000 [Eh]
	 Same-Spin Energy          =      -0.2459022238441868 [Eh]
	 Opposite-Spin Energy      =      -0.8825623913629113 [Eh]
	 Correlation Energy        =      -1.1284646152070981 [Eh]
	 Total Energy              =    -234.2087576078739914 [Eh]

	 ================> DF-SCS-MP2 Energies <==================
	-----------------------------------------------------------
	 SCS Same-Spin Scale       =       0.3333333333333333 [-]
	 SCS Opposite-Spin Scale   =       1.2000000000000000 [-]
	 SCS Same-Spin Energy      =      -0.0819674079480623 [Eh]
	 SCS Opposite-Spin Energy  =      -1.0590748696354935 [Eh]
	 SCS Correlation Energy    =      -1.1410422775835558 [Eh]
	 SCS Total Energy          =    -234.2213352702504494 [Eh]
	-----------------------------------------------------------

  Dipole Moment: [D]
     X:     0.0068      Y:    -0.0010      Z:     0.0000     Total:     0.0069

*** Psi4 exiting successfully. Buy a developer a beer!
