                               Psi4 1.4a3.dev225

  ==> Input File <==

--------------------------------------------------------------------------
#psi4
#
memory 32 gb

molecule  {
0 1
  C        0.6677790    -0.2877210    -0.0000110
  C       -0.6677790     0.2877220     0.0000160
  C        1.7598234     0.4115845     0.0000593
  C       -1.8019300    -0.4385470    -0.0000660
  C        3.1824410    -0.1410110     0.0000540
  C       -3.1824410     0.1410100    -0.0000550
  H        0.7356230    -1.3773410    -0.0000890
  H       -0.7356240     1.3773420     0.0001000
  H        1.7263590     1.5270040     0.0001430
  H       -1.7263580    -1.5270030    -0.0001530
  H        3.1481690    -1.2341710    -0.0000530
  H        3.7490380     0.1823190    -0.8804680
  H        3.7489810     0.1821480     0.8806760
  H       -3.7489900    -0.1821670    -0.8806650
  H       -3.7490280    -0.1823020     0.8804800
  H       -3.1481700     1.2341700     0.0000290
units angstrom
no_reorient  #important for SAPT in psi4, default
symmetry c1  #important for SAPT in psi4, default
}

set PROPERTIES_ORIGIN ["COM"]
properties('MP2/aug-cc-pvtz', properties = ['dipole'])
--------------------------------------------------------------------------

    Molecular point group: c1
  Charge       = 0
  Multiplicity = 1
  Basis Set: AUG-CC-PVTZ
    Blend: AUG-CC-PVTZ
  Basis Set: (AUG-CC-PVTZ AUX)
    Blend: AUG-CC-PVTZ-JKFIT

    Orbital Energies [Eh]
    ---------------------

    Doubly Occupied:

       1A    -11.230818     2A    -11.226991     3A    -11.226220
       4A    -11.222193     5A    -11.221248     6A    -11.219538
       7A     -1.101336     8A     -1.046493     9A     -0.964283
      10A     -0.897345    11A     -0.760961    12A     -0.746508
      13A     -0.645817    14A     -0.611172    15A     -0.566358
      16A     -0.562461    17A     -0.555903    18A     -0.546334
      19A     -0.515863    20A     -0.498447    21A     -0.472733
      22A     -0.429179    23A     -0.305613

  @DF-RHF Final Energy:  -233.08007712288779

   => Energetics <=

    Nuclear Repulsion Energy =            208.4650691147552664
    One-Electron Energy =                -725.9426676414866506
    Two-Electron Energy =                 284.3975214038436548
    Total Energy =                       -233.0800771228877579
  Basis Set: (AUG-CC-PVTZ AUX)
    Blend: AUG-CC-PVTZ-RI
    Molecular point group: c1

    Geometry (in Angstrom), charge = 0, multiplicity = 1:

       Center              X                  Y                   Z               Mass
    ------------   -----------------  -----------------  -----------------  -----------------
         C            0.673935066900    -0.283779017726    -0.000010605255    12.000000000000
         C           -0.661622933100     0.291663982274     0.000016394745    12.000000000000
         C            1.765979466900     0.415526482274     0.000059694745    12.000000000000
         C           -1.795773933100    -0.434605017726    -0.000065605255    12.000000000000
         C            3.188597066900    -0.137069017726     0.000054394745    12.000000000000
         C           -3.176284933100     0.144951982274    -0.000054605255    12.000000000000
         H            0.741779066900    -1.373399017726    -0.000088605255     1.007825032230
         H           -0.729467933100     1.381283982274     0.000100394745     1.007825032230
         H            1.732515066900     1.530945982274     0.000143394745     1.007825032230
         H           -1.720201933100    -1.523061017726    -0.000152605255     1.007825032230
         H            3.154325066900    -1.230229017726    -0.000052605255     1.007825032230
         H            3.755194066900     0.186260982274    -0.880467605255     1.007825032230
         H            3.755137066900     0.186089982274     0.880676394745     1.007825032230
         H           -3.742833933100    -0.178225017726    -0.880664605255     1.007825032230
         H           -3.742871933100    -0.178360017726     0.880480394745     1.007825032230
         H           -3.142013933100     1.238111982274     0.000029394745     1.007825032230

  Basis Set: AUG-CC-PVTZ
    Blend: AUG-CC-PVTZ
  Basis Set: (AUG-CC-PVTZ AUX)
    Blend: AUG-CC-PVTZ-JKFIT
	 Reference Energy          =    -233.0800771228877863 [Eh]
	 Singles Energy            =      -0.0000000000000000 [Eh]
	 Same-Spin Energy          =      -0.2448636492750806 [Eh]
	 Opposite-Spin Energy      =      -0.8808296045449868 [Eh]
	 Correlation Energy        =      -1.1256932538200675 [Eh]
	 Total Energy              =    -234.2057703767078465 [Eh]

	 ================> DF-SCS-MP2 Energies <==================
	-----------------------------------------------------------
	 SCS Same-Spin Scale       =       0.3333333333333333 [-]
	 SCS Opposite-Spin Scale   =       1.2000000000000000 [-]
	 SCS Same-Spin Energy      =      -0.0816212164250269 [Eh]
	 SCS Opposite-Spin Energy  =      -1.0569955254539842 [Eh]
	 SCS Correlation Energy    =      -1.1386167418790112 [Eh]
	 SCS Total Energy          =    -234.2186938647668057 [Eh]
	-----------------------------------------------------------

  Dipole Moment: [D]
     X:    -0.0273      Y:    -0.0106      Z:     0.0000     Total:     0.0293

*** Psi4 exiting successfully. Buy a developer a beer!
