                               Psi4 1.4a3.dev225

  ==> Input File <==

--------------------------------------------------------------------------
#psi4
#
memory 32 gb

molecule  {
0 1
  C        0.6677790    -0.2877210    -0.0000110
  C       -0.6677790     0.2877220     0.0000160
  C        1.8019300     0.4385480     0.0000620
  C       -1.8019300    -0.4385470    -0.0000660
  C        3.1824410    -0.1410110     0.0000540
  C       -2.9980323     0.0635928    -0.0000565
  H        0.7356230    -1.3773410    -0.0000890
  H       -0.7356240     1.3773420     0.0001000
  H        1.7263590     1.5270040     0.0001430
  H       -1.7263580    -1.5270030    -0.0001530
  H        3.1481690    -1.2341710    -0.0000530
  H        3.7490380     0.1823190    -0.8804680
  H        3.7489810     0.1821480     0.8806760
  H       -3.7489900    -0.1821670    -0.8806650
  H       -3.7490280    -0.1823020     0.8804800
  H       -3.1481700     1.2341700     0.0000290
units angstrom
no_reorient  #important for SAPT in psi4, default
symmetry c1  #important for SAPT in psi4, default
}

set PROPERTIES_ORIGIN ["COM"]
properties('MP2/aug-cc-pvtz', properties = ['dipole'])
--------------------------------------------------------------------------

    Molecular point group: c1
  Charge       = 0
  Multiplicity = 1
  Basis Set: AUG-CC-PVTZ
    Blend: AUG-CC-PVTZ
  Basis Set: (AUG-CC-PVTZ AUX)
    Blend: AUG-CC-PVTZ-JKFIT

    Orbital Energies [Eh]
    ---------------------

    Doubly Occupied:

       1A    -11.232420     2A    -11.232296     3A    -11.228952
       4A    -11.227129     5A    -11.222133     6A    -11.218101
       7A     -1.115813     8A     -1.065225     9A     -0.973457
      10A     -0.885047    11A     -0.762900    12A     -0.752898
      13A     -0.654148    14A     -0.629377    15A     -0.579789
      16A     -0.566542    17A     -0.546861    18A     -0.545877
      19A     -0.515234    20A     -0.490105    21A     -0.465307
      22A     -0.415850    23A     -0.292738

  @DF-RHF Final Energy:  -233.02884943897359

   => Energetics <=

    Nuclear Repulsion Energy =            210.6319377476956731
    One-Electron Energy =                -730.0851769286865647
    Two-Electron Energy =                 286.4243897420172971
    Total Energy =                       -233.0288494389735661
  Basis Set: (AUG-CC-PVTZ AUX)
    Blend: AUG-CC-PVTZ-RI
    Molecular point group: c1

    Geometry (in Angstrom), charge = 0, multiplicity = 1:

       Center              X                  Y                   Z               Mass
    ------------   -----------------  -----------------  -----------------  -----------------
         C            0.640818089024    -0.276402588555    -0.000010780697    12.000000000000
         C           -0.694739910976     0.299040411445     0.000016219303    12.000000000000
         C            1.774969089024     0.449866411445     0.000062219303    12.000000000000
         C           -1.828890910976    -0.427228588555    -0.000065780697    12.000000000000
         C            3.155480089024    -0.129692588555     0.000054219303    12.000000000000
         C           -3.024993210976     0.074911211445    -0.000056280697    12.000000000000
         H            0.708662089024    -1.366022588555    -0.000088780697     1.007825032230
         H           -0.762584910976     1.388660411445     0.000100219303     1.007825032230
         H            1.699398089024     1.538322411445     0.000143219303     1.007825032230
         H           -1.753318910976    -1.515684588555    -0.000152780697     1.007825032230
         H            3.121208089024    -1.222852588555    -0.000052780697     1.007825032230
         H            3.722077089024     0.193637411445    -0.880467780697     1.007825032230
         H            3.722020089024     0.193466411445     0.880676219303     1.007825032230
         H           -3.775950910976    -0.170848588555    -0.880664780697     1.007825032230
         H           -3.775988910976    -0.170983588555     0.880480219303     1.007825032230
         H           -3.175130910976     1.245488411445     0.000029219303     1.007825032230

  Basis Set: AUG-CC-PVTZ
    Blend: AUG-CC-PVTZ
  Basis Set: (AUG-CC-PVTZ AUX)
    Blend: AUG-CC-PVTZ-JKFIT
	 Reference Energy          =    -233.0288494389735945 [Eh]
	 Singles Energy            =      -0.0000000000000000 [Eh]
	 Same-Spin Energy          =      -0.2490375681284943 [Eh]
	 Opposite-Spin Energy      =      -0.8861237192528555 [Eh]
	 Correlation Energy        =      -1.1351612873813499 [Eh]
	 Total Energy              =    -234.1640107263549453 [Eh]

	 ================> DF-SCS-MP2 Energies <==================
	-----------------------------------------------------------
	 SCS Same-Spin Scale       =       0.3333333333333333 [-]
	 SCS Opposite-Spin Scale   =       1.2000000000000000 [-]
	 SCS Same-Spin Energy      =      -0.0830125227094981 [Eh]
	 SCS Opposite-Spin Energy  =      -1.0633484631034265 [Eh]
	 SCS Correlation Energy    =      -1.1463609858129244 [Eh]
	 SCS Total Energy          =    -234.1752104247865134 [Eh]
	-----------------------------------------------------------

  Dipole Moment: [D]
     X:     0.0127      Y:    -0.0198      Z:     0.0000     Total:     0.0236

*** Psi4 exiting successfully. Buy a developer a beer!
