                               Psi4 1.4a3.dev225

  ==> Input File <==

--------------------------------------------------------------------------
#psi4
#
memory 32 gb

molecule  {
0 1
  C        0.6677790    -0.2877210    -0.0000110
  C       -0.6218599     0.2679372     0.0000151
  C        1.8019300     0.4385480     0.0000620
  C       -1.8019300    -0.4385470    -0.0000660
  C        3.1824410    -0.1410110     0.0000540
  C       -3.1824410     0.1410100    -0.0000550
  H        0.7356230    -1.3773410    -0.0000890
  H       -0.7356240     1.3773420     0.0001000
  H        1.7263590     1.5270040     0.0001430
  H       -1.7263580    -1.5270030    -0.0001530
  H        3.1481690    -1.2341710    -0.0000530
  H        3.7490380     0.1823190    -0.8804680
  H        3.7489810     0.1821480     0.8806760
  H       -3.7489900    -0.1821670    -0.8806650
  H       -3.7490280    -0.1823020     0.8804800
  H       -3.1481700     1.2341700     0.0000290
units angstrom
no_reorient  #important for SAPT in psi4, default
symmetry c1  #important for SAPT in psi4, default
}

set PROPERTIES_ORIGIN ["COM"]
properties('MP2/aug-cc-pvtz', properties = ['dipole'])
--------------------------------------------------------------------------

    Molecular point group: c1
  Charge       = 0
  Multiplicity = 1
  Basis Set: AUG-CC-PVTZ
    Blend: AUG-CC-PVTZ
  Basis Set: (AUG-CC-PVTZ AUX)
    Blend: AUG-CC-PVTZ-JKFIT

    Orbital Energies [Eh]
    ---------------------

    Doubly Occupied:

       1A    -11.234673     2A    -11.231807     3A    -11.228817
       4A    -11.223607     5A    -11.222718     6A    -11.221650
       7A     -1.100192     8A     -1.043043     9A     -0.971828
      10A     -0.890292    11A     -0.767748    12A     -0.746183
      13A     -0.647625    14A     -0.610073    15A     -0.567398
      16A     -0.564221    17A     -0.557708    18A     -0.541256
      19A     -0.512466    20A     -0.500318    21A     -0.485553
      22A     -0.427511    23A     -0.291032

  @DF-RHF Final Energy:  -233.07608437962307

   => Energetics <=

    Nuclear Repulsion Energy =            208.1685539774652796
    One-Electron Energy =                -725.3138403015228732
    Two-Electron Energy =                 284.0692019444344965
    Total Energy =                       -233.0760843796230688
  Basis Set: (AUG-CC-PVTZ AUX)
    Blend: AUG-CC-PVTZ-RI
    Molecular point group: c1

    Geometry (in Angstrom), charge = 0, multiplicity = 1:

       Center              X                  Y                   Z               Mass
    ------------   -----------------  -----------------  -----------------  -----------------
         C            0.661065538177    -0.284828557643    -0.000010868418    12.000000000000
         C           -0.628573361823     0.270829642357     0.000015231582    12.000000000000
         C            1.795216538177     0.441440442357     0.000062131582    12.000000000000
         C           -1.808643461823    -0.435654557643    -0.000065868418    12.000000000000
         C            3.175727538177    -0.138118557643     0.000054131582    12.000000000000
         C           -3.189154461823     0.143902442357    -0.000054868418    12.000000000000
         H            0.728909538177    -1.374448557643    -0.000088868418     1.007825032230
         H           -0.742337461823     1.380234442357     0.000100131582     1.007825032230
         H            1.719645538177     1.529896442357     0.000143131582     1.007825032230
         H           -1.733071461823    -1.524110557643    -0.000152868418     1.007825032230
         H            3.141455538177    -1.231278557643    -0.000052868418     1.007825032230
         H            3.742324538177     0.185211442357    -0.880467868418     1.007825032230
         H            3.742267538177     0.185040442357     0.880676131582     1.007825032230
         H           -3.755703461823    -0.179274557643    -0.880664868418     1.007825032230
         H           -3.755741461823    -0.179409557643     0.880480131582     1.007825032230
         H           -3.154883461823     1.237062442357     0.000029131582     1.007825032230

  Basis Set: AUG-CC-PVTZ
    Blend: AUG-CC-PVTZ
  Basis Set: (AUG-CC-PVTZ AUX)
    Blend: AUG-CC-PVTZ-JKFIT
	 Reference Energy          =    -233.0760843796230688 [Eh]
	 Singles Energy            =      -0.0000000000000000 [Eh]
	 Same-Spin Energy          =      -0.2466205337112550 [Eh]
	 Opposite-Spin Energy      =      -0.8835886374416104 [Eh]
	 Correlation Energy        =      -1.1302091711528655 [Eh]
	 Total Energy              =    -234.2062935507759391 [Eh]

	 ================> DF-SCS-MP2 Energies <==================
	-----------------------------------------------------------
	 SCS Same-Spin Scale       =       0.3333333333333333 [-]
	 SCS Opposite-Spin Scale   =       1.2000000000000000 [-]
	 SCS Same-Spin Energy      =      -0.0822068445704183 [Eh]
	 SCS Opposite-Spin Energy  =      -1.0603063649299325 [Eh]
	 SCS Correlation Energy    =      -1.1425132095003507 [Eh]
	 SCS Total Energy          =    -234.2185975891234193 [Eh]
	-----------------------------------------------------------

  Dipole Moment: [D]
     X:     0.0172      Y:    -0.0029      Z:     0.0000     Total:     0.0174

*** Psi4 exiting successfully. Buy a developer a beer!
