                               Psi4 1.4a3.dev225

  ==> Input File <==

--------------------------------------------------------------------------
#psi4
#
memory 32 gb

molecule  {
0 1
  C        0.6677790    -0.2877210    -0.0000110
  C       -0.6677790     0.2877220     0.0000160
  C        1.8019300     0.4385480     0.0000620
  C       -1.8019300    -0.4385470    -0.0000660
  C        3.1824410    -0.1410110     0.0000540
  C       -3.1363388     0.1216557    -0.0000554
  H        0.7356230    -1.3773410    -0.0000890
  H       -0.7356240     1.3773420     0.0001000
  H        1.7263590     1.5270040     0.0001430
  H       -1.7263580    -1.5270030    -0.0001530
  H        3.1481690    -1.2341710    -0.0000530
  H        3.7490380     0.1823190    -0.8804680
  H        3.7489810     0.1821480     0.8806760
  H       -3.7489900    -0.1821670    -0.8806650
  H       -3.7490280    -0.1823020     0.8804800
  H       -3.1481700     1.2341700     0.0000290
units angstrom
no_reorient  #important for SAPT in psi4, default
symmetry c1  #important for SAPT in psi4, default
}

set PROPERTIES_ORIGIN ["COM"]
properties('MP2/aug-cc-pvtz', properties = ['dipole'])
--------------------------------------------------------------------------

    Molecular point group: c1
  Charge       = 0
  Multiplicity = 1
  Basis Set: AUG-CC-PVTZ
    Blend: AUG-CC-PVTZ
  Basis Set: (AUG-CC-PVTZ AUX)
    Blend: AUG-CC-PVTZ-JKFIT

    Orbital Energies [Eh]
    ---------------------

    Doubly Occupied:

       1A    -11.231042     2A    -11.228599     3A    -11.226947
       4A    -11.226187     5A    -11.223229     6A    -11.221369
       7A     -1.099135     8A     -1.050298     9A     -0.967945
      10A     -0.890485    11A     -0.763669    12A     -0.749641
      13A     -0.646154    14A     -0.613626    15A     -0.565953
      16A     -0.561620    17A     -0.558752    18A     -0.546419
      19A     -0.510550    20A     -0.497835    21A     -0.485579
      22A     -0.421605    23A     -0.297591

  @DF-RHF Final Energy:  -233.07841820401481

   => Energetics <=

    Nuclear Repulsion Energy =            208.5837383809517007
    One-Electron Energy =                -726.1558556354897291
    Two-Electron Energy =                 284.4936990505232188
    Total Energy =                       -233.0784182040148380
  Basis Set: (AUG-CC-PVTZ AUX)
    Blend: AUG-CC-PVTZ-RI
    Molecular point group: c1

    Geometry (in Angstrom), charge = 0, multiplicity = 1:

       Center              X                  Y                   Z               Mass
    ------------   -----------------  -----------------  -----------------  -----------------
         C            0.661038768601    -0.284891497581    -0.000010941519    12.000000000000
         C           -0.674519231399     0.290551502419     0.000016058481    12.000000000000
         C            1.795189768601     0.441377502419     0.000062058481    12.000000000000
         C           -1.808670231399    -0.435717497581    -0.000065941519    12.000000000000
         C            3.175700768601    -0.138181497581     0.000054058481    12.000000000000
         C           -3.143079031399     0.124485202419    -0.000055341519    12.000000000000
         H            0.728882768601    -1.374511497581    -0.000088941519     1.007825032230
         H           -0.742364231399     1.380171502419     0.000100058481     1.007825032230
         H            1.719618768601     1.529833502419     0.000143058481     1.007825032230
         H           -1.733098231399    -1.524173497581    -0.000152941519     1.007825032230
         H            3.141428768601    -1.231341497581    -0.000052941519     1.007825032230
         H            3.742297768601     0.185148502419    -0.880467941519     1.007825032230
         H            3.742240768601     0.184977502419     0.880676058481     1.007825032230
         H           -3.755730231399    -0.179337497581    -0.880664941519     1.007825032230
         H           -3.755768231399    -0.179472497581     0.880480058481     1.007825032230
         H           -3.154910231399     1.236999502419     0.000029058481     1.007825032230

  Basis Set: AUG-CC-PVTZ
    Blend: AUG-CC-PVTZ
  Basis Set: (AUG-CC-PVTZ AUX)
    Blend: AUG-CC-PVTZ-JKFIT
	 Reference Energy          =    -233.0784182040148096 [Eh]
	 Singles Energy            =      -0.0000000000000000 [Eh]
	 Same-Spin Energy          =      -0.2460167006794058 [Eh]
	 Opposite-Spin Energy      =      -0.8824608547158228 [Eh]
	 Correlation Energy        =      -1.1284775553952286 [Eh]
	 Total Energy              =    -234.2068957594100311 [Eh]

	 ================> DF-SCS-MP2 Energies <==================
	-----------------------------------------------------------
	 SCS Same-Spin Scale       =       0.3333333333333333 [-]
	 SCS Opposite-Spin Scale   =       1.2000000000000000 [-]
	 SCS Same-Spin Energy      =      -0.0820055668931353 [Eh]
	 SCS Opposite-Spin Energy  =      -1.0589530256589874 [Eh]
	 SCS Correlation Energy    =      -1.1409585925521226 [Eh]
	 SCS Total Energy          =    -234.2193767965669338 [Eh]
	-----------------------------------------------------------

  Dipole Moment: [D]
     X:    -0.0079      Y:    -0.0014      Z:     0.0000     Total:     0.0081

*** Psi4 exiting successfully. Buy a developer a beer!
