                               Psi4 1.4a3.dev225

  ==> Input File <==

--------------------------------------------------------------------------
#psi4
#
memory 32 gb

molecule  {
0 1
  C        0.6677790    -0.2877210    -0.0000110
  C       -0.6677790     0.2877220     0.0000160
  C        1.7850874     0.4277626     0.0000609
  C       -1.8019300    -0.4385470    -0.0000660
  C        3.1824410    -0.1410110     0.0000540
  C       -3.1824410     0.1410100    -0.0000550
  H        0.7356230    -1.3773410    -0.0000890
  H       -0.7356240     1.3773420     0.0001000
  H        1.7263590     1.5270040     0.0001430
  H       -1.7263580    -1.5270030    -0.0001530
  H        3.1481690    -1.2341710    -0.0000530
  H        3.7490380     0.1823190    -0.8804680
  H        3.7489810     0.1821480     0.8806760
  H       -3.7489900    -0.1821670    -0.8806650
  H       -3.7490280    -0.1823020     0.8804800
  H       -3.1481700     1.2341700     0.0000290
units angstrom
no_reorient  #important for SAPT in psi4, default
symmetry c1  #important for SAPT in psi4, default
}

set PROPERTIES_ORIGIN ["COM"]
properties('MP2/aug-cc-pvtz', properties = ['dipole'])
--------------------------------------------------------------------------

    Molecular point group: c1
  Charge       = 0
  Multiplicity = 1
  Basis Set: AUG-CC-PVTZ
    Blend: AUG-CC-PVTZ
  Basis Set: (AUG-CC-PVTZ AUX)
    Blend: AUG-CC-PVTZ-JKFIT

    Orbital Energies [Eh]
    ---------------------

    Doubly Occupied:

       1A    -11.230812     2A    -11.229274     3A    -11.226436
       4A    -11.223732     5A    -11.221587     6A    -11.221233
       7A     -1.098234     8A     -1.045897     9A     -0.965701
      10A     -0.894451    11A     -0.762139    12A     -0.748097
      13A     -0.645048    14A     -0.610640    15A     -0.566584
      16A     -0.563339    17A     -0.556368    18A     -0.546067
      19A     -0.513439    20A     -0.500359    21A     -0.479159
      22A     -0.425221    23A     -0.301360

  @DF-RHF Final Energy:  -233.08206575188478

   => Energetics <=

    Nuclear Repulsion Energy =            208.1626086992644105
    One-Electron Energy =                -725.3389972363286233
    Two-Electron Energy =                 284.0943227851794290
    Total Energy =                       -233.0820657518847838
  Basis Set: (AUG-CC-PVTZ AUX)
    Blend: AUG-CC-PVTZ-RI
    Molecular point group: c1

    Geometry (in Angstrom), charge = 0, multiplicity = 1:

       Center              X                  Y                   Z               Mass
    ------------   -----------------  -----------------  -----------------  -----------------
         C            0.670241420912    -0.286144287444    -0.000010839178    12.000000000000
         C           -0.665316579088     0.289298712556     0.000016160822    12.000000000000
         C            1.787549820912     0.429339312556     0.000061060822    12.000000000000
         C           -1.799467579088    -0.436970287444    -0.000065839178    12.000000000000
         C            3.184903420912    -0.139434287444     0.000054160822    12.000000000000
         C           -3.179978579088     0.142586712556    -0.000054839178    12.000000000000
         H            0.738085420912    -1.375764287444    -0.000088839178     1.007825032230
         H           -0.733161579088     1.378918712556     0.000100160822     1.007825032230
         H            1.728821420912     1.528580712556     0.000143160822     1.007825032230
         H           -1.723895579088    -1.525426287444    -0.000152839178     1.007825032230
         H            3.150631420912    -1.232594287444    -0.000052839178     1.007825032230
         H            3.751500420912     0.183895712556    -0.880467839178     1.007825032230
         H            3.751443420912     0.183724712556     0.880676160822     1.007825032230
         H           -3.746527579088    -0.180590287444    -0.880664839178     1.007825032230
         H           -3.746565579088    -0.180725287444     0.880480160822     1.007825032230
         H           -3.145707579088     1.235746712556     0.000029160822     1.007825032230

  Basis Set: AUG-CC-PVTZ
    Blend: AUG-CC-PVTZ
  Basis Set: (AUG-CC-PVTZ AUX)
    Blend: AUG-CC-PVTZ-JKFIT
	 Reference Energy          =    -233.0820657518847838 [Eh]
	 Singles Energy            =      -0.0000000000000000 [Eh]
	 Same-Spin Energy          =      -0.2452083273562826 [Eh]
	 Opposite-Spin Energy      =      -0.8814742243199263 [Eh]
	 Correlation Energy        =      -1.1266825516762089 [Eh]
	 Total Energy              =    -234.2087483035609807 [Eh]

	 ================> DF-SCS-MP2 Energies <==================
	-----------------------------------------------------------
	 SCS Same-Spin Scale       =       0.3333333333333333 [-]
	 SCS Opposite-Spin Scale   =       1.2000000000000000 [-]
	 SCS Same-Spin Energy      =      -0.0817361091187609 [Eh]
	 SCS Opposite-Spin Energy  =      -1.0577690691839114 [Eh]
	 SCS Correlation Energy    =      -1.1395051783026724 [Eh]
	 SCS Total Energy          =    -234.2215709301874540 [Eh]
	-----------------------------------------------------------

  Dipole Moment: [D]
     X:    -0.0112      Y:    -0.0037      Z:     0.0000     Total:     0.0118

*** Psi4 exiting successfully. Buy a developer a beer!
