                               Psi4 1.4a3.dev225

  ==> Input File <==

--------------------------------------------------------------------------
#psi4
#
memory 32 gb

molecule  {
0 1
  C        0.6677790    -0.2877210    -0.0000110
  C       -0.6677790     0.2877220     0.0000160
  C        1.8019300     0.4385480     0.0000620
  C       -1.8019300    -0.4385470    -0.0000660
  C        3.1824410    -0.1410110     0.0000540
  C       -3.1824410     0.1410100    -0.0000550
  H        0.7356230    -1.3773410    -0.0000890
  H       -0.7368669     1.3973033     0.0001015
  H        1.7263590     1.5270040     0.0001430
  H       -1.7263580    -1.5270030    -0.0001530
  H        3.1481690    -1.2341710    -0.0000530
  H        3.7490380     0.1823190    -0.8804680
  H        3.7489810     0.1821480     0.8806760
  H       -3.7489900    -0.1821670    -0.8806650
  H       -3.7490280    -0.1823020     0.8804800
  H       -3.1481700     1.2341700     0.0000290
units angstrom
no_reorient  #important for SAPT in psi4, default
symmetry c1  #important for SAPT in psi4, default
}

set PROPERTIES_ORIGIN ["COM"]
properties('MP2/aug-cc-pvtz', properties = ['dipole'])
--------------------------------------------------------------------------

    Molecular point group: c1
  Charge       = 0
  Multiplicity = 1
  Basis Set: AUG-CC-PVTZ
    Blend: AUG-CC-PVTZ
  Basis Set: (AUG-CC-PVTZ AUX)
    Blend: AUG-CC-PVTZ-JKFIT

    Orbital Energies [Eh]
    ---------------------

    Doubly Occupied:

       1A    -11.231129     2A    -11.230907     3A    -11.228788
       4A    -11.226621     5A    -11.221279     6A    -11.221207
       7A     -1.096167     8A     -1.045699     9A     -0.966378
      10A     -0.892371    11A     -0.763058    12A     -0.746646
      13A     -0.644452    14A     -0.609465    15A     -0.566911
      16A     -0.563880    17A     -0.556729    18A     -0.544856
      19A     -0.511641    20A     -0.502017    21A     -0.481658
      22A     -0.422975    23A     -0.298571

  @DF-RHF Final Energy:  -233.08109754687044

   => Energetics <=

    Nuclear Repulsion Energy =            207.8839525901820195
    One-Electron Energy =                -724.7832922841769232
    Two-Electron Energy =                 283.8182421471244652
    Total Energy =                       -233.0810975468704100
  Basis Set: (AUG-CC-PVTZ AUX)
    Blend: AUG-CC-PVTZ-RI
    Molecular point group: c1

    Geometry (in Angstrom), charge = 0, multiplicity = 1:

       Center              X                  Y                   Z               Mass
    ------------   -----------------  -----------------  -----------------  -----------------
         C            0.667794261360    -0.287966235369    -0.000011018418    12.000000000000
         C           -0.667763738640     0.287476764631     0.000015981582    12.000000000000
         C            1.801945261360     0.438302764631     0.000061981582    12.000000000000
         C           -1.801914738640    -0.438792235369    -0.000066018418    12.000000000000
         C            3.182456261360    -0.141256235369     0.000053981582    12.000000000000
         C           -3.182425738640     0.140764764631    -0.000055018418    12.000000000000
         H            0.735638261360    -1.377586235369    -0.000089018418     1.007825032230
         H           -0.736851638640     1.397058064631     0.000101481582     1.007825032230
         H            1.726374261360     1.526758764631     0.000142981582     1.007825032230
         H           -1.726342738640    -1.527248235369    -0.000153018418     1.007825032230
         H            3.148184261360    -1.234416235369    -0.000053018418     1.007825032230
         H            3.749053261360     0.182073764631    -0.880468018418     1.007825032230
         H            3.748996261360     0.181902764631     0.880675981582     1.007825032230
         H           -3.748974738640    -0.182412235369    -0.880665018418     1.007825032230
         H           -3.749012738640    -0.182547235369     0.880479981582     1.007825032230
         H           -3.148154738640     1.233924764631     0.000028981582     1.007825032230

  Basis Set: AUG-CC-PVTZ
    Blend: AUG-CC-PVTZ
  Basis Set: (AUG-CC-PVTZ AUX)
    Blend: AUG-CC-PVTZ-JKFIT
	 Reference Energy          =    -233.0810975468704385 [Eh]
	 Singles Energy            =      -0.0000000000000000 [Eh]
	 Same-Spin Energy          =      -0.2455327732528462 [Eh]
	 Opposite-Spin Energy      =      -0.8821324429165569 [Eh]
	 Correlation Energy        =      -1.1276652161694032 [Eh]
	 Total Energy              =    -234.2087627630398288 [Eh]

	 ================> DF-SCS-MP2 Energies <==================
	-----------------------------------------------------------
	 SCS Same-Spin Scale       =       0.3333333333333333 [-]
	 SCS Opposite-Spin Scale   =       1.2000000000000000 [-]
	 SCS Same-Spin Energy      =      -0.0818442577509487 [Eh]
	 SCS Opposite-Spin Energy  =      -1.0585589314998682 [Eh]
	 SCS Correlation Energy    =      -1.1404031892508171 [Eh]
	 SCS Total Energy          =    -234.2215007361212429 [Eh]
	-----------------------------------------------------------

  Dipole Moment: [D]
     X:     0.0050      Y:    -0.0095      Z:     0.0000     Total:     0.0107

*** Psi4 exiting successfully. Buy a developer a beer!
