                               Psi4 1.4a3.dev225

  ==> Input File <==

--------------------------------------------------------------------------
#psi4
#
memory 32 gb

molecule  {
0 1
  C        0.6677790    -0.2877210    -0.0000110
  C       -0.6677790     0.2877220     0.0000160
  C        1.8019300     0.4385480     0.0000620
  C       -1.8019300    -0.4385470    -0.0000660
  C        3.1824410    -0.1410110     0.0000540
  C       -3.3668497     0.2184272    -0.0000535
  H        0.7356230    -1.3773410    -0.0000890
  H       -0.7356240     1.3773420     0.0001000
  H        1.7263590     1.5270040     0.0001430
  H       -1.7263580    -1.5270030    -0.0001530
  H        3.1481690    -1.2341710    -0.0000530
  H        3.7490380     0.1823190    -0.8804680
  H        3.7489810     0.1821480     0.8806760
  H       -3.7489900    -0.1821670    -0.8806650
  H       -3.7490280    -0.1823020     0.8804800
  H       -3.1481700     1.2341700     0.0000290
units angstrom
no_reorient  #important for SAPT in psi4, default
symmetry c1  #important for SAPT in psi4, default
}

set PROPERTIES_ORIGIN ["COM"]
properties('MP2/aug-cc-pvtz', properties = ['dipole'])
--------------------------------------------------------------------------

    Molecular point group: c1
  Charge       = 0
  Multiplicity = 1
  Basis Set: AUG-CC-PVTZ
    Blend: AUG-CC-PVTZ
  Basis Set: (AUG-CC-PVTZ AUX)
    Blend: AUG-CC-PVTZ-JKFIT

    Orbital Energies [Eh]
    ---------------------

    Doubly Occupied:

       1A    -11.237112     2A    -11.230262     3A    -11.226633
       4A    -11.225799     5A    -11.220874     6A    -11.220777
       7A     -1.091249     8A     -1.032649     9A     -0.963426
      10A     -0.899482    11A     -0.761460    12A     -0.746039
      13A     -0.641324    14A     -0.605278    15A     -0.592235
      16A     -0.571466    17A     -0.565011    18A     -0.532315
      19A     -0.524030    20A     -0.496230    21A     -0.446276
      22A     -0.425248    23A     -0.300076

  @DF-RHF Final Energy:  -233.05435550159575

   => Energetics <=

    Nuclear Repulsion Energy =            205.7228522347720343
    One-Electron Energy =                -720.4439129763179608
    Two-Electron Energy =                 281.6667052399501472
    Total Energy =                       -233.0543555015957509
  Basis Set: (AUG-CC-PVTZ AUX)
    Blend: AUG-CC-PVTZ-RI
    Molecular point group: c1

    Geometry (in Angstrom), charge = 0, multiplicity = 1:

       Center              X                  Y                   Z               Mass
    ------------   -----------------  -----------------  -----------------  -----------------
         C            0.694739910976    -0.299039679291    -0.000011219303    12.000000000000
         C           -0.640818089024     0.276403320709     0.000015780697    12.000000000000
         C            1.828890910976     0.427229320709     0.000061780697    12.000000000000
         C           -1.774969089024    -0.449865679291    -0.000066219303    12.000000000000
         C            3.209401910976    -0.152329679291     0.000053780697    12.000000000000
         C           -3.339888789024     0.207108520709    -0.000053719303    12.000000000000
         H            0.762583910976    -1.388659679291    -0.000089219303     1.007825032230
         H           -0.708663089024     1.366023320709     0.000099780697     1.007825032230
         H            1.753319910976     1.515685320709     0.000142780697     1.007825032230
         H           -1.699397089024    -1.538321679291    -0.000153219303     1.007825032230
         H            3.175129910976    -1.245489679291    -0.000053219303     1.007825032230
         H            3.775998910976     0.171000320709    -0.880468219303     1.007825032230
         H            3.775941910976     0.170829320709     0.880675780697     1.007825032230
         H           -3.722029089024    -0.193485679291    -0.880665219303     1.007825032230
         H           -3.722067089024    -0.193620679291     0.880479780697     1.007825032230
         H           -3.121209089024     1.222851320709     0.000028780697     1.007825032230

  Basis Set: AUG-CC-PVTZ
    Blend: AUG-CC-PVTZ
  Basis Set: (AUG-CC-PVTZ AUX)
    Blend: AUG-CC-PVTZ-JKFIT
	 Reference Energy          =    -233.0543555015957509 [Eh]
	 Singles Energy            =      -0.0000000000000000 [Eh]
	 Same-Spin Energy          =      -0.2451668516310219 [Eh]
	 Opposite-Spin Energy      =      -0.8831004508378828 [Eh]
	 Correlation Energy        =      -1.1282673024689047 [Eh]
	 Total Energy              =    -234.1826228040646640 [Eh]

	 ================> DF-SCS-MP2 Energies <==================
	-----------------------------------------------------------
	 SCS Same-Spin Scale       =       0.3333333333333333 [-]
	 SCS Opposite-Spin Scale   =       1.2000000000000000 [-]
	 SCS Same-Spin Energy      =      -0.0817222838770073 [Eh]
	 SCS Opposite-Spin Energy  =      -1.0597205410054593 [Eh]
	 SCS Correlation Energy    =      -1.1414428248824666 [Eh]
	 SCS Total Energy          =    -234.1957983264782115 [Eh]
	-----------------------------------------------------------

  Dipole Moment: [D]
     X:     0.0949      Y:    -0.0086      Z:     0.0000     Total:     0.0953

*** Psi4 exiting successfully. Buy a developer a beer!
