                               Psi4 1.4a3.dev225

  ==> Input File <==

--------------------------------------------------------------------------
#psi4
#
memory 32 gb

molecule  {
0 1
  C        0.6677790    -0.2877210    -0.0000110
  C       -0.6677790     0.2877220     0.0000160
  C        1.8440366     0.4655115     0.0000647
  C       -1.8019300    -0.4385470    -0.0000660
  C        3.1824410    -0.1410110     0.0000540
  C       -3.1824410     0.1410100    -0.0000550
  H        0.7356230    -1.3773410    -0.0000890
  H       -0.7356240     1.3773420     0.0001000
  H        1.7263590     1.5270040     0.0001430
  H       -1.7263580    -1.5270030    -0.0001530
  H        3.1481690    -1.2341710    -0.0000530
  H        3.7490380     0.1823190    -0.8804680
  H        3.7489810     0.1821480     0.8806760
  H       -3.7489900    -0.1821670    -0.8806650
  H       -3.7490280    -0.1823020     0.8804800
  H       -3.1481700     1.2341700     0.0000290
units angstrom
no_reorient  #important for SAPT in psi4, default
symmetry c1  #important for SAPT in psi4, default
}

set PROPERTIES_ORIGIN ["COM"]
properties('MP2/aug-cc-pvtz', properties = ['dipole'])
--------------------------------------------------------------------------

    Molecular point group: c1
  Charge       = 0
  Multiplicity = 1
  Basis Set: AUG-CC-PVTZ
    Blend: AUG-CC-PVTZ
  Basis Set: (AUG-CC-PVTZ AUX)
    Blend: AUG-CC-PVTZ-JKFIT

    Orbital Energies [Eh]
    ---------------------

    Doubly Occupied:

       1A    -11.234700     2A    -11.232762     3A    -11.230765
       4A    -11.226759     5A    -11.221182     6A    -11.220472
       7A     -1.092991     8A     -1.046170     9A     -0.968215
      10A     -0.887581    11A     -0.767184    12A     -0.749414
      13A     -0.643325    14A     -0.609366    15A     -0.568403
      16A     -0.564639    17A     -0.558891    18A     -0.547622
      19A     -0.509625    20A     -0.504446    21A     -0.486733
      22A     -0.417628    23A     -0.291119

  @DF-RHF Final Energy:  -233.07573206679672

   => Energetics <=

    Nuclear Repulsion Energy =            207.5201893463182330
    One-Electron Energy =                -724.0318564960931553
    Two-Electron Energy =                 283.4359350829781761
    Total Energy =                       -233.0757320667967178
  Basis Set: (AUG-CC-PVTZ AUX)
    Blend: AUG-CC-PVTZ-RI
    Molecular point group: c1

    Geometry (in Angstrom), charge = 0, multiplicity = 1:

       Center              X                  Y                   Z               Mass
    ------------   -----------------  -----------------  -----------------  -----------------
         C            0.661622933100    -0.291663250120    -0.000011394745    12.000000000000
         C           -0.673935066900     0.283779749880     0.000015605255    12.000000000000
         C            1.837880533100     0.461569249880     0.000064305255    12.000000000000
         C           -1.808086066900    -0.442489250120    -0.000066394745    12.000000000000
         C            3.176284933100    -0.144953250120     0.000053605255    12.000000000000
         C           -3.188597066900     0.137067749880    -0.000055394745    12.000000000000
         H            0.729466933100    -1.381283250120    -0.000089394745     1.007825032230
         H           -0.741780066900     1.373399749880     0.000099605255     1.007825032230
         H            1.720202933100     1.523061749880     0.000142605255     1.007825032230
         H           -1.732514066900    -1.530945250120    -0.000153394745     1.007825032230
         H            3.142012933100    -1.238113250120    -0.000053394745     1.007825032230
         H            3.742881933100     0.178376749880    -0.880468394745     1.007825032230
         H            3.742824933100     0.178205749880     0.880675605255     1.007825032230
         H           -3.755146066900    -0.186109250120    -0.880665394745     1.007825032230
         H           -3.755184066900    -0.186244250120     0.880479605255     1.007825032230
         H           -3.154326066900     1.230227749880     0.000028605255     1.007825032230

  Basis Set: AUG-CC-PVTZ
    Blend: AUG-CC-PVTZ
  Basis Set: (AUG-CC-PVTZ AUX)
    Blend: AUG-CC-PVTZ-JKFIT
	 Reference Energy          =    -233.0757320667967178 [Eh]
	 Singles Energy            =      -0.0000000000000000 [Eh]
	 Same-Spin Energy          =      -0.2463192839362049 [Eh]
	 Opposite-Spin Energy      =      -0.8835312401986324 [Eh]
	 Correlation Energy        =      -1.1298505241348373 [Eh]
	 Total Energy              =    -234.2055825909315558 [Eh]

	 ================> DF-SCS-MP2 Energies <==================
	-----------------------------------------------------------
	 SCS Same-Spin Scale       =       0.3333333333333333 [-]
	 SCS Opposite-Spin Scale   =       1.2000000000000000 [-]
	 SCS Same-Spin Energy      =      -0.0821064279787350 [Eh]
	 SCS Opposite-Spin Energy  =      -1.0602374882383587 [Eh]
	 SCS Correlation Energy    =      -1.1423439162170936 [Eh]
	 SCS Total Energy          =    -234.2180759830138186 [Eh]
	-----------------------------------------------------------

  Dipole Moment: [D]
     X:     0.0302      Y:     0.0064      Z:     0.0000     Total:     0.0309

*** Psi4 exiting successfully. Buy a developer a beer!
