                               Psi4 1.4a3.dev225

  ==> Input File <==

--------------------------------------------------------------------------
#psi4
#
memory 32 gb

molecule  {
0 1
  C        0.6677790    -0.2877210    -0.0000110
  C       -0.6677790     0.2877220     0.0000160
  C        1.8019300     0.4385480     0.0000620
  C       -1.8019300    -0.4385470    -0.0000660
  C        3.1824410    -0.1410110     0.0000540
  C       -3.1824410     0.1410100    -0.0000550
  H        0.7356230    -1.3773410    -0.0000890
  H       -0.7356240     1.3773420     0.0001000
  H        1.7263590     1.5270040     0.0001430
  H       -1.7263580    -1.5270030    -0.0001530
  H        3.1685634    -1.2341407    -0.0323240
  H        3.7490380     0.1823190    -0.8804680
  H        3.7489810     0.1821480     0.8806760
  H       -3.7489900    -0.1821670    -0.8806650
  H       -3.7490280    -0.1823020     0.8804800
  H       -3.1481700     1.2341700     0.0000290
units angstrom
no_reorient  #important for SAPT in psi4, default
symmetry c1  #important for SAPT in psi4, default
}

set PROPERTIES_ORIGIN ["COM"]
properties('MP2/aug-cc-pvtz', properties = ['dipole'])
--------------------------------------------------------------------------

    Molecular point group: c1
  Charge       = 0
  Multiplicity = 1
  Basis Set: AUG-CC-PVTZ
    Blend: AUG-CC-PVTZ
  Basis Set: (AUG-CC-PVTZ AUX)
    Blend: AUG-CC-PVTZ-JKFIT

    Orbital Energies [Eh]
    ---------------------

    Doubly Occupied:

       1A    -11.230979     2A    -11.230828     3A    -11.226911
       4A    -11.226084     5A    -11.221235     6A    -11.221164
       7A     -1.096422     8A     -1.045605     9A     -0.966528
      10A     -0.892667    11A     -0.763584    12A     -0.748746
      13A     -0.644194    14A     -0.610651    15A     -0.566985
      16A     -0.563988    17A     -0.555984    18A     -0.546468
      19A     -0.510883    20A     -0.502510    21A     -0.482562
      22A     -0.422827    23A     -0.298490

  @DF-RHF Final Energy:  -233.08161828807525

   => Energetics <=

    Nuclear Repulsion Energy =            207.9436790475618011
    One-Electron Energy =                -724.8980071209003881
    Two-Electron Energy =                 283.8727097852633960
    Total Energy =                       -233.0816182880752194
  Basis Set: (AUG-CC-PVTZ AUX)
    Blend: AUG-CC-PVTZ-RI
    Molecular point group: c1

    Geometry (in Angstrom), charge = 0, multiplicity = 1:

       Center              X                  Y                   Z               Mass
    ------------   -----------------  -----------------  -----------------  -----------------
         C            0.667528580592    -0.287721505972     0.000385250182    12.000000000000
         C           -0.668029419408     0.287721494028     0.000412250182    12.000000000000
         C            1.801679580592     0.438547494028     0.000458250182    12.000000000000
         C           -1.802180419408    -0.438547505972     0.000330250182    12.000000000000
         C            3.182190580592    -0.141011505972     0.000450250182    12.000000000000
         C           -3.182691419408     0.141009494028     0.000341250182    12.000000000000
         H            0.735372580592    -1.377341505972     0.000307250182     1.007825032230
         H           -0.735874419408     1.377341494028     0.000496250182     1.007825032230
         H            1.726108580592     1.527003494028     0.000539250182     1.007825032230
         H           -1.726608419408    -1.527003505972     0.000243250182     1.007825032230
         H            3.168312980592    -1.234141205972    -0.031927749818     1.007825032230
         H            3.748787580592     0.182318494028    -0.880071749818     1.007825032230
         H            3.748730580592     0.182147494028     0.881072250182     1.007825032230
         H           -3.749240419408    -0.182167505972    -0.880268749818     1.007825032230
         H           -3.749278419408    -0.182302505972     0.880876250182     1.007825032230
         H           -3.148420419408     1.234169494028     0.000425250182     1.007825032230

  Basis Set: AUG-CC-PVTZ
    Blend: AUG-CC-PVTZ
  Basis Set: (AUG-CC-PVTZ AUX)
    Blend: AUG-CC-PVTZ-JKFIT
	 Reference Energy          =    -233.0816182880752478 [Eh]
	 Singles Energy            =      -0.0000000000000000 [Eh]
	 Same-Spin Energy          =      -0.2454747156840620 [Eh]
	 Opposite-Spin Energy      =      -0.8819672459509669 [Eh]
	 Correlation Energy        =      -1.1274419616350289 [Eh]
	 Total Energy              =    -234.2090602497102907 [Eh]

	 ================> DF-SCS-MP2 Energies <==================
	-----------------------------------------------------------
	 SCS Same-Spin Scale       =       0.3333333333333333 [-]
	 SCS Opposite-Spin Scale   =       1.2000000000000000 [-]
	 SCS Same-Spin Energy      =      -0.0818249052280207 [Eh]
	 SCS Opposite-Spin Energy  =      -1.0583606951411602 [Eh]
	 SCS Correlation Energy    =      -1.1401856003691808 [Eh]
	 SCS Total Energy          =    -234.2218038884444411 [Eh]
	-----------------------------------------------------------

  Dipole Moment: [D]
     X:     0.0020      Y:    -0.0044      Z:    -0.0099     Total:     0.0110

*** Psi4 exiting successfully. Buy a developer a beer!
