                               Psi4 1.4a3.dev225

  ==> Input File <==

--------------------------------------------------------------------------
#psi4
#
memory 32 gb

molecule  {
0 1
  C        0.6677790    -0.2877210    -0.0000110
  C       -0.6677790     0.2877220     0.0000160
  C        1.8019300     0.4385480     0.0000620
  C       -1.8401771    -0.5084604    -0.1350096
  C        3.1824410    -0.1410110     0.0000540
  C       -3.1824410     0.1410100    -0.0000550
  H        0.7356230    -1.3773410    -0.0000890
  H       -0.7356240     1.3773420     0.0001000
  H        1.7263590     1.5270040     0.0001430
  H       -1.7263580    -1.5270030    -0.0001530
  H        3.1481690    -1.2341710    -0.0000530
  H        3.7490380     0.1823190    -0.8804680
  H        3.7489810     0.1821480     0.8806760
  H       -3.7489900    -0.1821670    -0.8806650
  H       -3.7490280    -0.1823020     0.8804800
  H       -3.1481700     1.2341700     0.0000290
units angstrom
no_reorient  #important for SAPT in psi4, default
symmetry c1  #important for SAPT in psi4, default
}

set PROPERTIES_ORIGIN ["COM"]
properties('MP2/aug-cc-pvtz', properties = ['dipole'])
--------------------------------------------------------------------------

    Molecular point group: c1
  Charge       = 0
  Multiplicity = 1
  Basis Set: AUG-CC-PVTZ
    Blend: AUG-CC-PVTZ
  Basis Set: (AUG-CC-PVTZ AUX)
    Blend: AUG-CC-PVTZ-JKFIT

    Orbital Energies [Eh]
    ---------------------

    Doubly Occupied:

       1A    -11.239017     2A    -11.235291     3A    -11.231906
       4A    -11.226919     5A    -11.221866     6A    -11.220672
       7A     -1.091492     8A     -1.041826     9A     -0.966255
      10A     -0.884784    11A     -0.773463    12A     -0.750687
      13A     -0.641521    14A     -0.609210    15A     -0.568850
      16A     -0.565578    17A     -0.553112    18A     -0.544283
      19A     -0.514369    20A     -0.503154    21A     -0.484962
      22A     -0.415849    23A     -0.289199

  @DF-RHF Final Energy:  -233.06415229055438

   => Energetics <=

    Nuclear Repulsion Energy =            207.0304092279202166
    One-Electron Energy =                -723.0405952394434053
    Two-Electron Energy =                 282.9460337209687850
    Total Energy =                       -233.0641522905543752
  Basis Set: (AUG-CC-PVTZ AUX)
    Blend: AUG-CC-PVTZ-RI
    Molecular point group: c1

    Geometry (in Angstrom), charge = 0, multiplicity = 1:

       Center              X                  Y                   Z               Mass
    ------------   -----------------  -----------------  -----------------  -----------------
         C            0.673370800485    -0.277499658725     0.019718017049    12.000000000000
         C           -0.662187199515     0.297943341275     0.019745017049    12.000000000000
         C            1.807521800485     0.448769341275     0.019791017049    12.000000000000
         C           -1.834585299515    -0.498239058725    -0.115280582951    12.000000000000
         C            3.188032800485    -0.130789658725     0.019783017049    12.000000000000
         C           -3.176849199515     0.151231341275     0.019674017049    12.000000000000
         H            0.741214800485    -1.367119658725     0.019640017049     1.007825032230
         H           -0.730032199515     1.387563341275     0.019829017049     1.007825032230
         H            1.731950800485     1.537225341275     0.019872017049     1.007825032230
         H           -1.720766199515    -1.516781658725     0.019576017049     1.007825032230
         H            3.153760800485    -1.223949658725     0.019676017049     1.007825032230
         H            3.754629800485     0.192540341275    -0.860738982951     1.007825032230
         H            3.754572800485     0.192369341275     0.900405017049     1.007825032230
         H           -3.743398199515    -0.171945658725    -0.860935982951     1.007825032230
         H           -3.743436199515    -0.172080658725     0.900209017049     1.007825032230
         H           -3.142578199515     1.244391341275     0.019758017049     1.007825032230

  Basis Set: AUG-CC-PVTZ
    Blend: AUG-CC-PVTZ
  Basis Set: (AUG-CC-PVTZ AUX)
    Blend: AUG-CC-PVTZ-JKFIT
	 Reference Energy          =    -233.0641522905543752 [Eh]
	 Singles Energy            =      -0.0000000000000000 [Eh]
	 Same-Spin Energy          =      -0.2467073379191557 [Eh]
	 Opposite-Spin Energy      =      -0.8849650702625179 [Eh]
	 Correlation Energy        =      -1.1316724081816736 [Eh]
	 Total Energy              =    -234.1958246987360610 [Eh]

	 ================> DF-SCS-MP2 Energies <==================
	-----------------------------------------------------------
	 SCS Same-Spin Scale       =       0.3333333333333333 [-]
	 SCS Opposite-Spin Scale   =       1.2000000000000000 [-]
	 SCS Same-Spin Energy      =      -0.0822357793063852 [Eh]
	 SCS Opposite-Spin Energy  =      -1.0619580843150214 [Eh]
	 SCS Correlation Energy    =      -1.1441938636214066 [Eh]
	 SCS Total Energy          =    -234.2083461541757856 [Eh]
	-----------------------------------------------------------

  Dipole Moment: [D]
     X:     0.0862      Y:     0.0113      Z:     0.1551     Total:     0.1778

*** Psi4 exiting successfully. Buy a developer a beer!
