                               Psi4 1.4a3.dev225

  ==> Input File <==

--------------------------------------------------------------------------
#psi4
#
memory 32 gb

molecule  {
0 1
  C        0.6677790    -0.2877210    -0.0000110
  C       -0.6677790     0.2877220     0.0000160
  C        1.8019300     0.4385480     0.0000620
  C       -1.7970171    -0.4262557     0.0224646
  C        3.1824410    -0.1410110     0.0000540
  C       -3.1824410     0.1410100    -0.0000550
  H        0.7356230    -1.3773410    -0.0000890
  H       -0.7356240     1.3773420     0.0001000
  H        1.7263590     1.5270040     0.0001430
  H       -1.7263580    -1.5270030    -0.0001530
  H        3.1481690    -1.2341710    -0.0000530
  H        3.7490380     0.1823190    -0.8804680
  H        3.7489810     0.1821480     0.8806760
  H       -3.7489900    -0.1821670    -0.8806650
  H       -3.7490280    -0.1823020     0.8804800
  H       -3.1481700     1.2341700     0.0000290
units angstrom
no_reorient  #important for SAPT in psi4, default
symmetry c1  #important for SAPT in psi4, default
}

set PROPERTIES_ORIGIN ["COM"]
properties('MP2/aug-cc-pvtz', properties = ['dipole'])
--------------------------------------------------------------------------

    Molecular point group: c1
  Charge       = 0
  Multiplicity = 1
  Basis Set: AUG-CC-PVTZ
    Blend: AUG-CC-PVTZ
  Basis Set: (AUG-CC-PVTZ AUX)
    Blend: AUG-CC-PVTZ-JKFIT

    Orbital Energies [Eh]
    ---------------------

    Doubly Occupied:

       1A    -11.230992     2A    -11.230261     3A    -11.226708
       4A    -11.224952     5A    -11.221318     6A    -11.221271
       7A     -1.097495     8A     -1.046352     9A     -0.966708
      10A     -0.893744    11A     -0.762285    12A     -0.747781
      13A     -0.644821    14A     -0.610334    15A     -0.567106
      16A     -0.564060    17A     -0.557371    18A     -0.546204
      19A     -0.512609    20A     -0.500320    21A     -0.480658
      22A     -0.423971    23A     -0.300026

  @DF-RHF Final Energy:  -233.08173501431708

   => Energetics <=

    Nuclear Repulsion Energy =            208.0952856238604625
    One-Electron Energy =                -725.1993487457739320
    Two-Electron Energy =                 284.0223281075963655
    Total Energy =                       -233.0817350143170756
  Basis Set: (AUG-CC-PVTZ AUX)
    Blend: AUG-CC-PVTZ-RI
    Molecular point group: c1

    Geometry (in Angstrom), charge = 0, multiplicity = 1:

       Center              X                  Y                   Z               Mass
    ------------   -----------------  -----------------  -----------------  -----------------
         C            0.667060724455    -0.289518145914    -0.003305017586    12.000000000000
         C           -0.668497275545     0.285924854086    -0.003278017586    12.000000000000
         C            1.801211724455     0.436750854086    -0.003232017586    12.000000000000
         C           -1.797735375545    -0.428052845914     0.019170582414    12.000000000000
         C            3.181722724455    -0.142808145914    -0.003240017586    12.000000000000
         C           -3.183159275545     0.139212854086    -0.003349017586    12.000000000000
         H            0.734904724455    -1.379138145914    -0.003383017586     1.007825032230
         H           -0.736342275545     1.375544854086    -0.003194017586     1.007825032230
         H            1.725640724455     1.525206854086    -0.003151017586     1.007825032230
         H           -1.727076275545    -1.528800145914    -0.003447017586     1.007825032230
         H            3.147450724455    -1.235968145914    -0.003347017586     1.007825032230
         H            3.748319724455     0.180521854086    -0.883762017586     1.007825032230
         H            3.748262724455     0.180350854086     0.877381982414     1.007825032230
         H           -3.749708275545    -0.183964145914    -0.883959017586     1.007825032230
         H           -3.749746275545    -0.184099145914     0.877185982414     1.007825032230
         H           -3.148888275545     1.232372854086    -0.003265017586     1.007825032230

  Basis Set: AUG-CC-PVTZ
    Blend: AUG-CC-PVTZ
  Basis Set: (AUG-CC-PVTZ AUX)
    Blend: AUG-CC-PVTZ-JKFIT
	 Reference Energy          =    -233.0817350143170756 [Eh]
	 Singles Energy            =      -0.0000000000000000 [Eh]
	 Same-Spin Energy          =      -0.2454008675851810 [Eh]
	 Opposite-Spin Energy      =      -0.8817770208121380 [Eh]
	 Correlation Energy        =      -1.1271778883973189 [Eh]
	 Total Energy              =    -234.2089129027143883 [Eh]

	 ================> DF-SCS-MP2 Energies <==================
	-----------------------------------------------------------
	 SCS Same-Spin Scale       =       0.3333333333333333 [-]
	 SCS Opposite-Spin Scale   =       1.2000000000000000 [-]
	 SCS Same-Spin Energy      =      -0.0818002891950603 [Eh]
	 SCS Opposite-Spin Energy  =      -1.0581324249745656 [Eh]
	 SCS Correlation Energy    =      -1.1399327141696258 [Eh]
	 SCS Total Energy          =    -234.2216677284866932 [Eh]
	-----------------------------------------------------------

  Dipole Moment: [D]
     X:     0.0037      Y:     0.0064      Z:    -0.0246     Total:     0.0257

*** Psi4 exiting successfully. Buy a developer a beer!
