                               Psi4 1.4a3.dev225

  ==> Input File <==

--------------------------------------------------------------------------
#psi4
#
memory 32 gb

molecule  {
0 1
  C        0.6677790    -0.2877210    -0.0000110
  C       -0.6677790     0.2877220     0.0000160
  C        1.8019300     0.4385480     0.0000620
  C       -1.7848157    -0.3883602     0.0899879
  C        3.1824410    -0.1410110     0.0000540
  C       -3.1824410     0.1410100    -0.0000550
  H        0.7356230    -1.3773410    -0.0000890
  H       -0.7356240     1.3773420     0.0001000
  H        1.7263590     1.5270040     0.0001430
  H       -1.7263580    -1.5270030    -0.0001530
  H        3.1481690    -1.2341710    -0.0000530
  H        3.7490380     0.1823190    -0.8804680
  H        3.7489810     0.1821480     0.8806760
  H       -3.7489900    -0.1821670    -0.8806650
  H       -3.7490280    -0.1823020     0.8804800
  H       -3.1481700     1.2341700     0.0000290
units angstrom
no_reorient  #important for SAPT in psi4, default
symmetry c1  #important for SAPT in psi4, default
}

set PROPERTIES_ORIGIN ["COM"]
properties('MP2/aug-cc-pvtz', properties = ['dipole'])
--------------------------------------------------------------------------

    Molecular point group: c1
  Charge       = 0
  Multiplicity = 1
  Basis Set: AUG-CC-PVTZ
    Blend: AUG-CC-PVTZ
  Basis Set: (AUG-CC-PVTZ AUX)
    Blend: AUG-CC-PVTZ-JKFIT

    Orbital Energies [Eh]
    ---------------------

    Doubly Occupied:

       1A    -11.232077     2A    -11.229369     3A    -11.227250
       4A    -11.221902     5A    -11.221891     6A    -11.221478
       7A     -1.100669     8A     -1.048284     9A     -0.967376
      10A     -0.897380    11A     -0.761254    12A     -0.743236
      13A     -0.645355    14A     -0.610300    15A     -0.568727
      16A     -0.565478    17A     -0.557945    18A     -0.546222
      19A     -0.515539    20A     -0.496817    21A     -0.471631
      22A     -0.427136    23A     -0.304600

  @DF-RHF Final Energy:  -233.07671971381779

   => Energetics <=

    Nuclear Repulsion Energy =            208.4066559504138638
    One-Electron Energy =                -725.8029182276806068
    Two-Electron Energy =                 284.3195425634489197
    Total Energy =                       -233.0767197138177949
  Basis Set: (AUG-CC-PVTZ AUX)
    Blend: AUG-CC-PVTZ-RI
    Molecular point group: c1

    Geometry (in Angstrom), charge = 0, multiplicity = 1:

       Center              X                  Y                   Z               Mass
    ------------   -----------------  -----------------  -----------------  -----------------
         C            0.665276856019    -0.295058541795    -0.013177055511    12.000000000000
         C           -0.670281143981     0.280384458205    -0.013150055511    12.000000000000
         C            1.799427856019     0.431210458205    -0.013104055511    12.000000000000
         C           -1.787317843981    -0.395697741795     0.076821844489    12.000000000000
         C            3.179938856019    -0.148348541795    -0.013112055511    12.000000000000
         C           -3.184943143981     0.133672458205    -0.013221055511    12.000000000000
         H            0.733120856019    -1.384678541795    -0.013255055511     1.007825032230
         H           -0.738126143981     1.370004458205    -0.013066055511     1.007825032230
         H            1.723856856019     1.519666458205    -0.013023055511     1.007825032230
         H           -1.728860143981    -1.534340541795    -0.013319055511     1.007825032230
         H            3.145666856019    -1.241508541795    -0.013219055511     1.007825032230
         H            3.746535856019     0.174981458205    -0.893634055511     1.007825032230
         H            3.746478856019     0.174810458205     0.867509944489     1.007825032230
         H           -3.751492143981    -0.189504541795    -0.893831055511     1.007825032230
         H           -3.751530143981    -0.189639541795     0.867313944489     1.007825032230
         H           -3.150672143981     1.226832458205    -0.013137055511     1.007825032230

  Basis Set: AUG-CC-PVTZ
    Blend: AUG-CC-PVTZ
  Basis Set: (AUG-CC-PVTZ AUX)
    Blend: AUG-CC-PVTZ-JKFIT
	 Reference Energy          =    -233.0767197138177949 [Eh]
	 Singles Energy            =      -0.0000000000000000 [Eh]
	 Same-Spin Energy          =      -0.2453576206900329 [Eh]
	 Opposite-Spin Energy      =      -0.8816160348838724 [Eh]
	 Correlation Energy        =      -1.1269736555739054 [Eh]
	 Total Energy              =    -234.2036933693916865 [Eh]

	 ================> DF-SCS-MP2 Energies <==================
	-----------------------------------------------------------
	 SCS Same-Spin Scale       =       0.3333333333333333 [-]
	 SCS Opposite-Spin Scale   =       1.2000000000000000 [-]
	 SCS Same-Spin Energy      =      -0.0817858735633443 [Eh]
	 SCS Opposite-Spin Energy  =      -1.0579392418606468 [Eh]
	 SCS Correlation Energy    =      -1.1397251154239911 [Eh]
	 SCS Total Energy          =    -234.2164448292417944 [Eh]
	-----------------------------------------------------------

  Dipole Moment: [D]
     X:     0.0431      Y:     0.0404      Z:    -0.0974     Total:     0.1139

*** Psi4 exiting successfully. Buy a developer a beer!
