                               Psi4 1.4a3.dev225

  ==> Input File <==

--------------------------------------------------------------------------
#psi4
#
memory 32 gb

molecule  {
0 1
  C        0.6677790    -0.2877210    -0.0000110
  C       -0.6677790     0.2877220     0.0000160
  C        1.8019300     0.4385480     0.0000620
  C       -1.8019300    -0.4385470    -0.0000660
  C        3.1824410    -0.1410110     0.0000540
  C       -3.1824410     0.1410100    -0.0000550
  H        0.7356230    -1.3773410    -0.0000890
  H       -0.7356240     1.3773420     0.0001000
  H        1.7263590     1.5270040     0.0001430
  H       -1.7263580    -1.5270030    -0.0001530
  H        3.1481690    -1.2341710    -0.0000530
  H        3.7490380     0.1823190    -0.8804680
  H        3.7489810     0.1821480     0.8806760
  H       -3.7489900    -0.1821670    -0.8806650
  H       -3.7748794    -0.1970536     0.9206558
  H       -3.1481700     1.2341700     0.0000290
units angstrom
no_reorient  #important for SAPT in psi4, default
symmetry c1  #important for SAPT in psi4, default
}

set PROPERTIES_ORIGIN ["COM"]
properties('MP2/aug-cc-pvtz', properties = ['dipole'])
--------------------------------------------------------------------------

    Molecular point group: c1
  Charge       = 0
  Multiplicity = 1
  Basis Set: AUG-CC-PVTZ
    Blend: AUG-CC-PVTZ
  Basis Set: (AUG-CC-PVTZ AUX)
    Blend: AUG-CC-PVTZ-JKFIT

    Orbital Energies [Eh]
    ---------------------

    Doubly Occupied:

       1A    -11.231267     2A    -11.231107     3A    -11.227315
       4A    -11.227184     5A    -11.226423     6A    -11.221412
       7A     -1.096626     8A     -1.045286     9A     -0.965011
      10A     -0.890791    11A     -0.762772    12A     -0.749065
      13A     -0.644273    14A     -0.610617    15A     -0.565982
      16A     -0.560809    17A     -0.553070    18A     -0.546515
      19A     -0.510656    20A     -0.502379    21A     -0.482667
      22A     -0.422687    23A     -0.298533

  @DF-RHF Final Energy:  -233.07970033720937

   => Energetics <=

    Nuclear Repulsion Energy =            207.7772130440597493
    One-Electron Energy =                -724.5689323491499181
    Two-Electron Energy =                 283.7120189678807947
    Total Energy =                       -233.0797003372093741
  Basis Set: (AUG-CC-PVTZ AUX)
    Blend: AUG-CC-PVTZ-RI
    Molecular point group: c1

    Geometry (in Angstrom), charge = 0, multiplicity = 1:

       Center              X                  Y                   Z               Mass
    ------------   -----------------  -----------------  -----------------  -----------------
         C            0.668096424993    -0.287540001508    -0.000504311892    12.000000000000
         C           -0.667461575007     0.287902998492    -0.000477311892    12.000000000000
         C            1.802247424993     0.438728998492    -0.000431311892    12.000000000000
         C           -1.801612575007    -0.438366001508    -0.000559311892    12.000000000000
         C            3.182758424993    -0.140830001508    -0.000439311892    12.000000000000
         C           -3.182123575007     0.141190998492    -0.000548311892    12.000000000000
         H            0.735940424993    -1.377160001508    -0.000582311892     1.007825032230
         H           -0.735306575007     1.377522998492    -0.000393311892     1.007825032230
         H            1.726676424993     1.527184998492    -0.000350311892     1.007825032230
         H           -1.726040575007    -1.526822001508    -0.000646311892     1.007825032230
         H            3.148486424993    -1.233990001508    -0.000546311892     1.007825032230
         H            3.749355424993     0.182499998492    -0.880961311892     1.007825032230
         H            3.749298424993     0.182328998492     0.880182688108     1.007825032230
         H           -3.748672575007    -0.181986001508    -0.881158311892     1.007825032230
         H           -3.774561975007    -0.196872601508     0.920162488108     1.007825032230
         H           -3.147852575007     1.234350998492    -0.000464311892     1.007825032230

  Basis Set: AUG-CC-PVTZ
    Blend: AUG-CC-PVTZ
  Basis Set: (AUG-CC-PVTZ AUX)
    Blend: AUG-CC-PVTZ-JKFIT
	 Reference Energy          =    -233.0797003372093741 [Eh]
	 Singles Energy            =      -0.0000000000000000 [Eh]
	 Same-Spin Energy          =      -0.2454670171269511 [Eh]
	 Opposite-Spin Energy      =      -0.8822774445690588 [Eh]
	 Correlation Energy        =      -1.1277444616960099 [Eh]
	 Total Energy              =    -234.2074447989053851 [Eh]

	 ================> DF-SCS-MP2 Energies <==================
	-----------------------------------------------------------
	 SCS Same-Spin Scale       =       0.3333333333333333 [-]
	 SCS Opposite-Spin Scale   =       1.2000000000000000 [-]
	 SCS Same-Spin Energy      =      -0.0818223390423170 [Eh]
	 SCS Opposite-Spin Energy  =      -1.0587329334828706 [Eh]
	 SCS Correlation Energy    =      -1.1405552725251875 [Eh]
	 SCS Total Energy          =    -234.2202556097345507 [Eh]
	-----------------------------------------------------------

  Dipole Moment: [D]
     X:     0.0331      Y:     0.0065      Z:    -0.0193     Total:     0.0389

*** Psi4 exiting successfully. Buy a developer a beer!
