                               Psi4 1.4a3.dev225

  ==> Input File <==

--------------------------------------------------------------------------
#psi4
#
memory 32 gb

molecule  {
0 1
  C        0.6677790    -0.2877210    -0.0000110
  C       -0.6677790     0.2877220     0.0000160
  C        1.8019300     0.4385480     0.0000620
  C       -1.8019300    -0.4385470    -0.0000660
  C        3.1824410    -0.1410110     0.0000540
  C       -3.1824410     0.1410100    -0.0000550
  H        0.7356230    -1.3773410    -0.0000890
  H       -0.7356240     1.3773420     0.0001000
  H        1.7263590     1.5270040     0.0001430
  H       -1.7263580    -1.5270030    -0.0001530
  H        3.1481690    -1.2341710    -0.0000530
  H        3.7490380     0.1823190    -0.8804680
  H        3.7489810     0.1821480     0.8806760
  H       -3.7489900    -0.1821670    -0.8806650
  H       -3.8524337    -0.2413085     1.0411832
  H       -3.1481700     1.2341700     0.0000290
units angstrom
no_reorient  #important for SAPT in psi4, default
symmetry c1  #important for SAPT in psi4, default
}

set PROPERTIES_ORIGIN ["COM"]
properties('MP2/aug-cc-pvtz', properties = ['dipole'])
--------------------------------------------------------------------------

    Molecular point group: c1
  Charge       = 0
  Multiplicity = 1
  Basis Set: AUG-CC-PVTZ
    Blend: AUG-CC-PVTZ
  Basis Set: (AUG-CC-PVTZ AUX)
    Blend: AUG-CC-PVTZ-JKFIT

    Orbital Energies [Eh]
    ---------------------

    Doubly Occupied:

       1A    -11.244091     2A    -11.232851     3A    -11.232408
       4A    -11.228995     5A    -11.227685     6A    -11.222219
       7A     -1.097636     8A     -1.045128     9A     -0.962503
      10A     -0.887370    11A     -0.762180    12A     -0.750269
      13A     -0.644475    14A     -0.612069    15A     -0.566595
      16A     -0.561581    17A     -0.548254    18A     -0.534998
      19A     -0.506390    20A     -0.500140    21A     -0.483481
      22A     -0.421934    23A     -0.298918

  @DF-RHF Final Energy:  -233.06221251165641

   => Energetics <=

    Nuclear Repulsion Energy =            207.2636214372163579
    One-Electron Energy =                -723.5073226415410090
    Two-Electron Energy =                 283.1814886926682675
    Total Energy =                       -233.0622125116564121
  Basis Set: (AUG-CC-PVTZ AUX)
    Blend: AUG-CC-PVTZ-RI
    Molecular point group: c1

    Geometry (in Angstrom), charge = 0, multiplicity = 1:

       Center              X                  Y                   Z               Mass
    ------------   -----------------  -----------------  -----------------  -----------------
         C            0.669048701200    -0.286996603033    -0.001984247567    12.000000000000
         C           -0.666509298800     0.288446396967    -0.001957247567    12.000000000000
         C            1.803199701200     0.439272396967    -0.001911247567    12.000000000000
         C           -1.800660298800    -0.437822603033    -0.002039247567    12.000000000000
         C            3.183710701200    -0.140286603033    -0.001919247567    12.000000000000
         C           -3.181171298800     0.141734396967    -0.002028247567    12.000000000000
         H            0.736892701200    -1.376616603033    -0.002062247567     1.007825032230
         H           -0.734354298800     1.378066396967    -0.001873247567     1.007825032230
         H            1.727628701200     1.527728396967    -0.001830247567     1.007825032230
         H           -1.725088298800    -1.526278603033    -0.002126247567     1.007825032230
         H            3.149438701200    -1.233446603033    -0.002026247567     1.007825032230
         H            3.750307701200     0.183043396967    -0.882441247567     1.007825032230
         H            3.750250701200     0.182872396967     0.878702752433     1.007825032230
         H           -3.747720298800    -0.181442603033    -0.882638247567     1.007825032230
         H           -3.851163998800    -0.240584103033     1.039209952433     1.007825032230
         H           -3.146900298800     1.234894396967    -0.001944247567     1.007825032230

  Basis Set: AUG-CC-PVTZ
    Blend: AUG-CC-PVTZ
  Basis Set: (AUG-CC-PVTZ AUX)
    Blend: AUG-CC-PVTZ-JKFIT
	 Reference Energy          =    -233.0622125116564121 [Eh]
	 Singles Energy            =      -0.0000000000000000 [Eh]
	 Same-Spin Energy          =      -0.2454250562628506 [Eh]
	 Opposite-Spin Energy      =      -0.8833773850723022 [Eh]
	 Correlation Energy        =      -1.1288024413351530 [Eh]
	 Total Energy              =    -234.1910149529915657 [Eh]

	 ================> DF-SCS-MP2 Energies <==================
	-----------------------------------------------------------
	 SCS Same-Spin Scale       =       0.3333333333333333 [-]
	 SCS Opposite-Spin Scale   =       1.2000000000000000 [-]
	 SCS Same-Spin Energy      =      -0.0818083520876169 [Eh]
	 SCS Opposite-Spin Energy  =      -1.0600528620867626 [Eh]
	 SCS Correlation Energy    =      -1.1418612141743796 [Eh]
	 SCS Total Energy          =    -234.2040737258307956 [Eh]
	-----------------------------------------------------------

  Dipole Moment: [D]
     X:     0.1674      Y:     0.0325      Z:    -0.0962     Total:     0.1958

*** Psi4 exiting successfully. Buy a developer a beer!
