                               Psi4 1.4a3.dev225

  ==> Input File <==

--------------------------------------------------------------------------
#psi4
#
memory 32 gb

molecule  {
0 1
  C        0.6677790    -0.2877210    -0.0000110
  C       -0.6677790     0.2877220     0.0000160
  C        1.8187726     0.4493334     0.0000631
  C       -1.8019300    -0.4385470    -0.0000660
  C        3.1824410    -0.1410110     0.0000540
  C       -3.1824410     0.1410100    -0.0000550
  H        0.7356230    -1.3773410    -0.0000890
  H       -0.7356240     1.3773420     0.0001000
  H        1.7263590     1.5270040     0.0001430
  H       -1.7263580    -1.5270030    -0.0001530
  H        3.1481690    -1.2341710    -0.0000530
  H        3.7490380     0.1823190    -0.8804680
  H        3.7489810     0.1821480     0.8806760
  H       -3.7489900    -0.1821670    -0.8806650
  H       -3.7490280    -0.1823020     0.8804800
  H       -3.1481700     1.2341700     0.0000290
units angstrom
no_reorient  #important for SAPT in psi4, default
symmetry c1  #important for SAPT in psi4, default
}

set PROPERTIES_ORIGIN ["COM"]
properties('MP2/aug-cc-pvtz', properties = ['dipole'])
--------------------------------------------------------------------------

    Molecular point group: c1
  Charge       = 0
  Multiplicity = 1
  Basis Set: AUG-CC-PVTZ
    Blend: AUG-CC-PVTZ
  Basis Set: (AUG-CC-PVTZ AUX)
    Blend: AUG-CC-PVTZ-JKFIT

    Orbital Energies [Eh]
    ---------------------

    Doubly Occupied:

       1A    -11.232347     2A    -11.230797     3A    -11.229143
       4A    -11.226545     5A    -11.221209     6A    -11.220893
       7A     -1.094936     8A     -1.045743     9A     -0.967280
      10A     -0.890521    11A     -0.764710    12A     -0.749187
      13A     -0.644048    14A     -0.609904    15A     -0.567349
      16A     -0.564265    17A     -0.557507    18A     -0.546500
      19A     -0.509638    20A     -0.504301    21A     -0.484688
      22A     -0.420626    23A     -0.295547

  @DF-RHF Final Energy:  -233.08017778577747

   => Energetics <=

    Nuclear Repulsion Energy =            207.7853875991786197
    One-Electron Energy =                -724.5757637401644615
    Two-Electron Energy =                 283.7101983552083766
    Total Energy =                       -233.0801777857774368
  Basis Set: (AUG-CC-PVTZ AUX)
    Blend: AUG-CC-PVTZ-RI
    Molecular point group: c1

    Geometry (in Angstrom), charge = 0, multiplicity = 1:

       Center              X                  Y                   Z               Mass
    ------------   -----------------  -----------------  -----------------  -----------------
         C            0.665316579088    -0.289297980402    -0.000011160822    12.000000000000
         C           -0.670241420912     0.286145019598     0.000015839178    12.000000000000
         C            1.816310179088     0.447756419598     0.000062939178    12.000000000000
         C           -1.804392420912    -0.440123980402    -0.000066160822    12.000000000000
         C            3.179978579088    -0.142587980402     0.000053839178    12.000000000000
         C           -3.184903420912     0.139433019598    -0.000055160822    12.000000000000
         H            0.733160579088    -1.378917980402    -0.000089160822     1.007825032230
         H           -0.738086420912     1.375765019598     0.000099839178     1.007825032230
         H            1.723896579088     1.525427019598     0.000142839178     1.007825032230
         H           -1.728820420912    -1.528579980402    -0.000153160822     1.007825032230
         H            3.145706579088    -1.235747980402    -0.000053160822     1.007825032230
         H            3.746575579088     0.180742019598    -0.880468160822     1.007825032230
         H            3.746518579088     0.180571019598     0.880675839178     1.007825032230
         H           -3.751452420912    -0.183743980402    -0.880665160822     1.007825032230
         H           -3.751490420912    -0.183878980402     0.880479839178     1.007825032230
         H           -3.150632420912     1.232593019598     0.000028839178     1.007825032230

  Basis Set: AUG-CC-PVTZ
    Blend: AUG-CC-PVTZ
  Basis Set: (AUG-CC-PVTZ AUX)
    Blend: AUG-CC-PVTZ-JKFIT
	 Reference Energy          =    -233.0801777857774653 [Eh]
	 Singles Energy            =      -0.0000000000000000 [Eh]
	 Same-Spin Energy          =      -0.2457914256350501 [Eh]
	 Opposite-Spin Energy      =      -0.8825539707221988 [Eh]
	 Correlation Energy        =      -1.1283453963572487 [Eh]
	 Total Energy              =    -234.2085231821347122 [Eh]

	 ================> DF-SCS-MP2 Energies <==================
	-----------------------------------------------------------
	 SCS Same-Spin Scale       =       0.3333333333333333 [-]
	 SCS Opposite-Spin Scale   =       1.2000000000000000 [-]
	 SCS Same-Spin Energy      =      -0.0819304752116834 [Eh]
	 SCS Opposite-Spin Energy  =      -1.0590647648666385 [Eh]
	 SCS Correlation Energy    =      -1.1409952400783219 [Eh]
	 SCS Total Energy          =    -234.2211730258557907 [Eh]
	-----------------------------------------------------------

  Dipole Moment: [D]
     X:     0.0116      Y:     0.0030      Z:     0.0000     Total:     0.0120

*** Psi4 exiting successfully. Buy a developer a beer!
