                               Psi4 1.4a3.dev225

  ==> Input File <==

--------------------------------------------------------------------------
#psi4
#
memory 32 gb

molecule  {
0 1
  C        0.6677790    -0.2877210    -0.0000110
  C       -0.7136981     0.3075068     0.0000169
  C        1.8019300     0.4385480     0.0000620
  C       -1.8019300    -0.4385470    -0.0000660
  C        3.1824410    -0.1410110     0.0000540
  C       -3.1824410     0.1410100    -0.0000550
  H        0.7356230    -1.3773410    -0.0000890
  H       -0.7356240     1.3773420     0.0001000
  H        1.7263590     1.5270040     0.0001430
  H       -1.7263580    -1.5270030    -0.0001530
  H        3.1481690    -1.2341710    -0.0000530
  H        3.7490380     0.1823190    -0.8804680
  H        3.7489810     0.1821480     0.8806760
  H       -3.7489900    -0.1821670    -0.8806650
  H       -3.7490280    -0.1823020     0.8804800
  H       -3.1481700     1.2341700     0.0000290
units angstrom
no_reorient  #important for SAPT in psi4, default
symmetry c1  #important for SAPT in psi4, default
}

set PROPERTIES_ORIGIN ["COM"]
properties('MP2/aug-cc-pvtz', properties = ['dipole'])
--------------------------------------------------------------------------

    Molecular point group: c1
  Charge       = 0
  Multiplicity = 1
  Basis Set: AUG-CC-PVTZ
    Blend: AUG-CC-PVTZ
  Basis Set: (AUG-CC-PVTZ AUX)
    Blend: AUG-CC-PVTZ-JKFIT

    Orbital Energies [Eh]
    ---------------------

    Doubly Occupied:

       1A    -11.230174     2A    -11.228427     3A    -11.227240
       4A    -11.224264     5A    -11.220795     6A    -11.219801
       7A     -1.094665     8A     -1.048053     9A     -0.961626
      10A     -0.894272    11A     -0.760530    12A     -0.750512
      13A     -0.641526    14A     -0.611524    15A     -0.566483
      16A     -0.563539    17A     -0.556196    18A     -0.551274
      19A     -0.513748    20A     -0.502670    21A     -0.473963
      22A     -0.419226    23A     -0.305378

  @DF-RHF Final Energy:  -233.08089318054240

   => Energetics <=

    Nuclear Repulsion Energy =            207.8119200508520805
    One-Electron Energy =                -724.6538553577427137
    Two-Electron Energy =                 283.7610421263482294
    Total Energy =                       -233.0808931805423754
  Basis Set: (AUG-CC-PVTZ AUX)
    Blend: AUG-CC-PVTZ-RI
    Molecular point group: c1

    Geometry (in Angstrom), charge = 0, multiplicity = 1:

       Center              X                  Y                   Z               Mass
    ------------   -----------------  -----------------  -----------------  -----------------
         C            0.674492461823    -0.290613710203    -0.000011131582    12.000000000000
         C           -0.706984638177     0.304614089797     0.000016768418    12.000000000000
         C            1.808643461823     0.435655289797     0.000061868418    12.000000000000
         C           -1.795216538177    -0.441439710203    -0.000066131582    12.000000000000
         C            3.189154461823    -0.143903710203     0.000053868418    12.000000000000
         C           -3.175727538177     0.138117289797    -0.000055131582    12.000000000000
         H            0.742336461823    -1.380233710203    -0.000089131582     1.007825032230
         H           -0.728910538177     1.374449289797     0.000099868418     1.007825032230
         H            1.733072461823     1.524111289797     0.000142868418     1.007825032230
         H           -1.719644538177    -1.529895710203    -0.000153131582     1.007825032230
         H            3.154882461823    -1.237063710203    -0.000053131582     1.007825032230
         H            3.755751461823     0.179426289797    -0.880468131582     1.007825032230
         H            3.755694461823     0.179255289797     0.880675868418     1.007825032230
         H           -3.742276538177    -0.185059710203    -0.880665131582     1.007825032230
         H           -3.742314538177    -0.185194710203     0.880479868418     1.007825032230
         H           -3.141456538177     1.231277289797     0.000028868418     1.007825032230

  Basis Set: AUG-CC-PVTZ
    Blend: AUG-CC-PVTZ
  Basis Set: (AUG-CC-PVTZ AUX)
    Blend: AUG-CC-PVTZ-JKFIT
	 Reference Energy          =    -233.0808931805424038 [Eh]
	 Singles Energy            =      -0.0000000000000000 [Eh]
	 Same-Spin Energy          =      -0.2446342015880591 [Eh]
	 Opposite-Spin Energy      =      -0.8808777510566669 [Eh]
	 Correlation Energy        =      -1.1255119526447259 [Eh]
	 Total Energy              =    -234.2064051331871326 [Eh]

	 ================> DF-SCS-MP2 Energies <==================
	-----------------------------------------------------------
	 SCS Same-Spin Scale       =       0.3333333333333333 [-]
	 SCS Opposite-Spin Scale   =       1.2000000000000000 [-]
	 SCS Same-Spin Energy      =      -0.0815447338626864 [Eh]
	 SCS Opposite-Spin Energy  =      -1.0570533012680001 [Eh]
	 SCS Correlation Energy    =      -1.1385980351306866 [Eh]
	 SCS Total Energy          =    -234.2194912156730879 [Eh]
	-----------------------------------------------------------

  Dipole Moment: [D]
     X:    -0.0181      Y:     0.0020      Z:     0.0000     Total:     0.0182

*** Psi4 exiting successfully. Buy a developer a beer!
