                               Psi4 1.4a3.dev225

  ==> Input File <==

--------------------------------------------------------------------------
#psi4
#
memory 32 gb

molecule  {
0 1
  C        0.6677790    -0.2877210    -0.0000110
  C       -0.6677790     0.2877220     0.0000160
  C        1.8019300     0.4385480     0.0000620
  C       -1.8019300    -0.4385470    -0.0000660
  C        3.1824410    -0.1410110     0.0000540
  C       -3.0902366     0.1023014    -0.0000557
  H        0.7356230    -1.3773410    -0.0000890
  H       -0.7356240     1.3773420     0.0001000
  H        1.7263590     1.5270040     0.0001430
  H       -1.7263580    -1.5270030    -0.0001530
  H        3.1481690    -1.2341710    -0.0000530
  H        3.7490380     0.1823190    -0.8804680
  H        3.7489810     0.1821480     0.8806760
  H       -3.7489900    -0.1821670    -0.8806650
  H       -3.7490280    -0.1823020     0.8804800
  H       -3.1481700     1.2341700     0.0000290
units angstrom
no_reorient  #important for SAPT in psi4, default
symmetry c1  #important for SAPT in psi4, default
}

set PROPERTIES_ORIGIN ["COM"]
properties('MP2/aug-cc-pvtz', properties = ['dipole'])
--------------------------------------------------------------------------

    Molecular point group: c1
  Charge       = 0
  Multiplicity = 1
  Basis Set: AUG-CC-PVTZ
    Blend: AUG-CC-PVTZ
  Basis Set: (AUG-CC-PVTZ AUX)
    Blend: AUG-CC-PVTZ-JKFIT

    Orbital Energies [Eh]
    ---------------------

    Doubly Occupied:

       1A    -11.231346     2A    -11.227786     3A    -11.226621
       4A    -11.226100     5A    -11.224742     6A    -11.221555
       7A     -1.102905     8A     -1.055273     9A     -0.969591
      10A     -0.888502    11A     -0.763833    12A     -0.750594
      13A     -0.648224    14A     -0.618050    15A     -0.568262
      16A     -0.566004    17A     -0.553575    18A     -0.545826
      19A     -0.512065    20A     -0.488753    21A     -0.487555
      22A     -0.420031    23A     -0.296396

  @DF-RHF Final Energy:  -233.06923246245208

   => Energetics <=

    Nuclear Repulsion Energy =            209.2278328359430759
    One-Electron Energy =                -727.4069460911238139
    Two-Electron Energy =                 285.1098807927286316
    Total Energy =                       -233.0692324624520779
  Basis Set: (AUG-CC-PVTZ AUX)
    Blend: AUG-CC-PVTZ-RI
    Molecular point group: c1

    Geometry (in Angstrom), charge = 0, multiplicity = 1:

       Center              X                  Y                   Z               Mass
    ------------   -----------------  -----------------  -----------------  -----------------
         C            0.654298537202    -0.282061861239    -0.000010897659    12.000000000000
         C           -0.681259462798     0.293381138761     0.000016102341    12.000000000000
         C            1.788449537202     0.444207138761     0.000062102341    12.000000000000
         C           -1.815410462798    -0.432887861239    -0.000065897659    12.000000000000
         C            3.168960537202    -0.135351861239     0.000054102341    12.000000000000
         C           -3.103717062798     0.107960538761    -0.000055597659    12.000000000000
         H            0.722142537202    -1.371681861239    -0.000088897659     1.007825032230
         H           -0.749104462798     1.383001138761     0.000100102341     1.007825032230
         H            1.712878537202     1.532663138761     0.000143102341     1.007825032230
         H           -1.739838462798    -1.521343861239    -0.000152897659     1.007825032230
         H            3.134688537202    -1.228511861239    -0.000052897659     1.007825032230
         H            3.735557537202     0.187978138761    -0.880467897659     1.007825032230
         H            3.735500537202     0.187807138761     0.880676102341     1.007825032230
         H           -3.762470462798    -0.176507861239    -0.880664897659     1.007825032230
         H           -3.762508462798    -0.176642861239     0.880480102341     1.007825032230
         H           -3.161650462798     1.239829138761     0.000029102341     1.007825032230

  Basis Set: AUG-CC-PVTZ
    Blend: AUG-CC-PVTZ
  Basis Set: (AUG-CC-PVTZ AUX)
    Blend: AUG-CC-PVTZ-JKFIT
	 Reference Energy          =    -233.0692324624520779 [Eh]
	 Singles Energy            =      -0.0000000000000000 [Eh]
	 Same-Spin Energy          =      -0.2467725103605068 [Eh]
	 Opposite-Spin Energy      =      -0.8832897554531078 [Eh]
	 Correlation Energy        =      -1.1300622658136146 [Eh]
	 Total Energy              =    -234.1992947282656985 [Eh]

	 ================> DF-SCS-MP2 Energies <==================
	-----------------------------------------------------------
	 SCS Same-Spin Scale       =       0.3333333333333333 [-]
	 SCS Opposite-Spin Scale   =       1.2000000000000000 [-]
	 SCS Same-Spin Energy      =      -0.0822575034535023 [Eh]
	 SCS Opposite-Spin Energy  =      -1.0599477065437293 [Eh]
	 SCS Correlation Energy    =      -1.1422052099972315 [Eh]
	 SCS Total Energy          =    -234.2114376724493070 [Eh]
	-----------------------------------------------------------

  Dipole Moment: [D]
     X:    -0.0099      Y:    -0.0046      Z:     0.0000     Total:     0.0109

*** Psi4 exiting successfully. Buy a developer a beer!
