                               Psi4 1.4a3.dev225

  ==> Input File <==

--------------------------------------------------------------------------
#psi4
#
memory 32 gb

molecule  {
0 1
  C        0.6677790    -0.2877210    -0.0000110
  C       -0.6677790     0.2877220     0.0000160
  C        1.8019300     0.4385480     0.0000620
  C       -1.8019300    -0.4385470    -0.0000660
  C        3.1824410    -0.1410110     0.0000540
  C       -3.1824410     0.1410100    -0.0000550
  H        0.7356230    -1.3773410    -0.0000890
  H       -0.7356240     1.3773420     0.0001000
  H        1.7263590     1.5270040     0.0001430
  H       -1.7263580    -1.5270030    -0.0001530
  H        3.1481690    -1.2341710    -0.0000530
  H        3.7490380     0.1823190    -0.8804680
  H        3.7489810     0.1821480     0.8806760
  H       -3.7489900    -0.1821670    -0.8806650
  H       -3.8007308    -0.2118052     0.9608316
  H       -3.1481700     1.2341700     0.0000290
units angstrom
no_reorient  #important for SAPT in psi4, default
symmetry c1  #important for SAPT in psi4, default
}

set PROPERTIES_ORIGIN ["COM"]
properties('MP2/aug-cc-pvtz', properties = ['dipole'])
--------------------------------------------------------------------------

    Molecular point group: c1
  Charge       = 0
  Multiplicity = 1
  Basis Set: AUG-CC-PVTZ
    Blend: AUG-CC-PVTZ
  Basis Set: (AUG-CC-PVTZ AUX)
    Blend: AUG-CC-PVTZ-JKFIT

    Orbital Energies [Eh]
    ---------------------

    Doubly Occupied:

       1A    -11.233156     2A    -11.231650     3A    -11.231474
       4A    -11.227738     5A    -11.226813     6A    -11.221641
       7A     -1.096874     8A     -1.045061     9A     -0.963863
      10A     -0.889374    11A     -0.762417    12A     -0.749409
      13A     -0.644188    14A     -0.611032    15A     -0.566076
      16A     -0.560499    17A     -0.547471    18A     -0.545869
      19A     -0.509331    20A     -0.502430    21A     -0.482976
      22A     -0.422505    23A     -0.298630

  @DF-RHF Final Energy:  -233.07539964950328

   => Energetics <=

    Nuclear Repulsion Energy =            207.5958141827905195
    One-Electron Energy =                -724.2014732365639702
    Two-Electron Energy =                 283.5302594042702253
    Total Energy =                       -233.0753996495032538
  Basis Set: (AUG-CC-PVTZ AUX)
    Blend: AUG-CC-PVTZ-RI
    Molecular point group: c1

    Geometry (in Angstrom), charge = 0, multiplicity = 1:

       Center              X                  Y                   Z               Mass
    ------------   -----------------  -----------------  -----------------  -----------------
         C            0.668413849986    -0.287358869092    -0.000997623783    12.000000000000
         C           -0.667144150014     0.288084130908    -0.000970623783    12.000000000000
         C            1.802564849986     0.438910130908    -0.000924623783    12.000000000000
         C           -1.801295150014    -0.438184869092    -0.001052623783    12.000000000000
         C            3.183075849986    -0.140648869092    -0.000932623783    12.000000000000
         C           -3.181806150014     0.141372130908    -0.001041623783    12.000000000000
         H            0.736257849986    -1.376978869092    -0.001075623783     1.007825032230
         H           -0.734989150014     1.377704130908    -0.000886623783     1.007825032230
         H            1.726993849986     1.527366130908    -0.000843623783     1.007825032230
         H           -1.725723150014    -1.526640869092    -0.001139623783     1.007825032230
         H            3.148803849986    -1.233808869092    -0.001039623783     1.007825032230
         H            3.749672849986     0.182681130908    -0.881454623783     1.007825032230
         H            3.749615849986     0.182510130908     0.879689376217     1.007825032230
         H           -3.748355150014    -0.181804869092    -0.881651623783     1.007825032230
         H           -3.800095950014    -0.211443069092     0.959844976217     1.007825032230
         H           -3.147535150014     1.234532130908    -0.000957623783     1.007825032230

  Basis Set: AUG-CC-PVTZ
    Blend: AUG-CC-PVTZ
  Basis Set: (AUG-CC-PVTZ AUX)
    Blend: AUG-CC-PVTZ-JKFIT
	 Reference Energy          =    -233.0753996495032823 [Eh]
	 Singles Energy            =      -0.0000000000000000 [Eh]
	 Same-Spin Energy          =      -0.2454539198863274 [Eh]
	 Opposite-Spin Energy      =      -0.8826133253122179 [Eh]
	 Correlation Energy        =      -1.1280672451985454 [Eh]
	 Total Energy              =    -234.2034668947018190 [Eh]

	 ================> DF-SCS-MP2 Energies <==================
	-----------------------------------------------------------
	 SCS Same-Spin Scale       =       0.3333333333333333 [-]
	 SCS Opposite-Spin Scale   =       1.2000000000000000 [-]
	 SCS Same-Spin Energy      =      -0.0818179732954425 [Eh]
	 SCS Opposite-Spin Energy  =      -1.0591359903746616 [Eh]
	 SCS Correlation Energy    =      -1.1409539636701040 [Eh]
	 SCS Total Energy          =    -234.2163536131733963 [Eh]
	-----------------------------------------------------------

  Dipole Moment: [D]
     X:     0.0721      Y:     0.0141      Z:    -0.0418     Total:     0.0845

*** Psi4 exiting successfully. Buy a developer a beer!
