                               Psi4 1.4a3.dev225

  ==> Input File <==

--------------------------------------------------------------------------
#psi4
#
memory 32 gb

molecule  {
0 1
  C        0.6677790    -0.2877210    -0.0000110
  C       -0.6677790     0.2877220     0.0000160
  C        1.8019300     0.4385480     0.0000620
  C       -1.8019300    -0.4385470    -0.0000660
  C        3.1824410    -0.1410110     0.0000540
  C       -3.1824410     0.1410100    -0.0000550
  H        0.7356230    -1.3773410    -0.0000890
  H       -0.7356240     1.3773420     0.0001000
  H        1.7263590     1.5270040     0.0001430
  H       -1.7263580    -1.5270030    -0.0001530
  H        3.1481690    -1.2341710    -0.0000530
  H        3.7490380     0.1823190    -0.8804680
  H        3.7489810     0.1821480     0.8806760
  H       -3.7489900    -0.1821670    -0.8806650
  H       -3.6456223    -0.1232955     0.7197768
  H       -3.1481700     1.2341700     0.0000290
units angstrom
no_reorient  #important for SAPT in psi4, default
symmetry c1  #important for SAPT in psi4, default
}

set PROPERTIES_ORIGIN ["COM"]
properties('MP2/aug-cc-pvtz', properties = ['dipole'])
--------------------------------------------------------------------------

    Molecular point group: c1
  Charge       = 0
  Multiplicity = 1
  Basis Set: AUG-CC-PVTZ
    Blend: AUG-CC-PVTZ
  Basis Set: (AUG-CC-PVTZ AUX)
    Blend: AUG-CC-PVTZ-JKFIT

    Orbital Energies [Eh]
    ---------------------

    Doubly Occupied:

       1A    -11.230175     2A    -11.229503     3A    -11.226131
       4A    -11.225236     5A    -11.220818     6A    -11.196322
       7A     -1.097107     8A     -1.050548     9A     -0.977473
      10A     -0.901596    11A     -0.767142    12A     -0.748131
      13A     -0.648492    14A     -0.609795    15A     -0.597781
      16A     -0.564997    17A     -0.556991    18A     -0.545191
      19A     -0.513240    20A     -0.501609    21A     -0.481608
      22A     -0.423321    23A     -0.298576

  @DF-RHF Final Energy:  -233.04811068969249

   => Energetics <=

    Nuclear Repulsion Energy =            208.8970901123718704
    One-Electron Energy =                -726.6668372605823834
    Two-Electron Energy =                 284.7216364585179917
    Total Energy =                       -233.0481106896925212
  Basis Set: (AUG-CC-PVTZ AUX)
    Blend: AUG-CC-PVTZ-RI
    Molecular point group: c1

    Geometry (in Angstrom), charge = 0, multiplicity = 1:

       Center              X                  Y                   Z               Mass
    ------------   -----------------  -----------------  -----------------  -----------------
         C            0.666509298800    -0.288445664813     0.001962247567    12.000000000000
         C           -0.669048701200     0.286997335187     0.001989247567    12.000000000000
         C            1.800660298800     0.437823335187     0.002035247567    12.000000000000
         C           -1.803199701200    -0.439271664813     0.001907247567    12.000000000000
         C            3.181171298800    -0.141735664813     0.002027247567    12.000000000000
         C           -3.183710701200     0.140285335187     0.001918247567    12.000000000000
         H            0.734353298800    -1.378065664813     0.001884247567     1.007825032230
         H           -0.736893701200     1.376617335187     0.002073247567     1.007825032230
         H            1.725089298800     1.526279335187     0.002116247567     1.007825032230
         H           -1.727627701200    -1.527727664813     0.001820247567     1.007825032230
         H            3.146899298800    -1.234895664813     0.001920247567     1.007825032230
         H            3.747768298800     0.181594335187    -0.878494752433     1.007825032230
         H            3.747711298800     0.181423335187     0.882649247567     1.007825032230
         H           -3.750259701200    -0.182891664813    -0.878691752433     1.007825032230
         H           -3.646892001200    -0.124020164813     0.721750047567     1.007825032230
         H           -3.149439701200     1.233445335187     0.002002247567     1.007825032230

  Basis Set: AUG-CC-PVTZ
    Blend: AUG-CC-PVTZ
  Basis Set: (AUG-CC-PVTZ AUX)
    Blend: AUG-CC-PVTZ-JKFIT
	 Reference Energy          =    -233.0481106896924928 [Eh]
	 Singles Energy            =      -0.0000000000000000 [Eh]
	 Same-Spin Energy          =      -0.2456470854332066 [Eh]
	 Opposite-Spin Energy      =      -0.8814739593738452 [Eh]
	 Correlation Energy        =      -1.1271210448070519 [Eh]
	 Total Energy              =    -234.1752317344995333 [Eh]

	 ================> DF-SCS-MP2 Energies <==================
	-----------------------------------------------------------
	 SCS Same-Spin Scale       =       0.3333333333333333 [-]
	 SCS Opposite-Spin Scale   =       1.2000000000000000 [-]
	 SCS Same-Spin Energy      =      -0.0818823618110689 [Eh]
	 SCS Opposite-Spin Energy  =      -1.0577687512486142 [Eh]
	 SCS Correlation Energy    =      -1.1396511130596831 [Eh]
	 SCS Total Energy          =    -234.1877618027521635 [Eh]
	-----------------------------------------------------------

  Dipole Moment: [D]
     X:    -0.0771      Y:    -0.0142      Z:     0.0447     Total:     0.0902

*** Psi4 exiting successfully. Buy a developer a beer!
