                               Psi4 1.4a3.dev225

  ==> Input File <==

--------------------------------------------------------------------------
#psi4
#
memory 32 gb

molecule  {
0 1
  C        0.6677790    -0.2877210    -0.0000110
  C       -0.6677790     0.2877220     0.0000160
  C        1.8019300     0.4385480     0.0000620
  C       -1.8019300    -0.4385470    -0.0000660
  C        3.1824410    -0.1410110     0.0000540
  C       -3.1824410     0.1410100    -0.0000550
  H        0.7356230    -1.3773410    -0.0000890
  H       -0.7356240     1.3773420     0.0001000
  H        1.7263590     1.5270040     0.0001430
  H       -1.7263580    -1.5270030    -0.0001530
  H        3.1481690    -1.2341710    -0.0000530
  H        3.7490380     0.1823190    -0.8804680
  H        3.7489810     0.1821480     0.8806760
  H       -3.7489900    -0.1821670    -0.8806650
  H       -3.7231766    -0.1675504     0.8403042
  H       -3.1481700     1.2341700     0.0000290
units angstrom
no_reorient  #important for SAPT in psi4, default
symmetry c1  #important for SAPT in psi4, default
}

set PROPERTIES_ORIGIN ["COM"]
properties('MP2/aug-cc-pvtz', properties = ['dipole'])
--------------------------------------------------------------------------

    Molecular point group: c1
  Charge       = 0
  Multiplicity = 1
  Basis Set: AUG-CC-PVTZ
    Blend: AUG-CC-PVTZ
  Basis Set: (AUG-CC-PVTZ AUX)
    Blend: AUG-CC-PVTZ-JKFIT

    Orbital Energies [Eh]
    ---------------------

    Doubly Occupied:

       1A    -11.230565     2A    -11.230404     3A    -11.226618
       4A    -11.225779     5A    -11.221070     6A    -11.215047
       7A     -1.096430     8A     -1.046406     9A     -0.968499
      10A     -0.894459    11A     -0.763995    12A     -0.748542
      13A     -0.645040    14A     -0.610001    15A     -0.573410
      16A     -0.565015    17A     -0.557367    18A     -0.545813
      19A     -0.512187    20A     -0.502015    21A     -0.482119
      22A     -0.422958    23A     -0.298443

  @DF-RHF Final Energy:  -233.08073707205406

   => Energetics <=

    Nuclear Repulsion Energy =            208.1770467422441016
    One-Electron Energy =                -725.3512011870459446
    Two-Electron Energy =                 284.0934173727477514
    Total Energy =                       -233.0807370720540916
  Basis Set: (AUG-CC-PVTZ AUX)
    Blend: AUG-CC-PVTZ-RI
    Molecular point group: c1

    Geometry (in Angstrom), charge = 0, multiplicity = 1:

       Center              X                  Y                   Z               Mass
    ------------   -----------------  -----------------  -----------------  -----------------
         C            0.667461575007    -0.287902266339     0.000482311892    12.000000000000
         C           -0.668096424993     0.287540733661     0.000509311892    12.000000000000
         C            1.801612575007     0.438366733661     0.000555311892    12.000000000000
         C           -1.802247424993    -0.438728266339     0.000427311892    12.000000000000
         C            3.182123575007    -0.141192266339     0.000547311892    12.000000000000
         C           -3.182758424993     0.140828733661     0.000438311892    12.000000000000
         H            0.735305575007    -1.377522266339     0.000404311892     1.007825032230
         H           -0.735941424993     1.377160733661     0.000593311892     1.007825032230
         H            1.726041575007     1.526822733661     0.000636311892     1.007825032230
         H           -1.726675424993    -1.527184266339     0.000340311892     1.007825032230
         H            3.147851575007    -1.234352266339     0.000440311892     1.007825032230
         H            3.748720575007     0.182137733661    -0.879974688108     1.007825032230
         H            3.748663575007     0.181966733661     0.881169311892     1.007825032230
         H           -3.749307424993    -0.182348266339    -0.880171688108     1.007825032230
         H           -3.723494024993    -0.167731666339     0.840797511892     1.007825032230
         H           -3.148487424993     1.233988733661     0.000522311892     1.007825032230

  Basis Set: AUG-CC-PVTZ
    Blend: AUG-CC-PVTZ
  Basis Set: (AUG-CC-PVTZ AUX)
    Blend: AUG-CC-PVTZ-JKFIT
	 Reference Energy          =    -233.0807370720540632 [Eh]
	 Singles Energy            =      -0.0000000000000000 [Eh]
	 Same-Spin Energy          =      -0.2455040577712468 [Eh]
	 Opposite-Spin Energy      =      -0.8817405163729399 [Eh]
	 Correlation Energy        =      -1.1272445741441868 [Eh]
	 Total Energy              =    -234.2079816461982489 [Eh]

	 ================> DF-SCS-MP2 Energies <==================
	-----------------------------------------------------------
	 SCS Same-Spin Scale       =       0.3333333333333333 [-]
	 SCS Opposite-Spin Scale   =       1.2000000000000000 [-]
	 SCS Same-Spin Energy      =      -0.0818346859237489 [Eh]
	 SCS Opposite-Spin Energy  =      -1.0580886196475279 [Eh]
	 SCS Correlation Energy    =      -1.1399233055712767 [Eh]
	 SCS Total Energy          =    -234.2206603776253360 [Eh]
	-----------------------------------------------------------

  Dipole Moment: [D]
     X:    -0.0274      Y:    -0.0053      Z:     0.0160     Total:     0.0322

*** Psi4 exiting successfully. Buy a developer a beer!
