                               Psi4 1.4a3.dev225

  ==> Input File <==

--------------------------------------------------------------------------
#psi4
#
memory 32 gb

molecule  {
0 1
  C        0.6677790    -0.2877210    -0.0000110
  C       -0.6677790     0.2877220     0.0000160
  C        1.8019300     0.4385480     0.0000620
  C       -1.8019300    -0.4385470    -0.0000660
  C        3.1824410    -0.1410110     0.0000540
  C       -3.2285432     0.1603643    -0.0000546
  H        0.7356230    -1.3773410    -0.0000890
  H       -0.7356240     1.3773420     0.0001000
  H        1.7263590     1.5270040     0.0001430
  H       -1.7263580    -1.5270030    -0.0001530
  H        3.1481690    -1.2341710    -0.0000530
  H        3.7490380     0.1823190    -0.8804680
  H        3.7489810     0.1821480     0.8806760
  H       -3.7489900    -0.1821670    -0.8806650
  H       -3.7490280    -0.1823020     0.8804800
  H       -3.1481700     1.2341700     0.0000290
units angstrom
no_reorient  #important for SAPT in psi4, default
symmetry c1  #important for SAPT in psi4, default
}

set PROPERTIES_ORIGIN ["COM"]
properties('MP2/aug-cc-pvtz', properties = ['dipole'])
--------------------------------------------------------------------------

    Molecular point group: c1
  Charge       = 0
  Multiplicity = 1
  Basis Set: AUG-CC-PVTZ
    Blend: AUG-CC-PVTZ
  Basis Set: (AUG-CC-PVTZ AUX)
    Blend: AUG-CC-PVTZ-JKFIT

    Orbital Energies [Eh]
    ---------------------

    Doubly Occupied:

       1A    -11.232827     2A    -11.230614     3A    -11.226792
       4A    -11.225957     5A    -11.221103     6A    -11.219905
       7A     -1.094556     8A     -1.041670     9A     -0.965388
      10A     -0.894435    11A     -0.762824    12A     -0.747986
      13A     -0.643312    14A     -0.607897    15A     -0.572324
      16A     -0.565014    17A     -0.557379    18A     -0.542691
      19A     -0.515946    20A     -0.501093    21A     -0.477097
      22A     -0.423753    23A     -0.299100

  @DF-RHF Final Energy:  -233.08013057387831

   => Energetics <=

    Nuclear Repulsion Energy =            207.3825746430630090
    One-Electron Energy =                -723.7860824552493568
    Two-Electron Energy =                 283.3233772383080691
    Total Energy =                       -233.0801305738783071
  Basis Set: (AUG-CC-PVTZ AUX)
    Blend: AUG-CC-PVTZ-RI
    Molecular point group: c1

    Geometry (in Angstrom), charge = 0, multiplicity = 1:

       Center              X                  Y                   Z               Mass
    ------------   -----------------  -----------------  -----------------  -----------------
         C            0.674519231399    -0.290550770265    -0.000011058481    12.000000000000
         C           -0.661038768601     0.284892229735     0.000015941519    12.000000000000
         C            1.808670231399     0.435718229735     0.000061941519    12.000000000000
         C           -1.795189768601    -0.441376770265    -0.000066058481    12.000000000000
         C            3.189181231399    -0.143840770265     0.000053941519    12.000000000000
         C           -3.221802968601     0.157534529735    -0.000054658481    12.000000000000
         H            0.742363231399    -1.380170770265    -0.000089058481     1.007825032230
         H           -0.728883768601     1.374512229735     0.000099941519     1.007825032230
         H            1.733099231399     1.524174229735     0.000142941519     1.007825032230
         H           -1.719617768601    -1.529832770265    -0.000153058481     1.007825032230
         H            3.154909231399    -1.237000770265    -0.000053058481     1.007825032230
         H            3.755778231399     0.179489229735    -0.880468058481     1.007825032230
         H            3.755721231399     0.179318229735     0.880675941519     1.007825032230
         H           -3.742249768601    -0.184996770265    -0.880665058481     1.007825032230
         H           -3.742287768601    -0.185131770265     0.880479941519     1.007825032230
         H           -3.141429768601     1.231340229735     0.000028941519     1.007825032230

  Basis Set: AUG-CC-PVTZ
    Blend: AUG-CC-PVTZ
  Basis Set: (AUG-CC-PVTZ AUX)
    Blend: AUG-CC-PVTZ-JKFIT
	 Reference Energy          =    -233.0801305738783071 [Eh]
	 Singles Energy            =      -0.0000000000000000 [Eh]
	 Same-Spin Energy          =      -0.2451488045809787 [Eh]
	 Opposite-Spin Energy      =      -0.8818264772737893 [Eh]
	 Correlation Energy        =      -1.1269752818547678 [Eh]
	 Total Energy              =    -234.2071058557330616 [Eh]

	 ================> DF-SCS-MP2 Energies <==================
	-----------------------------------------------------------
	 SCS Same-Spin Scale       =       0.3333333333333333 [-]
	 SCS Opposite-Spin Scale   =       1.2000000000000000 [-]
	 SCS Same-Spin Energy      =      -0.0817162681936595 [Eh]
	 SCS Opposite-Spin Energy  =      -1.0581917727285470 [Eh]
	 SCS Correlation Energy    =      -1.1399080409222067 [Eh]
	 SCS Total Energy          =    -234.2200386148005009 [Eh]
	-----------------------------------------------------------

  Dipole Moment: [D]
     X:     0.0132      Y:     0.0001      Z:     0.0000     Total:     0.0132

*** Psi4 exiting successfully. Buy a developer a beer!
