                               Psi4 1.4a3.dev225

  ==> Input File <==

--------------------------------------------------------------------------
#psi4
#
memory 32 gb

molecule  {
0 1
  C        0.6677790    -0.2877210    -0.0000110
  C       -0.6677790     0.2877220     0.0000160
  C        1.8019300     0.4385480     0.0000620
  C       -1.8257700    -0.4859103    -0.0901199
  C        3.1824410    -0.1410110     0.0000540
  C       -3.1824410     0.1410100    -0.0000550
  H        0.7356230    -1.3773410    -0.0000890
  H       -0.7356240     1.3773420     0.0001000
  H        1.7263590     1.5270040     0.0001430
  H       -1.7263580    -1.5270030    -0.0001530
  H        3.1481690    -1.2341710    -0.0000530
  H        3.7490380     0.1823190    -0.8804680
  H        3.7489810     0.1821480     0.8806760
  H       -3.7489900    -0.1821670    -0.8806650
  H       -3.7490280    -0.1823020     0.8804800
  H       -3.1481700     1.2341700     0.0000290
units angstrom
no_reorient  #important for SAPT in psi4, default
symmetry c1  #important for SAPT in psi4, default
}

set PROPERTIES_ORIGIN ["COM"]
properties('MP2/aug-cc-pvtz', properties = ['dipole'])
--------------------------------------------------------------------------

    Molecular point group: c1
  Charge       = 0
  Multiplicity = 1
  Basis Set: AUG-CC-PVTZ
    Blend: AUG-CC-PVTZ
  Basis Set: (AUG-CC-PVTZ AUX)
    Blend: AUG-CC-PVTZ-JKFIT

    Orbital Energies [Eh]
    ---------------------

    Doubly Occupied:

       1A    -11.234630     2A    -11.233220     3A    -11.231066
       4A    -11.226538     5A    -11.221395     6A    -11.220959
       7A     -1.092863     8A     -1.043178     9A     -0.966181
      10A     -0.887366    11A     -0.769819    12A     -0.750430
      13A     -0.642786    14A     -0.609685    15A     -0.567446
      16A     -0.564731    17A     -0.554046    18A     -0.545338
      19A     -0.511223    20A     -0.505916    21A     -0.485116
      22A     -0.418139    23A     -0.292232

  @DF-RHF Final Energy:  -233.07323873818598

   => Energetics <=

    Nuclear Repulsion Energy =            207.3773075239161017
    One-Electron Energy =                -723.7524823679231076
    Two-Electron Energy =                 283.3019361058210279
    Total Energy =                       -233.0732387381859780
  Basis Set: (AUG-CC-PVTZ AUX)
    Blend: AUG-CC-PVTZ-RI
    Molecular point group: c1

    Geometry (in Angstrom), charge = 0, multiplicity = 1:

       Center              X                  Y                   Z               Mass
    ------------   -----------------  -----------------  -----------------  -----------------
         C            0.671264454415    -0.280796527249     0.013155055511    12.000000000000
         C           -0.664293545585     0.294646472751     0.013182055511    12.000000000000
         C            1.805415454415     0.445472472751     0.013228055511    12.000000000000
         C           -1.822284545585    -0.478985827249    -0.076953844489    12.000000000000
         C            3.185926454415    -0.134086527249     0.013220055511    12.000000000000
         C           -3.178955545585     0.147934472751     0.013111055511    12.000000000000
         H            0.739108454415    -1.370416527249     0.013077055511     1.007825032230
         H           -0.732138545585     1.384266472751     0.013266055511     1.007825032230
         H            1.729844454415     1.533928472751     0.013309055511     1.007825032230
         H           -1.722872545585    -1.520078527249     0.013013055511     1.007825032230
         H            3.151654454415    -1.227246527249     0.013113055511     1.007825032230
         H            3.752523454415     0.189243472751    -0.867301944489     1.007825032230
         H            3.752466454415     0.189072472751     0.893842055511     1.007825032230
         H           -3.745504545585    -0.175242527249    -0.867498944489     1.007825032230
         H           -3.745542545585    -0.175377527249     0.893646055511     1.007825032230
         H           -3.144684545585     1.241094472751     0.013195055511     1.007825032230

  Basis Set: AUG-CC-PVTZ
    Blend: AUG-CC-PVTZ
  Basis Set: (AUG-CC-PVTZ AUX)
    Blend: AUG-CC-PVTZ-JKFIT
	 Reference Energy          =    -233.0732387381859780 [Eh]
	 Singles Energy            =      -0.0000000000000000 [Eh]
	 Same-Spin Energy          =      -0.2461588117815361 [Eh]
	 Opposite-Spin Energy      =      -0.8836155247396816 [Eh]
	 Correlation Energy        =      -1.1297743365212178 [Eh]
	 Total Energy              =    -234.2030130747072008 [Eh]

	 ================> DF-SCS-MP2 Energies <==================
	-----------------------------------------------------------
	 SCS Same-Spin Scale       =       0.3333333333333333 [-]
	 SCS Opposite-Spin Scale   =       1.2000000000000000 [-]
	 SCS Same-Spin Energy      =      -0.0820529372605120 [Eh]
	 SCS Opposite-Spin Energy  =      -1.0603386296876178 [Eh]
	 SCS Correlation Energy    =      -1.1423915669481299 [Eh]
	 SCS Total Energy          =    -234.2156303051341126 [Eh]
	-----------------------------------------------------------

  Dipole Moment: [D]
     X:     0.0367      Y:    -0.0013      Z:     0.1018     Total:     0.1083

*** Psi4 exiting successfully. Buy a developer a beer!
