                               Psi4 1.4a3.dev225

  ==> Input File <==

--------------------------------------------------------------------------
#psi4
#
memory 32 gb

molecule  {
0 1
  C        0.6677790    -0.2877210    -0.0000110
  C       -0.6677790     0.2877220     0.0000160
  C        1.8019300     0.4385480     0.0000620
  C       -1.8019300    -0.4385470    -0.0000660
  C        3.1824410    -0.1410110     0.0000540
  C       -3.1640001     0.1332683    -0.0000551
  H        0.7356230    -1.3773410    -0.0000890
  H       -0.7356240     1.3773420     0.0001000
  H        1.7263590     1.5270040     0.0001430
  H       -1.7263580    -1.5270030    -0.0001530
  H        3.1481690    -1.2341710    -0.0000530
  H        3.7490380     0.1823190    -0.8804680
  H        3.7489810     0.1821480     0.8806760
  H       -3.7489900    -0.1821670    -0.8806650
  H       -3.7490280    -0.1823020     0.8804800
  H       -3.1481700     1.2341700     0.0000290
units angstrom
no_reorient  #important for SAPT in psi4, default
symmetry c1  #important for SAPT in psi4, default
}

set PROPERTIES_ORIGIN ["COM"]
properties('MP2/aug-cc-pvtz', properties = ['dipole'])
--------------------------------------------------------------------------

    Molecular point group: c1
  Charge       = 0
  Multiplicity = 1
  Basis Set: AUG-CC-PVTZ
    Blend: AUG-CC-PVTZ
  Basis Set: (AUG-CC-PVTZ AUX)
    Blend: AUG-CC-PVTZ-JKFIT

    Orbital Energies [Eh]
    ---------------------

    Doubly Occupied:

       1A    -11.230894     2A    -11.229918     3A    -11.226947
       4A    -11.226130     5A    -11.221950     6A    -11.221277
       7A     -1.097433     8A     -1.047493     9A     -0.967070
      10A     -0.891691    11A     -0.763463    12A     -0.749113
      13A     -0.645138    14A     -0.611489    15A     -0.566181
      16A     -0.562057    17A     -0.558267    18A     -0.546549
      19A     -0.510575    20A     -0.501316    21A     -0.483854
      22A     -0.422380    23A     -0.298152

  @DF-RHF Final Energy:  -233.08104848799542

   => Energetics <=

    Nuclear Repulsion Energy =            208.2124234641888165
    One-Electron Energy =                -725.4282700606127037
    Two-Electron Energy =                 284.1347981084285266
    Total Energy =                       -233.0810484879954174
  Basis Set: (AUG-CC-PVTZ AUX)
    Blend: AUG-CC-PVTZ-RI
    Molecular point group: c1

    Geometry (in Angstrom), charge = 0, multiplicity = 1:

       Center              X                  Y                   Z               Mass
    ------------   -----------------  -----------------  -----------------  -----------------
         C            0.665082904516    -0.286589282310    -0.000010985380    12.000000000000
         C           -0.670475095484     0.288853717690     0.000016014620    12.000000000000
         C            1.799233904516     0.439679717690     0.000062014620    12.000000000000
         C           -1.804626095484    -0.437415282310    -0.000065985380    12.000000000000
         C            3.179744904516    -0.139879282310     0.000054014620    12.000000000000
         C           -3.166696195484     0.134400017690    -0.000055085380    12.000000000000
         H            0.732926904516    -1.376209282310    -0.000088985380     1.007825032230
         H           -0.738320095484     1.378473717690     0.000100014620     1.007825032230
         H            1.723662904516     1.528135717690     0.000143014620     1.007825032230
         H           -1.729054095484    -1.525871282310    -0.000152985380     1.007825032230
         H            3.145472904516    -1.233039282310    -0.000052985380     1.007825032230
         H            3.746341904516     0.183450717690    -0.880467985380     1.007825032230
         H            3.746284904516     0.183279717690     0.880676014620     1.007825032230
         H           -3.751686095484    -0.181035282310    -0.880664985380     1.007825032230
         H           -3.751724095484    -0.181170282310     0.880480014620     1.007825032230
         H           -3.150866095484     1.235301717690     0.000029014620     1.007825032230

  Basis Set: AUG-CC-PVTZ
    Blend: AUG-CC-PVTZ
  Basis Set: (AUG-CC-PVTZ AUX)
    Blend: AUG-CC-PVTZ-JKFIT
	 Reference Energy          =    -233.0810484879954174 [Eh]
	 Singles Energy            =      -0.0000000000000000 [Eh]
	 Same-Spin Energy          =      -0.2456709349008618 [Eh]
	 Opposite-Spin Energy      =      -0.8821336251154793 [Eh]
	 Correlation Energy        =      -1.1278045600163411 [Eh]
	 Total Energy              =    -234.2088530480117470 [Eh]

	 ================> DF-SCS-MP2 Energies <==================
	-----------------------------------------------------------
	 SCS Same-Spin Scale       =       0.3333333333333333 [-]
	 SCS Opposite-Spin Scale   =       1.2000000000000000 [-]
	 SCS Same-Spin Energy      =      -0.0818903116336206 [Eh]
	 SCS Opposite-Spin Energy  =      -1.0585603501385752 [Eh]
	 SCS Correlation Energy    =      -1.1404506617721957 [Eh]
	 SCS Total Energy          =    -234.2214991497676237 [Eh]
	-----------------------------------------------------------

  Dipole Moment: [D]
     X:    -0.0038      Y:    -0.0004      Z:     0.0000     Total:     0.0038

*** Psi4 exiting successfully. Buy a developer a beer!
