                               Psi4 1.4a3.dev225

  ==> Input File <==

--------------------------------------------------------------------------
#psi4
#
memory 32 gb

molecule  {
0 1
  C        0.6677790    -0.2877210    -0.0000110
  C       -0.6677790     0.2877220     0.0000160
  C        1.8019300     0.4385480     0.0000620
  C       -1.8019300    -0.4385470    -0.0000660
  C        3.1824410    -0.1410110     0.0000540
  C       -3.1824410     0.1410100    -0.0000550
  H        0.7356230    -1.3773410    -0.0000890
  H       -0.7387312     1.4272454     0.0001038
  H        1.7263590     1.5270040     0.0001430
  H       -1.7263580    -1.5270030    -0.0001530
  H        3.1481690    -1.2341710    -0.0000530
  H        3.7490380     0.1823190    -0.8804680
  H        3.7489810     0.1821480     0.8806760
  H       -3.7489900    -0.1821670    -0.8806650
  H       -3.7490280    -0.1823020     0.8804800
  H       -3.1481700     1.2341700     0.0000290
units angstrom
no_reorient  #important for SAPT in psi4, default
symmetry c1  #important for SAPT in psi4, default
}

set PROPERTIES_ORIGIN ["COM"]
properties('MP2/aug-cc-pvtz', properties = ['dipole'])
--------------------------------------------------------------------------

    Molecular point group: c1
  Charge       = 0
  Multiplicity = 1
  Basis Set: AUG-CC-PVTZ
    Blend: AUG-CC-PVTZ
  Basis Set: (AUG-CC-PVTZ AUX)
    Blend: AUG-CC-PVTZ-JKFIT

    Orbital Energies [Eh]
    ---------------------

    Doubly Occupied:

       1A    -11.232909     2A    -11.231069     3A    -11.230739
       4A    -11.226990     5A    -11.221367     6A    -11.221189
       7A     -1.095775     8A     -1.045688     9A     -0.966181
      10A     -0.892236    11A     -0.762899    12A     -0.743531
      13A     -0.644348    14A     -0.608316    15A     -0.566962
      16A     -0.563919    17A     -0.556621    18A     -0.542849
      19A     -0.511760    20A     -0.501735    21A     -0.480400
      22A     -0.423209    23A     -0.298737

  @DF-RHF Final Energy:  -233.07932029637706

   => Energetics <=

    Nuclear Repulsion Energy =            207.7579605032799464
    One-Electron Energy =                -724.5357025733666205
    Two-Electron Energy =                 283.6984217737095832
    Total Energy =                       -233.0793202963770909
  Basis Set: (AUG-CC-PVTZ AUX)
    Blend: AUG-CC-PVTZ-RI
    Molecular point group: c1

    Geometry (in Angstrom), charge = 0, multiplicity = 1:

       Center              X                  Y                   Z               Mass
    ------------   -----------------  -----------------  -----------------  -----------------
         C            0.667817152786    -0.288333889379    -0.000011046660    12.000000000000
         C           -0.667740847214     0.287109110621     0.000015953340    12.000000000000
         C            1.801968152786     0.437935110621     0.000061953340    12.000000000000
         C           -1.801891847214    -0.439159889379    -0.000066046660    12.000000000000
         C            3.182479152786    -0.141623889379     0.000053953340    12.000000000000
         C           -3.182402847214     0.140397110621    -0.000055046660    12.000000000000
         H            0.735661152786    -1.377953889379    -0.000089046660     1.007825032230
         H           -0.738693047214     1.426632510621     0.000103753340     1.007825032230
         H            1.726397152786     1.526391110621     0.000142953340     1.007825032230
         H           -1.726319847214    -1.527615889379    -0.000153046660     1.007825032230
         H            3.148207152786    -1.234783889379    -0.000053046660     1.007825032230
         H            3.749076152786     0.181706110621    -0.880468046660     1.007825032230
         H            3.749019152786     0.181535110621     0.880675953340     1.007825032230
         H           -3.748951847214    -0.182779889379    -0.880665046660     1.007825032230
         H           -3.748989847214    -0.182914889379     0.880479953340     1.007825032230
         H           -3.148131847214     1.233557110621     0.000028953340     1.007825032230

  Basis Set: AUG-CC-PVTZ
    Blend: AUG-CC-PVTZ
  Basis Set: (AUG-CC-PVTZ AUX)
    Blend: AUG-CC-PVTZ-JKFIT
	 Reference Energy          =    -233.0793202963770625 [Eh]
	 Singles Energy            =      -0.0000000000000000 [Eh]
	 Same-Spin Energy          =      -0.2456127541383329 [Eh]
	 Opposite-Spin Energy      =      -0.8823841984177290 [Eh]
	 Correlation Energy        =      -1.1279969525560618 [Eh]
	 Total Energy              =    -234.2073172489331228 [Eh]

	 ================> DF-SCS-MP2 Energies <==================
	-----------------------------------------------------------
	 SCS Same-Spin Scale       =       0.3333333333333333 [-]
	 SCS Opposite-Spin Scale   =       1.2000000000000000 [-]
	 SCS Same-Spin Energy      =      -0.0818709180461110 [Eh]
	 SCS Opposite-Spin Energy  =      -1.0588610381012746 [Eh]
	 SCS Correlation Energy    =      -1.1407319561473857 [Eh]
	 SCS Total Energy          =    -234.2200522525244537 [Eh]
	-----------------------------------------------------------

  Dipole Moment: [D]
     X:     0.0125      Y:    -0.0248      Z:     0.0000     Total:     0.0278

*** Psi4 exiting successfully. Buy a developer a beer!
