                               Psi4 1.4a3.dev225

  ==> Input File <==

--------------------------------------------------------------------------
#psi4
#
memory 32 gb

molecule  {
0 1
  C        0.6677790    -0.2877210    -0.0000110
  C       -0.6861466     0.2956359     0.0000164
  C        1.8019300     0.4385480     0.0000620
  C       -1.8019300    -0.4385470    -0.0000660
  C        3.1824410    -0.1410110     0.0000540
  C       -3.1824410     0.1410100    -0.0000550
  H        0.7356230    -1.3773410    -0.0000890
  H       -0.7356240     1.3773420     0.0001000
  H        1.7263590     1.5270040     0.0001430
  H       -1.7263580    -1.5270030    -0.0001530
  H        3.1481690    -1.2341710    -0.0000530
  H        3.7490380     0.1823190    -0.8804680
  H        3.7489810     0.1821480     0.8806760
  H       -3.7489900    -0.1821670    -0.8806650
  H       -3.7490280    -0.1823020     0.8804800
  H       -3.1481700     1.2341700     0.0000290
units angstrom
no_reorient  #important for SAPT in psi4, default
symmetry c1  #important for SAPT in psi4, default
}

set PROPERTIES_ORIGIN ["COM"]
properties('MP2/aug-cc-pvtz', properties = ['dipole'])
--------------------------------------------------------------------------

    Molecular point group: c1
  Charge       = 0
  Multiplicity = 1
  Basis Set: AUG-CC-PVTZ
    Blend: AUG-CC-PVTZ
  Basis Set: (AUG-CC-PVTZ AUX)
    Blend: AUG-CC-PVTZ-JKFIT

    Orbital Energies [Eh]
    ---------------------

    Doubly Occupied:

       1A    -11.230475     2A    -11.229333     3A    -11.227475
       4A    -11.225525     5A    -11.221054     6A    -11.220641
       7A     -1.095524     8A     -1.046709     9A     -0.964523
      10A     -0.893253    11A     -0.761901    12A     -0.749658
      13A     -0.643294    14A     -0.610651    15A     -0.566706
      16A     -0.563725    17A     -0.556555    18A     -0.548225
      19A     -0.512191    20A     -0.502611    21A     -0.479449
      22A     -0.421263    23A     -0.301302

  @DF-RHF Final Energy:  -233.08213547539339

   => Energetics <=

    Nuclear Repulsion Energy =            207.9026129723212648
    One-Electron Energy =                -724.8254101258409037
    Two-Electron Energy =                 283.8406616781263097
    Total Energy =                       -233.0821354753933861
  Basis Set: (AUG-CC-PVTZ AUX)
    Blend: AUG-CC-PVTZ-RI
    Molecular point group: c1

    Geometry (in Angstrom), charge = 0, multiplicity = 1:

       Center              X                  Y                   Z               Mass
    ------------   -----------------  -----------------  -----------------  -----------------
         C            0.670464378881    -0.288878161511    -0.000011058481    12.000000000000
         C           -0.683461221119     0.294478738489     0.000016341519    12.000000000000
         C            1.804615378881     0.437390838489     0.000061941519    12.000000000000
         C           -1.799244621119    -0.439704161511    -0.000066058481    12.000000000000
         C            3.185126378881    -0.142168161511     0.000053941519    12.000000000000
         C           -3.179755621119     0.139852838489    -0.000055058481    12.000000000000
         H            0.738308378881    -1.378498161511    -0.000089058481     1.007825032230
         H           -0.732938621119     1.376184838489     0.000099941519     1.007825032230
         H            1.729044378881     1.525846838489     0.000142941519     1.007825032230
         H           -1.723672621119    -1.528160161511    -0.000153058481     1.007825032230
         H            3.150854378881    -1.235328161511    -0.000053058481     1.007825032230
         H            3.751723378881     0.181161838489    -0.880468058481     1.007825032230
         H            3.751666378881     0.180990838489     0.880675941519     1.007825032230
         H           -3.746304621119    -0.183324161511    -0.880665058481     1.007825032230
         H           -3.746342621119    -0.183459161511     0.880479941519     1.007825032230
         H           -3.145484621119     1.233012838489     0.000028941519     1.007825032230

  Basis Set: AUG-CC-PVTZ
    Blend: AUG-CC-PVTZ
  Basis Set: (AUG-CC-PVTZ AUX)
    Blend: AUG-CC-PVTZ-JKFIT
	 Reference Energy          =    -233.0821354753933861 [Eh]
	 Singles Energy            =      -0.0000000000000000 [Eh]
	 Same-Spin Energy          =      -0.2451090635833592 [Eh]
	 Opposite-Spin Energy      =      -0.8814825451646124 [Eh]
	 Correlation Energy        =      -1.1265916087479717 [Eh]
	 Total Energy              =    -234.2087270841413442 [Eh]

	 ================> DF-SCS-MP2 Energies <==================
	-----------------------------------------------------------
	 SCS Same-Spin Scale       =       0.3333333333333333 [-]
	 SCS Opposite-Spin Scale   =       1.2000000000000000 [-]
	 SCS Same-Spin Energy      =      -0.0817030211944531 [Eh]
	 SCS Opposite-Spin Energy  =      -1.0577790541975349 [Eh]
	 SCS Correlation Energy    =      -1.1394820753919881 [Eh]
	 SCS Total Energy          =    -234.2216175507853677 [Eh]
	-----------------------------------------------------------

  Dipole Moment: [D]
     X:    -0.0070      Y:     0.0008      Z:     0.0000     Total:     0.0070

*** Psi4 exiting successfully. Buy a developer a beer!
