                               Psi4 1.4a3.dev225

  ==> Input File <==

--------------------------------------------------------------------------
#psi4
#
memory 32 gb

molecule  {
0 1
  C        0.6677790    -0.2877210    -0.0000110
  C       -0.6677790     0.2877220     0.0000160
  C        1.8019300     0.4385480     0.0000620
  C       -1.8019300    -0.4385470    -0.0000660
  C        3.1824410    -0.1410110     0.0000540
  C       -3.2746454     0.1797186    -0.0000543
  H        0.7356230    -1.3773410    -0.0000890
  H       -0.7356240     1.3773420     0.0001000
  H        1.7263590     1.5270040     0.0001430
  H       -1.7263580    -1.5270030    -0.0001530
  H        3.1481690    -1.2341710    -0.0000530
  H        3.7490380     0.1823190    -0.8804680
  H        3.7489810     0.1821480     0.8806760
  H       -3.7489900    -0.1821670    -0.8806650
  H       -3.7490280    -0.1823020     0.8804800
  H       -3.1481700     1.2341700     0.0000290
units angstrom
no_reorient  #important for SAPT in psi4, default
symmetry c1  #important for SAPT in psi4, default
}

set PROPERTIES_ORIGIN ["COM"]
properties('MP2/aug-cc-pvtz', properties = ['dipole'])
--------------------------------------------------------------------------

    Molecular point group: c1
  Charge       = 0
  Multiplicity = 1
  Basis Set: AUG-CC-PVTZ
    Blend: AUG-CC-PVTZ
  Basis Set: (AUG-CC-PVTZ AUX)
    Blend: AUG-CC-PVTZ-JKFIT

    Orbital Energies [Eh]
    ---------------------

    Doubly Occupied:

       1A    -11.234525     2A    -11.230459     3A    -11.226703
       4A    -11.225864     5A    -11.221004     6A    -11.219373
       7A     -1.093135     8A     -1.038168     9A     -0.964502
      10A     -0.896266    11A     -0.762328    12A     -0.747263
      13A     -0.642395    14A     -0.606348    15A     -0.579098
      16A     -0.565071    17A     -0.561341    18A     -0.538317
      19A     -0.519792    20A     -0.499016    21A     -0.469074
      22A     -0.424423    23A     -0.299541

  @DF-RHF Final Energy:  -233.07449249005640

   => Energetics <=

    Nuclear Repulsion Energy =            206.8150630706244044
    One-Electron Energy =                -722.6510996341644386
    Two-Electron Energy =                 282.7615440734836056
    Total Energy =                       -233.0744924900564001
  Basis Set: (AUG-CC-PVTZ AUX)
    Blend: AUG-CC-PVTZ-RI
    Molecular point group: c1

    Geometry (in Angstrom), charge = 0, multiplicity = 1:

       Center              X                  Y                   Z               Mass
    ------------   -----------------  -----------------  -----------------  -----------------
         C            0.681259462798    -0.293380406607    -0.000011102341    12.000000000000
         C           -0.654298537202     0.282062593393     0.000015897659    12.000000000000
         C            1.815410462798     0.432888593393     0.000061897659    12.000000000000
         C           -1.788449537202    -0.444206406607    -0.000066102341    12.000000000000
         C            3.195921462798    -0.146670406607     0.000053897659    12.000000000000
         C           -3.261164937202     0.174059193393    -0.000054402341    12.000000000000
         H            0.749103462798    -1.383000406607    -0.000089102341     1.007825032230
         H           -0.722143537202     1.371682593393     0.000099897659     1.007825032230
         H            1.739839462798     1.521344593393     0.000142897659     1.007825032230
         H           -1.712877537202    -1.532662406607    -0.000153102341     1.007825032230
         H            3.161649462798    -1.239830406607    -0.000053102341     1.007825032230
         H            3.762518462798     0.176659593393    -0.880468102341     1.007825032230
         H            3.762461462798     0.176488593393     0.880675897659     1.007825032230
         H           -3.735509537202    -0.187826406607    -0.880665102341     1.007825032230
         H           -3.735547537202    -0.187961406607     0.880479897659     1.007825032230
         H           -3.134689537202     1.228510593393     0.000028897659     1.007825032230

  Basis Set: AUG-CC-PVTZ
    Blend: AUG-CC-PVTZ
  Basis Set: (AUG-CC-PVTZ AUX)
    Blend: AUG-CC-PVTZ-JKFIT
	 Reference Energy          =    -233.0744924900564001 [Eh]
	 Singles Energy            =      -0.0000000000000000 [Eh]
	 Same-Spin Energy          =      -0.2449963990893916 [Eh]
	 Opposite-Spin Energy      =      -0.8819706285389544 [Eh]
	 Correlation Energy        =      -1.1269670276283459 [Eh]
	 Total Energy              =    -234.2014595176847536 [Eh]

	 ================> DF-SCS-MP2 Energies <==================
	-----------------------------------------------------------
	 SCS Same-Spin Scale       =       0.3333333333333333 [-]
	 SCS Opposite-Spin Scale   =       1.2000000000000000 [-]
	 SCS Same-Spin Energy      =      -0.0816654663631305 [Eh]
	 SCS Opposite-Spin Energy  =      -1.0583647542467451 [Eh]
	 SCS Correlation Energy    =      -1.1400302206098756 [Eh]
	 SCS Total Energy          =    -234.2145227106662730 [Eh]
	-----------------------------------------------------------

  Dipole Moment: [D]
     X:     0.0321      Y:    -0.0012      Z:     0.0000     Total:     0.0321

*** Psi4 exiting successfully. Buy a developer a beer!
