                               Psi4 1.4a3.dev225

  ==> Input File <==

--------------------------------------------------------------------------
#psi4
#
memory 32 gb

molecule  {
0 1
  C        0.6677790    -0.2877210    -0.0000110
  C       -0.6677790     0.2877220     0.0000160
  C        1.8019300     0.4385480     0.0000620
  C       -1.8019300    -0.4385470    -0.0000660
  C        3.1824410    -0.1410110     0.0000540
  C       -3.1824410     0.1410100    -0.0000550
  H        0.7356230    -1.3773410    -0.0000890
  H       -0.7325168     1.3274386     0.0000962
  H        1.7263590     1.5270040     0.0001430
  H       -1.7263580    -1.5270030    -0.0001530
  H        3.1481690    -1.2341710    -0.0000530
  H        3.7490380     0.1823190    -0.8804680
  H        3.7489810     0.1821480     0.8806760
  H       -3.7489900    -0.1821670    -0.8806650
  H       -3.7490280    -0.1823020     0.8804800
  H       -3.1481700     1.2341700     0.0000290
units angstrom
no_reorient  #important for SAPT in psi4, default
symmetry c1  #important for SAPT in psi4, default
}

set PROPERTIES_ORIGIN ["COM"]
properties('MP2/aug-cc-pvtz', properties = ['dipole'])
--------------------------------------------------------------------------

    Molecular point group: c1
  Charge       = 0
  Multiplicity = 1
  Basis Set: AUG-CC-PVTZ
    Blend: AUG-CC-PVTZ
  Basis Set: (AUG-CC-PVTZ AUX)
    Blend: AUG-CC-PVTZ-JKFIT

    Orbital Energies [Eh]
    ---------------------

    Doubly Occupied:

       1A    -11.230562     2A    -11.230361     3A    -11.226040
       4A    -11.221279     5A    -11.221088     6A    -11.220489
       7A     -1.097431     8A     -1.045826     9A     -0.967044
      10A     -0.892903    11A     -0.764864    12A     -0.753794
      13A     -0.644852    14A     -0.612414    15A     -0.566822
      16A     -0.563808    17A     -0.557464    18A     -0.549004
      19A     -0.511406    20A     -0.502666    21A     -0.483819
      22A     -0.422517    23A     -0.298248

  @DF-RHF Final Energy:  -233.08099409706236

   => Energetics <=

    Nuclear Repulsion Energy =            208.1962365612698420
    One-Electron Energy =                -725.3850577030375462
    Two-Electron Energy =                 284.1078270447053455
    Total Energy =                       -233.0809940970623302
  Basis Set: (AUG-CC-PVTZ AUX)
    Blend: AUG-CC-PVTZ-RI
    Molecular point group: c1

    Geometry (in Angstrom), charge = 0, multiplicity = 1:

       Center              X                  Y                   Z               Mass
    ------------   -----------------  -----------------  -----------------  -----------------
         C            0.667740847214    -0.287108378467    -0.000010953340    12.000000000000
         C           -0.667817152786     0.288334621533     0.000016046660    12.000000000000
         C            1.801891847214     0.439160621533     0.000062046660    12.000000000000
         C           -1.801968152786    -0.437934378467    -0.000065953340    12.000000000000
         C            3.182402847214    -0.140398378467     0.000054046660    12.000000000000
         C           -3.182479152786     0.141622621533    -0.000054953340    12.000000000000
         H            0.735584847214    -1.376728378467    -0.000088953340     1.007825032230
         H           -0.732554952786     1.328051221533     0.000096246660     1.007825032230
         H            1.726320847214     1.527616621533     0.000143046660     1.007825032230
         H           -1.726396152786    -1.526390378467    -0.000152953340     1.007825032230
         H            3.148130847214    -1.233558378467    -0.000052953340     1.007825032230
         H            3.748999847214     0.182931621533    -0.880467953340     1.007825032230
         H            3.748942847214     0.182760621533     0.880676046660     1.007825032230
         H           -3.749028152786    -0.181554378467    -0.880664953340     1.007825032230
         H           -3.749066152786    -0.181689378467     0.880480046660     1.007825032230
         H           -3.148208152786     1.234782621533     0.000029046660     1.007825032230

  Basis Set: AUG-CC-PVTZ
    Blend: AUG-CC-PVTZ
  Basis Set: (AUG-CC-PVTZ AUX)
    Blend: AUG-CC-PVTZ-JKFIT
	 Reference Energy          =    -233.0809940970623586 [Eh]
	 Singles Energy            =      -0.0000000000000000 [Eh]
	 Same-Spin Energy          =      -0.2453693217981645 [Eh]
	 Opposite-Spin Energy      =      -0.8816737203413278 [Eh]
	 Correlation Energy        =      -1.1270430421394924 [Eh]
	 Total Energy              =    -234.2080371392018492 [Eh]

	 ================> DF-SCS-MP2 Energies <==================
	-----------------------------------------------------------
	 SCS Same-Spin Scale       =       0.3333333333333333 [-]
	 SCS Opposite-Spin Scale   =       1.2000000000000000 [-]
	 SCS Same-Spin Energy      =      -0.0817897739327215 [Eh]
	 SCS Opposite-Spin Energy  =      -1.0580084644095933 [Eh]
	 SCS Correlation Energy    =      -1.1397982383423149 [Eh]
	 SCS Total Energy          =    -234.2207923354046670 [Eh]
	-----------------------------------------------------------

  Dipole Moment: [D]
     X:    -0.0124      Y:     0.0212      Z:     0.0000     Total:     0.0246

*** Psi4 exiting successfully. Buy a developer a beer!
