                               Psi4 1.4a3.dev225

  ==> Input File <==

--------------------------------------------------------------------------
#psi4
#
memory 32 gb

molecule  {
0 1
  C        0.6677790    -0.2877210    -0.0000110
  C       -0.6677790     0.2877220     0.0000160
  C        1.8019300     0.4385480     0.0000620
  C       -1.7788081    -0.3622838     0.1348777
  C        3.1824410    -0.1410110     0.0000540
  C       -3.1824410     0.1410100    -0.0000550
  H        0.7356230    -1.3773410    -0.0000890
  H       -0.7356240     1.3773420     0.0001000
  H        1.7263590     1.5270040     0.0001430
  H       -1.7263580    -1.5270030    -0.0001530
  H        3.1481690    -1.2341710    -0.0000530
  H        3.7490380     0.1823190    -0.8804680
  H        3.7489810     0.1821480     0.8806760
  H       -3.7489900    -0.1821670    -0.8806650
  H       -3.7490280    -0.1823020     0.8804800
  H       -3.1481700     1.2341700     0.0000290
units angstrom
no_reorient  #important for SAPT in psi4, default
symmetry c1  #important for SAPT in psi4, default
}

set PROPERTIES_ORIGIN ["COM"]
properties('MP2/aug-cc-pvtz', properties = ['dipole'])
--------------------------------------------------------------------------

    Molecular point group: c1
  Charge       = 0
  Multiplicity = 1
  Basis Set: AUG-CC-PVTZ
    Blend: AUG-CC-PVTZ
  Basis Set: (AUG-CC-PVTZ AUX)
    Blend: AUG-CC-PVTZ-JKFIT

    Orbital Energies [Eh]
    ---------------------

    Doubly Occupied:

       1A    -11.233199     2A    -11.229473     3A    -11.227870
       4A    -11.222495     5A    -11.221730     6A    -11.220888
       7A     -1.102791     8A     -1.049616     9A     -0.967942
      10A     -0.899665    11A     -0.761760    12A     -0.739591
      13A     -0.645558    14A     -0.610124    15A     -0.570552
      16A     -0.566506    17A     -0.557849    18A     -0.546105
      19A     -0.517385    20A     -0.496164    21A     -0.462789
      22A     -0.428937    23A     -0.307537

  @DF-RHF Final Energy:  -233.06944483512027

   => Energetics <=

    Nuclear Repulsion Energy =            208.5575464502633167
    One-Electron Energy =                -726.0809312082577662
    Two-Electron Energy =                 284.4539399228741559
    Total Energy =                       -233.0694448351202936
  Basis Set: (AUG-CC-PVTZ AUX)
    Blend: AUG-CC-PVTZ-RI
    Molecular point group: c1

    Geometry (in Angstrom), charge = 0, multiplicity = 1:

       Center              X                  Y                   Z               Mass
    ------------   -----------------  -----------------  -----------------  -----------------
         C            0.664398533203    -0.298870962244    -0.019740031670    12.000000000000
         C           -0.671159466797     0.276572037756    -0.019713031670    12.000000000000
         C            1.798549533203     0.427398037756    -0.019667031670    12.000000000000
         C           -1.782188566797    -0.373433762244     0.115148668330    12.000000000000
         C            3.179060533203    -0.152160962244    -0.019675031670    12.000000000000
         C           -3.185821466797     0.129860037756    -0.019784031670    12.000000000000
         H            0.732242533203    -1.388490962244    -0.019818031670     1.007825032230
         H           -0.739004466797     1.366192037756    -0.019629031670     1.007825032230
         H            1.722978533203     1.515854037756    -0.019586031670     1.007825032230
         H           -1.729738466797    -1.538152962244    -0.019882031670     1.007825032230
         H            3.144788533203    -1.245320962244    -0.019782031670     1.007825032230
         H            3.745657533203     0.171169037756    -0.900197031670     1.007825032230
         H            3.745600533203     0.170998037756     0.860946968330     1.007825032230
         H           -3.752370466797    -0.193316962244    -0.900394031670     1.007825032230
         H           -3.752408466797    -0.193451962244     0.860750968330     1.007825032230
         H           -3.151550466797     1.223020037756    -0.019700031670     1.007825032230

  Basis Set: AUG-CC-PVTZ
    Blend: AUG-CC-PVTZ
  Basis Set: (AUG-CC-PVTZ AUX)
    Blend: AUG-CC-PVTZ-JKFIT
	 Reference Energy          =    -233.0694448351202652 [Eh]
	 Singles Energy            =      -0.0000000000000000 [Eh]
	 Same-Spin Energy          =      -0.2454876798798447 [Eh]
	 Opposite-Spin Energy      =      -0.8818911796613532 [Eh]
	 Correlation Energy        =      -1.1273788595411980 [Eh]
	 Total Energy              =    -234.1968236946614752 [Eh]

	 ================> DF-SCS-MP2 Energies <==================
	-----------------------------------------------------------
	 SCS Same-Spin Scale       =       0.3333333333333333 [-]
	 SCS Opposite-Spin Scale   =       1.2000000000000000 [-]
	 SCS Same-Spin Energy      =      -0.0818292266266149 [Eh]
	 SCS Opposite-Spin Energy  =      -1.0582694155936239 [Eh]
	 SCS Correlation Energy    =      -1.1400986422202388 [Eh]
	 SCS Total Energy          =    -234.2095434773405032 [Eh]
	-----------------------------------------------------------

  Dipole Moment: [D]
     X:     0.0907      Y:     0.0753      Z:    -0.1457     Total:     0.1874

*** Psi4 exiting successfully. Buy a developer a beer!
