                               Psi4 1.4a3.dev225

  ==> Input File <==

--------------------------------------------------------------------------
#psi4
#
memory 32 gb

molecule  {
0 1
  C        0.6677790    -0.2877210    -0.0000110
  C       -0.6677790     0.2877220     0.0000160
  C        1.8019300     0.4385480     0.0000620
  C       -1.8019300    -0.4385470    -0.0000660
  C        3.1824410    -0.1410110     0.0000540
  C       -3.1824410     0.1410100    -0.0000550
  H        0.7356230    -1.3773410    -0.0000890
  H       -0.7356240     1.3773420     0.0001000
  H        1.7263590     1.5270040     0.0001430
  H       -1.7263580    -1.5270030    -0.0001530
  H        3.1481690    -1.2341710    -0.0000530
  H        3.7490380     0.1823190    -0.8804680
  H        3.7489810     0.1821480     0.8806760
  H       -3.7489900    -0.1821670    -0.8806650
  H       -3.7593686    -0.1882026     0.8965503
  H       -3.1481700     1.2341700     0.0000290
units angstrom
no_reorient  #important for SAPT in psi4, default
symmetry c1  #important for SAPT in psi4, default
}

set PROPERTIES_ORIGIN ["COM"]
properties('MP2/aug-cc-pvtz', properties = ['dipole'])
--------------------------------------------------------------------------

    Molecular point group: c1
  Charge       = 0
  Multiplicity = 1
  Basis Set: AUG-CC-PVTZ
    Blend: AUG-CC-PVTZ
  Basis Set: (AUG-CC-PVTZ AUX)
    Blend: AUG-CC-PVTZ-JKFIT

    Orbital Energies [Eh]
    ---------------------

    Doubly Occupied:

       1A    -11.230983     2A    -11.230917     3A    -11.227042
       4A    -11.226212     5A    -11.223646     6A    -11.221294
       7A     -1.096523     8A     -1.045519     9A     -0.965877
      10A     -0.891777    11A     -0.763066    12A     -0.748885
      13A     -0.644411    14A     -0.610402    15A     -0.566173
      16A     -0.562298    17A     -0.555951    18A     -0.546290
      19A     -0.511245    20A     -0.502281    21A     -0.482489
      22A     -0.422777    23A     -0.298491

  @DF-RHF Final Energy:  -233.08123620043608

   => Energetics <=

    Nuclear Repulsion Energy =            207.8916446815786685
    One-Electron Energy =                -724.7966610774660694
    Two-Electron Energy =                 283.8237801954513202
    Total Energy =                       -233.0812362004360807
  Basis Set: (AUG-CC-PVTZ AUX)
    Blend: AUG-CC-PVTZ-RI
    Molecular point group: c1

    Geometry (in Angstrom), charge = 0, multiplicity = 1:

       Center              X                  Y                   Z               Mass
    ------------   -----------------  -----------------  -----------------  -----------------
         C            0.667905970488    -0.287648681448    -0.000208324511    12.000000000000
         C           -0.667652029512     0.287794318552    -0.000181324511    12.000000000000
         C            1.802056970488     0.438620318552    -0.000135324511    12.000000000000
         C           -1.801803029512    -0.438474681448    -0.000263324511    12.000000000000
         C            3.182567970488    -0.140938681448    -0.000143324511    12.000000000000
         C           -3.182314029512     0.141082318552    -0.000252324511    12.000000000000
         H            0.735749970488    -1.377268681448    -0.000286324511     1.007825032230
         H           -0.735497029512     1.377414318552    -0.000097324511     1.007825032230
         H            1.726485970488     1.527076318552    -0.000054324511     1.007825032230
         H           -1.726231029512    -1.526930681448    -0.000350324511     1.007825032230
         H            3.148295970488    -1.234098681448    -0.000250324511     1.007825032230
         H            3.749164970488     0.182391318552    -0.880665324511     1.007825032230
         H            3.749107970488     0.182220318552     0.880478675489     1.007825032230
         H           -3.748863029512    -0.182094681448    -0.880862324511     1.007825032230
         H           -3.759241629512    -0.188130281448     0.896352975489     1.007825032230
         H           -3.148043029512     1.234242318552    -0.000168324511     1.007825032230

  Basis Set: AUG-CC-PVTZ
    Blend: AUG-CC-PVTZ
  Basis Set: (AUG-CC-PVTZ AUX)
    Blend: AUG-CC-PVTZ-JKFIT
	 Reference Energy          =    -233.0812362004360807 [Eh]
	 Singles Energy            =      -0.0000000000000000 [Eh]
	 Same-Spin Energy          =      -0.2454757650280957 [Eh]
	 Opposite-Spin Energy      =      -0.8820947669572294 [Eh]
	 Correlation Energy        =      -1.1275705319853251 [Eh]
	 Total Energy              =    -234.2088067324214080 [Eh]

	 ================> DF-SCS-MP2 Energies <==================
	-----------------------------------------------------------
	 SCS Same-Spin Scale       =       0.3333333333333333 [-]
	 SCS Opposite-Spin Scale   =       1.2000000000000000 [-]
	 SCS Same-Spin Energy      =      -0.0818252550093652 [Eh]
	 SCS Opposite-Spin Energy  =      -1.0585137203486752 [Eh]
	 SCS Correlation Energy    =      -1.1403389753580404 [Eh]
	 SCS Total Energy          =    -234.2215751757941291 [Eh]
	-----------------------------------------------------------

  Dipole Moment: [D]
     X:     0.0126      Y:     0.0025      Z:    -0.0073     Total:     0.0147

*** Psi4 exiting successfully. Buy a developer a beer!
