                               Psi4 1.4a3.dev225

  ==> Input File <==

--------------------------------------------------------------------------
#psi4
#
memory 32 gb

molecule  {
0 1
  C        0.6677790    -0.2877210    -0.0000110
  C       -0.6677790     0.2877220     0.0000160
  C        1.8019300     0.4385480     0.0000620
  C       -1.8019300    -0.4385470    -0.0000660
  C        3.1824410    -0.1410110     0.0000540
  C       -3.1824410     0.1410100    -0.0000550
  H        0.7356230    -1.3773410    -0.0000890
  H       -0.7356240     1.3773420     0.0001000
  H        1.7263590     1.5270040     0.0001430
  H       -1.7263580    -1.5270030    -0.0001530
  H        3.1481690    -1.2341710    -0.0000530
  H        3.7490380     0.1823190    -0.8804680
  H        3.7489810     0.1821480     0.8806760
  H       -3.7489900    -0.1821670    -0.8806650
  H       -3.6973252    -0.1527988     0.8001284
  H       -3.1481700     1.2341700     0.0000290
units angstrom
no_reorient  #important for SAPT in psi4, default
symmetry c1  #important for SAPT in psi4, default
}

set PROPERTIES_ORIGIN ["COM"]
properties('MP2/aug-cc-pvtz', properties = ['dipole'])
--------------------------------------------------------------------------

    Molecular point group: c1
  Charge       = 0
  Multiplicity = 1
  Basis Set: AUG-CC-PVTZ
    Blend: AUG-CC-PVTZ
  Basis Set: (AUG-CC-PVTZ AUX)
    Blend: AUG-CC-PVTZ-JKFIT

    Orbital Energies [Eh]
    ---------------------

    Doubly Occupied:

       1A    -11.230381     2A    -11.230054     3A    -11.226401
       4A    -11.225538     5A    -11.220954     6A    -11.208763
       7A     -1.096506     8A     -1.047392     9A     -0.970952
      10A     -0.896668    11A     -0.764872    12A     -0.748359
      13A     -0.645814    14A     -0.609810    15A     -0.581767
      16A     -0.565055    17A     -0.557281    18A     -0.545543
      19A     -0.512626    20A     -0.501842    21A     -0.481902
      22A     -0.423076    23A     -0.298453

  @DF-RHF Final Energy:  -233.07572625626904

   => Energetics <=

    Nuclear Repulsion Energy =            208.3988099344196030
    One-Electron Energy =                -725.7690578659204448
    Two-Electron Energy =                 284.2945216752318629
    Total Energy =                       -233.0757262562690357
  Basis Set: (AUG-CC-PVTZ AUX)
    Blend: AUG-CC-PVTZ-RI
    Molecular point group: c1

    Geometry (in Angstrom), charge = 0, multiplicity = 1:

       Center              X                  Y                   Z               Mass
    ------------   -----------------  -----------------  -----------------  -----------------
         C            0.667144150014    -0.288083398754     0.000975623783    12.000000000000
         C           -0.668413849986     0.287359601246     0.001002623783    12.000000000000
         C            1.801295150014     0.438185601246     0.001048623783    12.000000000000
         C           -1.802564849986    -0.438909398754     0.000920623783    12.000000000000
         C            3.181806150014    -0.141373398754     0.001040623783    12.000000000000
         C           -3.183075849986     0.140647601246     0.000931623783    12.000000000000
         H            0.734988150014    -1.377703398754     0.000897623783     1.007825032230
         H           -0.736258849986     1.376979601246     0.001086623783     1.007825032230
         H            1.725724150014     1.526641601246     0.001129623783     1.007825032230
         H           -1.726992849986    -1.527365398754     0.000833623783     1.007825032230
         H            3.147534150014    -1.234533398754     0.000933623783     1.007825032230
         H            3.748403150014     0.181956601246    -0.879481376217     1.007825032230
         H            3.748346150014     0.181785601246     0.881662623783     1.007825032230
         H           -3.749624849986    -0.182529398754    -0.879678376217     1.007825032230
         H           -3.697960049986    -0.153161198754     0.801115023783     1.007825032230
         H           -3.148804849986     1.233807601246     0.001015623783     1.007825032230

  Basis Set: AUG-CC-PVTZ
    Blend: AUG-CC-PVTZ
  Basis Set: (AUG-CC-PVTZ AUX)
    Blend: AUG-CC-PVTZ-JKFIT
	 Reference Energy          =    -233.0757262562690357 [Eh]
	 Singles Energy            =      -0.0000000000000000 [Eh]
	 Same-Spin Energy          =      -0.2455361766923438 [Eh]
	 Opposite-Spin Energy      =      -0.8815663518138157 [Eh]
	 Correlation Energy        =      -1.1271025285061596 [Eh]
	 Total Energy              =    -234.2028287847751926 [Eh]

	 ================> DF-SCS-MP2 Energies <==================
	-----------------------------------------------------------
	 SCS Same-Spin Scale       =       0.3333333333333333 [-]
	 SCS Opposite-Spin Scale   =       1.2000000000000000 [-]
	 SCS Same-Spin Energy      =      -0.0818453922307812 [Eh]
	 SCS Opposite-Spin Energy  =      -1.0578796221765787 [Eh]
	 SCS Correlation Energy    =      -1.1397250144073601 [Eh]
	 SCS Total Energy          =    -234.2154512706763967 [Eh]
	-----------------------------------------------------------

  Dipole Moment: [D]
     X:    -0.0492      Y:    -0.0095      Z:     0.0288     Total:     0.0578

*** Psi4 exiting successfully. Buy a developer a beer!
