                               Psi4 1.4a3.dev225

  ==> Input File <==

--------------------------------------------------------------------------
#psi4
#
memory 32 gb

molecule  {
0 1
  C        0.6677790    -0.2877210    -0.0000110
  C       -0.6677790     0.2877220     0.0000160
  C        1.8019300     0.4385480     0.0000620
  C       -1.8019300    -0.4385470    -0.0000660
  C        3.1824410    -0.1410110     0.0000540
  C       -3.2008819     0.1487517    -0.0000549
  H        0.7356230    -1.3773410    -0.0000890
  H       -0.7356240     1.3773420     0.0001000
  H        1.7263590     1.5270040     0.0001430
  H       -1.7263580    -1.5270030    -0.0001530
  H        3.1481690    -1.2341710    -0.0000530
  H        3.7490380     0.1823190    -0.8804680
  H        3.7489810     0.1821480     0.8806760
  H       -3.7489900    -0.1821670    -0.8806650
  H       -3.7490280    -0.1823020     0.8804800
  H       -3.1481700     1.2341700     0.0000290
units angstrom
no_reorient  #important for SAPT in psi4, default
symmetry c1  #important for SAPT in psi4, default
}

set PROPERTIES_ORIGIN ["COM"]
properties('MP2/aug-cc-pvtz', properties = ['dipole'])
--------------------------------------------------------------------------

    Molecular point group: c1
  Charge       = 0
  Multiplicity = 1
  Basis Set: AUG-CC-PVTZ
    Blend: AUG-CC-PVTZ
  Basis Set: (AUG-CC-PVTZ AUX)
    Blend: AUG-CC-PVTZ-JKFIT

    Orbital Energies [Eh]
    ---------------------

    Doubly Occupied:

       1A    -11.231652     2A    -11.230724     3A    -11.226858
       4A    -11.226027     5A    -11.221172     6A    -11.220606
       7A     -1.095635     8A     -1.044034     9A     -0.966046
      10A     -0.893279    11A     -0.763114    12A     -0.748452
      13A     -0.644010    14A     -0.609214    15A     -0.568625
      16A     -0.564704    17A     -0.556416    18A     -0.545113
      19A     -0.513201    20A     -0.502107    21A     -0.480565
      22A     -0.423234    23A     -0.298748

  @DF-RHF Final Energy:  -233.08163118981315

   => Energetics <=

    Nuclear Repulsion Energy =            207.7325423802036255
    One-Electron Energy =                -724.4812744240109623
    Two-Electron Energy =                 283.6671008539941568
    Total Energy =                       -233.0816311898131517
  Basis Set: (AUG-CC-PVTZ AUX)
    Blend: AUG-CC-PVTZ-RI
    Molecular point group: c1

    Geometry (in Angstrom), charge = 0, multiplicity = 1:

       Center              X                  Y                   Z               Mass
    ------------   -----------------  -----------------  -----------------  -----------------
         C            0.670475095484    -0.288852985536    -0.000011014620    12.000000000000
         C           -0.665082904516     0.286590014464     0.000015985380    12.000000000000
         C            1.804626095484     0.437416014464     0.000061985380    12.000000000000
         C           -1.799233904516    -0.439678985536    -0.000066014620    12.000000000000
         C            3.185137095484    -0.142142985536     0.000053985380    12.000000000000
         C           -3.198185804516     0.147619714464    -0.000054914620    12.000000000000
         H            0.738319095484    -1.378472985536    -0.000089014620     1.007825032230
         H           -0.732927904516     1.376210014464     0.000099985380     1.007825032230
         H            1.729055095484     1.525872014464     0.000142985380     1.007825032230
         H           -1.723661904516    -1.528134985536    -0.000153014620     1.007825032230
         H            3.150865095484    -1.235302985536    -0.000053014620     1.007825032230
         H            3.751734095484     0.181187014464    -0.880468014620     1.007825032230
         H            3.751677095484     0.181016014464     0.880675985380     1.007825032230
         H           -3.746293904516    -0.183298985536    -0.880665014620     1.007825032230
         H           -3.746331904516    -0.183433985536     0.880479985380     1.007825032230
         H           -3.145473904516     1.233038014464     0.000028985380     1.007825032230

  Basis Set: AUG-CC-PVTZ
    Blend: AUG-CC-PVTZ
  Basis Set: (AUG-CC-PVTZ AUX)
    Blend: AUG-CC-PVTZ-JKFIT
	 Reference Energy          =    -233.0816311898131517 [Eh]
	 Singles Energy            =      -0.0000000000000000 [Eh]
	 Same-Spin Energy          =      -0.2453260365779934 [Eh]
	 Opposite-Spin Energy      =      -0.8818826891244598 [Eh]
	 Correlation Energy        =      -1.1272087257024532 [Eh]
	 Total Energy              =    -234.2088399155155969 [Eh]

	 ================> DF-SCS-MP2 Energies <==================
	-----------------------------------------------------------
	 SCS Same-Spin Scale       =       0.3333333333333333 [-]
	 SCS Opposite-Spin Scale   =       1.2000000000000000 [-]
	 SCS Same-Spin Energy      =      -0.0817753455259978 [Eh]
	 SCS Opposite-Spin Energy  =      -1.0582592269493516 [Eh]
	 SCS Correlation Energy    =      -1.1400345724753493 [Eh]
	 SCS Total Energy          =    -234.2216657622884952 [Eh]
	-----------------------------------------------------------

  Dipole Moment: [D]
     X:     0.0046      Y:     0.0002      Z:     0.0000     Total:     0.0047

*** Psi4 exiting successfully. Buy a developer a beer!
