                               Psi4 1.4a3.dev225

  ==> Input File <==

--------------------------------------------------------------------------
#psi4
#
memory 32 gb

molecule  {
0 1
  C        0.6677790    -0.2877210    -0.0000110
  C       -0.6677790     0.2877220     0.0000160
  C        1.8019300     0.4385480     0.0000620
  C       -1.8019300    -0.4385470    -0.0000660
  C        3.1824410    -0.1410110     0.0000540
  C       -3.1824410     0.1410100    -0.0000550
  H        0.7356230    -1.3773410    -0.0000890
  H       -0.7356240     1.3773420     0.0001000
  H        1.7263590     1.5270040     0.0001430
  H       -1.7263580    -1.5270030    -0.0001530
  H        3.1481690    -1.2341710    -0.0000530
  H        3.7490380     0.1823190    -0.8804680
  H        3.7489810     0.1821480     0.8806760
  H       -3.7489900    -0.1821670    -0.8806650
  H       -3.7386874    -0.1764014     0.8644097
  H       -3.1481700     1.2341700     0.0000290
units angstrom
no_reorient  #important for SAPT in psi4, default
symmetry c1  #important for SAPT in psi4, default
}

set PROPERTIES_ORIGIN ["COM"]
properties('MP2/aug-cc-pvtz', properties = ['dipole'])
--------------------------------------------------------------------------

    Molecular point group: c1
  Charge       = 0
  Multiplicity = 1
  Basis Set: AUG-CC-PVTZ
    Blend: AUG-CC-PVTZ
  Basis Set: (AUG-CC-PVTZ AUX)
    Blend: AUG-CC-PVTZ-JKFIT

    Orbital Energies [Eh]
    ---------------------

    Doubly Occupied:

       1A    -11.230703     2A    -11.230637     3A    -11.226781
       4A    -11.225952     5A    -11.221157     6A    -11.218770
       7A     -1.096444     8A     -1.045962     9A     -0.967266
      10A     -0.893246    11A     -0.763555    12A     -0.748677
      13A     -0.644713    14A     -0.610155    15A     -0.568895
      16A     -0.564720    17A     -0.557225    18A     -0.546005
      19A     -0.511843    20A     -0.502129    21A     -0.482268
      22A     -0.422884    23A     -0.298455

  @DF-RHF Final Energy:  -233.08174736692888

   => Energetics <=

    Nuclear Repulsion Energy =            208.0513932868759071
    One-Electron Energy =                -725.1093980111334076
    Two-Electron Energy =                 283.9762573573285636
    Total Energy =                       -233.0817473669288802
  Basis Set: (AUG-CC-PVTZ AUX)
    Blend: AUG-CC-PVTZ-RI
    Molecular point group: c1

    Geometry (in Angstrom), charge = 0, multiplicity = 1:

       Center              X                  Y                   Z               Mass
    ------------   -----------------  -----------------  -----------------  -----------------
         C            0.667652029512    -0.287793586398     0.000186324511    12.000000000000
         C           -0.667905970488     0.287649413602     0.000213324511    12.000000000000
         C            1.801803029512     0.438475413602     0.000259324511    12.000000000000
         C           -1.802056970488    -0.438619586398     0.000131324511    12.000000000000
         C            3.182314029512    -0.141083586398     0.000251324511    12.000000000000
         C           -3.182567970488     0.140937413602     0.000142324511    12.000000000000
         H            0.735496029512    -1.377413586398     0.000108324511     1.007825032230
         H           -0.735750970488     1.377269413602     0.000297324511     1.007825032230
         H            1.726232029512     1.526931413602     0.000340324511     1.007825032230
         H           -1.726484970488    -1.527075586398     0.000044324511     1.007825032230
         H            3.148042029512    -1.234243586398     0.000144324511     1.007825032230
         H            3.748911029512     0.182246413602    -0.880270675489     1.007825032230
         H            3.748854029512     0.182075413602     0.880873324511     1.007825032230
         H           -3.749116970488    -0.182239586398    -0.880467675489     1.007825032230
         H           -3.738814370488    -0.176473986398     0.864607024511     1.007825032230
         H           -3.148296970488     1.234097413602     0.000226324511     1.007825032230

  Basis Set: AUG-CC-PVTZ
    Blend: AUG-CC-PVTZ
  Basis Set: (AUG-CC-PVTZ AUX)
    Blend: AUG-CC-PVTZ-JKFIT
	 Reference Energy          =    -233.0817473669288802 [Eh]
	 Singles Energy            =      -0.0000000000000000 [Eh]
	 Same-Spin Energy          =      -0.2454901053840566 [Eh]
	 Opposite-Spin Energy      =      -0.8818784355382576 [Eh]
	 Correlation Energy        =      -1.1273685409223142 [Eh]
	 Total Energy              =    -234.2091159078511851 [Eh]

	 ================> DF-SCS-MP2 Energies <==================
	-----------------------------------------------------------
	 SCS Same-Spin Scale       =       0.3333333333333333 [-]
	 SCS Opposite-Spin Scale   =       1.2000000000000000 [-]
	 SCS Same-Spin Energy      =      -0.0818300351280189 [Eh]
	 SCS Opposite-Spin Energy  =      -1.0582541226459090 [Eh]
	 SCS Correlation Energy    =      -1.1400841577739278 [Eh]
	 SCS Total Energy          =    -234.2218315247028215 [Eh]
	-----------------------------------------------------------

  Dipole Moment: [D]
     X:    -0.0116      Y:    -0.0023      Z:     0.0068     Total:     0.0137

*** Psi4 exiting successfully. Buy a developer a beer!
