                               Psi4 1.4a3.dev225

  ==> Input File <==

--------------------------------------------------------------------------
#psi4
#
memory 32 gb

molecule  {
0 1
  C        0.6677790    -0.2877210    -0.0000110
  C       -0.6677790     0.2877220     0.0000160
  C        1.8019300     0.4385480     0.0000620
  C       -1.8019300    -0.4385470    -0.0000660
  C        3.1824410    -0.1410110     0.0000540
  C       -3.1824410     0.1410100    -0.0000550
  H        0.7356230    -1.3773410    -0.0000890
  H       -0.7356240     1.3773420     0.0001000
  H        1.7263590     1.5270040     0.0001430
  H       -1.7263580    -1.5270030    -0.0001530
  H        3.1583625    -1.2343223    -0.0161910
  H        3.7490380     0.1823190    -0.8804680
  H        3.7489810     0.1821480     0.8806760
  H       -3.7489900    -0.1821670    -0.8806650
  H       -3.7490280    -0.1823020     0.8804800
  H       -3.1481700     1.2341700     0.0000290
units angstrom
no_reorient  #important for SAPT in psi4, default
symmetry c1  #important for SAPT in psi4, default
}

set PROPERTIES_ORIGIN ["COM"]
properties('MP2/aug-cc-pvtz', properties = ['dipole'])
--------------------------------------------------------------------------

    Molecular point group: c1
  Charge       = 0
  Multiplicity = 1
  Basis Set: AUG-CC-PVTZ
    Blend: AUG-CC-PVTZ
  Basis Set: (AUG-CC-PVTZ AUX)
    Blend: AUG-CC-PVTZ-JKFIT

    Orbital Energies [Eh]
    ---------------------

    Doubly Occupied:

       1A    -11.230893     2A    -11.230815     3A    -11.226908
       4A    -11.226081     5A    -11.221228     6A    -11.221193
       7A     -1.096448     8A     -1.045661     9A     -0.966530
      10A     -0.892576    11A     -0.763439    12A     -0.748761
      13A     -0.644366    14A     -0.610456    15A     -0.566898
      16A     -0.563883    17A     -0.556431    18A     -0.546350
      19A     -0.511244    20A     -0.502382    21A     -0.482472
      22A     -0.422830    23A     -0.298479

  @DF-RHF Final Energy:  -233.08171027733351

   => Energetics <=

    Nuclear Repulsion Energy =            207.9569476690064960
    One-Electron Energy =                -724.9246724690549399
    Two-Electron Energy =                 283.8860145227149587
    Total Energy =                       -233.0817102773335137
  Basis Set: (AUG-CC-PVTZ AUX)
    Blend: AUG-CC-PVTZ-RI
    Molecular point group: c1

    Geometry (in Angstrom), charge = 0, multiplicity = 1:

       Center              X                  Y                   Z               Mass
    ------------   -----------------  -----------------  -----------------  -----------------
         C            0.667653835728    -0.287719276136     0.000187155788    12.000000000000
         C           -0.667904164272     0.287723723864     0.000214155788    12.000000000000
         C            1.801804835728     0.438549723864     0.000260155788    12.000000000000
         C           -1.802055164272    -0.438545276136     0.000132155788    12.000000000000
         C            3.182315835728    -0.141009276136     0.000252155788    12.000000000000
         C           -3.182566164272     0.141011723864     0.000143155788    12.000000000000
         H            0.735497835728    -1.377339276136     0.000109155788     1.007825032230
         H           -0.735749164272     1.377343723864     0.000298155788     1.007825032230
         H            1.726233835728     1.527005723864     0.000341155788     1.007825032230
         H           -1.726483164272    -1.527001276136     0.000045155788     1.007825032230
         H            3.158237335728    -1.234320576136    -0.015992844212     1.007825032230
         H            3.748912835728     0.182320723864    -0.880269844212     1.007825032230
         H            3.748855835728     0.182149723864     0.880874155788     1.007825032230
         H           -3.749115164272    -0.182165276136    -0.880466844212     1.007825032230
         H           -3.749153164272    -0.182300276136     0.880678155788     1.007825032230
         H           -3.148295164272     1.234171723864     0.000227155788     1.007825032230

  Basis Set: AUG-CC-PVTZ
    Blend: AUG-CC-PVTZ
  Basis Set: (AUG-CC-PVTZ AUX)
    Blend: AUG-CC-PVTZ-JKFIT
	 Reference Energy          =    -233.0817102773335137 [Eh]
	 Singles Energy            =      -0.0000000000000000 [Eh]
	 Same-Spin Energy          =      -0.2454769326035531 [Eh]
	 Opposite-Spin Energy      =      -0.8819725929234525 [Eh]
	 Correlation Energy        =      -1.1274495255270056 [Eh]
	 Total Energy              =    -234.2091598028605119 [Eh]

	 ================> DF-SCS-MP2 Energies <==================
	-----------------------------------------------------------
	 SCS Same-Spin Scale       =       0.3333333333333333 [-]
	 SCS Opposite-Spin Scale   =       1.2000000000000000 [-]
	 SCS Same-Spin Energy      =      -0.0818256442011844 [Eh]
	 SCS Opposite-Spin Energy  =      -1.0583671115081430 [Eh]
	 SCS Correlation Energy    =      -1.1401927557093274 [Eh]
	 SCS Total Energy          =    -234.2219030330428495 [Eh]
	-----------------------------------------------------------

  Dipole Moment: [D]
     X:     0.0010      Y:    -0.0023      Z:    -0.0049     Total:     0.0055

*** Psi4 exiting successfully. Buy a developer a beer!
