                               Psi4 1.4a3.dev225

  ==> Input File <==

--------------------------------------------------------------------------
#psi4
#
memory 32 gb

molecule  {
0 1
  C        0.6677790    -0.2877210    -0.0000110
  C       -0.6677790     0.2877220     0.0000160
  C        1.8019300     0.4385480     0.0000620
  C       -1.7925262    -0.4137916     0.0449884
  C        3.1824410    -0.1410110     0.0000540
  C       -3.1824410     0.1410100    -0.0000550
  H        0.7356230    -1.3773410    -0.0000890
  H       -0.7356240     1.3773420     0.0001000
  H        1.7263590     1.5270040     0.0001430
  H       -1.7263580    -1.5270030    -0.0001530
  H        3.1481690    -1.2341710    -0.0000530
  H        3.7490380     0.1823190    -0.8804680
  H        3.7489810     0.1821480     0.8806760
  H       -3.7489900    -0.1821670    -0.8806650
  H       -3.7490280    -0.1823020     0.8804800
  H       -3.1481700     1.2341700     0.0000290
units angstrom
no_reorient  #important for SAPT in psi4, default
symmetry c1  #important for SAPT in psi4, default
}

set PROPERTIES_ORIGIN ["COM"]
properties('MP2/aug-cc-pvtz', properties = ['dipole'])
--------------------------------------------------------------------------

    Molecular point group: c1
  Charge       = 0
  Multiplicity = 1
  Basis Set: AUG-CC-PVTZ
    Blend: AUG-CC-PVTZ
  Basis Set: (AUG-CC-PVTZ AUX)
    Blend: AUG-CC-PVTZ-JKFIT

    Orbital Energies [Eh]
    ---------------------

    Doubly Occupied:

       1A    -11.231270     2A    -11.229834     3A    -11.226820
       4A    -11.223752     5A    -11.221463     6A    -11.221328
       7A     -1.098540     8A     -1.046989     9A     -0.966906
      10A     -0.894979    11A     -0.761629    12A     -0.746490
      13A     -0.645042    14A     -0.610358    15A     -0.567478
      16A     -0.564445    17A     -0.557711    18A     -0.546234
      19A     -0.513616    20A     -0.498758    21A     -0.478307
      22A     -0.425074    23A     -0.301569

  @DF-RHF Final Energy:  -233.08088853431704

   => Energetics <=

    Nuclear Repulsion Energy =            208.2098782256511527
    One-Electron Energy =                -725.4243461770405474
    Two-Electron Energy =                 284.1335794170724398
    Total Energy =                       -233.0808885343170118
  Basis Set: (AUG-CC-PVTZ AUX)
    Blend: AUG-CC-PVTZ-RI
    Molecular point group: c1

    Geometry (in Angstrom), charge = 0, multiplicity = 1:

       Center              X                  Y                   Z               Mass
    ------------   -----------------  -----------------  -----------------  -----------------
         C            0.666404146131    -0.291340421601    -0.006598040999    12.000000000000
         C           -0.669153853869     0.284102578399    -0.006571040999    12.000000000000
         C            1.800555146131     0.434928578399    -0.006525040999    12.000000000000
         C           -1.793901053869    -0.417411021601     0.038401359001    12.000000000000
         C            3.181066146131    -0.144630421601    -0.006533040999    12.000000000000
         C           -3.183815853869     0.137390578399    -0.006642040999    12.000000000000
         H            0.734248146131    -1.380960421601    -0.006676040999     1.007825032230
         H           -0.736998853869     1.373722578399    -0.006487040999     1.007825032230
         H            1.724984146131     1.523384578399    -0.006444040999     1.007825032230
         H           -1.727732853869    -1.530622421601    -0.006740040999     1.007825032230
         H            3.146794146131    -1.237790421601    -0.006640040999     1.007825032230
         H            3.747663146131     0.178699578399    -0.887055040999     1.007825032230
         H            3.747606146131     0.178528578399     0.874088959001     1.007825032230
         H           -3.750364853869    -0.185786421601    -0.887252040999     1.007825032230
         H           -3.750402853869    -0.185921421601     0.873892959001     1.007825032230
         H           -3.149544853869     1.230550578399    -0.006558040999     1.007825032230

  Basis Set: AUG-CC-PVTZ
    Blend: AUG-CC-PVTZ
  Basis Set: (AUG-CC-PVTZ AUX)
    Blend: AUG-CC-PVTZ-JKFIT
	 Reference Energy          =    -233.0808885343170402 [Eh]
	 Singles Energy            =      -0.0000000000000000 [Eh]
	 Same-Spin Energy          =      -0.2453533879109954 [Eh]
	 Opposite-Spin Energy      =      -0.8816475421852659 [Eh]
	 Correlation Energy        =      -1.1270009300962611 [Eh]
	 Total Energy              =    -234.2078894644133129 [Eh]

	 ================> DF-SCS-MP2 Energies <==================
	-----------------------------------------------------------
	 SCS Same-Spin Scale       =       0.3333333333333333 [-]
	 SCS Opposite-Spin Scale   =       1.2000000000000000 [-]
	 SCS Same-Spin Energy      =      -0.0817844626369985 [Eh]
	 SCS Opposite-Spin Energy  =      -1.0579770506223189 [Eh]
	 SCS Correlation Energy    =      -1.1397615132593173 [Eh]
	 SCS Total Energy          =    -234.2206500475763562 [Eh]
	-----------------------------------------------------------

  Dipole Moment: [D]
     X:     0.0123      Y:     0.0152      Z:    -0.0490     Total:     0.0528

*** Psi4 exiting successfully. Buy a developer a beer!
