                               Psi4 1.4a3.dev225

  ==> Input File <==

--------------------------------------------------------------------------
#psi4
#
memory 32 gb

molecule  {
0 1
  C        0.6677790    -0.2877210    -0.0000110
  C       -0.6677790     0.2877220     0.0000160
  C        1.8019300     0.4385480     0.0000620
  C       -1.8130158    -0.4625963    -0.0451204
  C        3.1824410    -0.1410110     0.0000540
  C       -3.1824410     0.1410100    -0.0000550
  H        0.7356230    -1.3773410    -0.0000890
  H       -0.7356240     1.3773420     0.0001000
  H        1.7263590     1.5270040     0.0001430
  H       -1.7263580    -1.5270030    -0.0001530
  H        3.1481690    -1.2341710    -0.0000530
  H        3.7490380     0.1823190    -0.8804680
  H        3.7489810     0.1821480     0.8806760
  H       -3.7489900    -0.1821670    -0.8806650
  H       -3.7490280    -0.1823020     0.8804800
  H       -3.1481700     1.2341700     0.0000290
units angstrom
no_reorient  #important for SAPT in psi4, default
symmetry c1  #important for SAPT in psi4, default
}

set PROPERTIES_ORIGIN ["COM"]
properties('MP2/aug-cc-pvtz', properties = ['dipole'])
--------------------------------------------------------------------------

    Molecular point group: c1
  Charge       = 0
  Multiplicity = 1
  Basis Set: AUG-CC-PVTZ
    Blend: AUG-CC-PVTZ
  Basis Set: (AUG-CC-PVTZ AUX)
    Blend: AUG-CC-PVTZ-JKFIT

    Orbital Energies [Eh]
    ---------------------

    Doubly Occupied:

       1A    -11.232236     2A    -11.230726     3A    -11.229896
       4A    -11.226371     5A    -11.221191     6A    -11.221119
       7A     -1.094554     8A     -1.044461     9A     -0.966287
      10A     -0.889943    11A     -0.766226    12A     -0.749948
      13A     -0.643801    14A     -0.610043    15A     -0.566844
      16A     -0.564038    17A     -0.555455    18A     -0.545894
      19A     -0.509596    20A     -0.506137    21A     -0.484361
      22A     -0.420493    23A     -0.295341

  @DF-RHF Final Energy:  -233.07916439431733

   => Energetics <=

    Nuclear Repulsion Energy =            207.6917824949322267
    One-Electron Energy =                -724.3919733407989270
    Two-Electron Energy =                 283.6210264515493691
    Total Energy =                       -233.0791643943173312
  Basis Set: (AUG-CC-PVTZ AUX)
    Blend: AUG-CC-PVTZ-RI
    Molecular point group: c1

    Geometry (in Angstrom), charge = 0, multiplicity = 1:

       Center              X                  Y                   Z               Mass
    ------------   -----------------  -----------------  -----------------  -----------------
         C            0.669399765544    -0.284205079440     0.006576040999    12.000000000000
         C           -0.666158234456     0.291237920560     0.006603040999    12.000000000000
         C            1.803550765544     0.442063920560     0.006649040999    12.000000000000
         C           -1.811395034456    -0.459080379440    -0.038533359001    12.000000000000
         C            3.184061765544    -0.137495079440     0.006641040999    12.000000000000
         C           -3.180820234456     0.144525920560     0.006532040999    12.000000000000
         H            0.737243765544    -1.373825079440     0.006498040999     1.007825032230
         H           -0.734003234456     1.380857920560     0.006687040999     1.007825032230
         H            1.727979765544     1.530519920560     0.006730040999     1.007825032230
         H           -1.724737234456    -1.523487079440     0.006434040999     1.007825032230
         H            3.149789765544    -1.230655079440     0.006534040999     1.007825032230
         H            3.750658765544     0.185834920560    -0.873880959001     1.007825032230
         H            3.750601765544     0.185663920560     0.887263040999     1.007825032230
         H           -3.747369234456    -0.178651079440    -0.874077959001     1.007825032230
         H           -3.747407234456    -0.178786079440     0.887067040999     1.007825032230
         H           -3.146549234456     1.237685920560     0.006616040999     1.007825032230

  Basis Set: AUG-CC-PVTZ
    Blend: AUG-CC-PVTZ
  Basis Set: (AUG-CC-PVTZ AUX)
    Blend: AUG-CC-PVTZ-JKFIT
	 Reference Energy          =    -233.0791643943173312 [Eh]
	 Singles Energy            =      -0.0000000000000000 [Eh]
	 Same-Spin Energy          =      -0.2457500720911136 [Eh]
	 Opposite-Spin Energy      =      -0.8826290160824541 [Eh]
	 Correlation Energy        =      -1.1283790881735678 [Eh]
	 Total Energy              =    -234.2075434824909053 [Eh]

	 ================> DF-SCS-MP2 Energies <==================
	-----------------------------------------------------------
	 SCS Same-Spin Scale       =       0.3333333333333333 [-]
	 SCS Opposite-Spin Scale   =       1.2000000000000000 [-]
	 SCS Same-Spin Energy      =      -0.0819166906970379 [Eh]
	 SCS Opposite-Spin Energy  =      -1.0591548192989448 [Eh]
	 SCS Correlation Energy    =      -1.1410715099959827 [Eh]
	 SCS Total Energy          =    -234.2202359043133129 [Eh]
	-----------------------------------------------------------

  Dipole Moment: [D]
     X:     0.0078      Y:    -0.0053      Z:     0.0502     Total:     0.0511

*** Psi4 exiting successfully. Buy a developer a beer!
