                               Psi4 1.3.2 release

  ==> Input File <==

--------------------------------------------------------------------------
#psi4
#
memory 32 gb

molecule  {
0 1
  O       -0.0679570     1.2803790     0.2912690
  O       -2.4243090     0.0219280    -0.2318400
  O        2.3232750     0.1233060    -0.2580880
  C       -0.0144270    -0.0326130    -0.2709570
  C       -1.2865220    -0.7147970     0.1919500
  C        1.2539810    -0.7230840     0.1827990
  H       -0.0165290     0.0250030    -1.3695790
  H       -1.2581130    -0.8122820     1.2878600
  H       -1.3731370    -1.7140640    -0.2443670
  H        1.3313060    -1.7269980    -0.2572240
  H        1.2460610    -0.8115580     1.2773110
  H        0.7929870     1.6883420     0.0827150
  H       -2.2119394     1.0384261     0.0458404
  H        3.1428520    -0.1742490     0.1698040
units angstrom
no_reorient  #important for SAPT in psi4, default
symmetry c1  #important for SAPT in psi4, default
}

set PROPERTIES_ORIGIN ["COM"]
properties('MP2/aug-cc-pvtz', properties = ['dipole'])
--------------------------------------------------------------------------

    Molecular point group: c1
  Charge       = 0
  Multiplicity = 1
  Basis Set: AUG-CC-PVTZ
    Blend: AUG-CC-PVTZ
  Basis Set: (AUG-CC-PVTZ AUX)
    Blend: AUG-CC-PVTZ-JKFIT

    Orbital Energies [Eh]
    ---------------------

    Doubly Occupied:

       1A    -20.582376     2A    -20.564523     3A    -20.557121
       4A    -11.292965     5A    -11.284295     6A    -11.275098
       7A     -1.390219     8A     -1.361245     9A     -1.325653
      10A     -1.037182    11A     -0.913892    12A     -0.811888
      13A     -0.740085    14A     -0.696949    15A     -0.666921
      16A     -0.646394    17A     -0.606957    18A     -0.593438
      19A     -0.574790    20A     -0.545438    21A     -0.528057
      22A     -0.487933    23A     -0.471021    24A     -0.454133
      25A     -0.435889

  @DF-RHF Final Energy:  -342.95326792254662

   => Energetics <=

    Nuclear Repulsion Energy =            262.1455644927098092
    One-Electron Energy =                -990.5087426060072175
    Two-Electron Energy =                 385.4099101907507929
    Total Energy =                       -342.9532679225466154
  Basis Set: (AUG-CC-PVTZ AUX)
    Blend: AUG-CC-PVTZ-RI
    Molecular point group: c1

    Geometry (in Angstrom), charge = 0, multiplicity = 1:

       Center              X                  Y                   Z               Mass
    ------------   -----------------  -----------------  -----------------  -----------------
         O           -0.050572615496     1.251591787147     0.301393182292    15.994914619570
         O           -2.406924615496    -0.006859212853    -0.221715817708    15.994914619570
         O            2.340659384504     0.094518787147    -0.247963817708    15.994914619570
         C            0.002957384504    -0.061400212853    -0.260832817708    12.000000000000
         C           -1.269137615496    -0.743584212853     0.202074182292    12.000000000000
         C            1.271365384504    -0.751871212853     0.192923182292    12.000000000000
         H            0.000855384504    -0.003784212853    -1.359454817708     1.007825032230
         H           -1.240728615496    -0.841069212853     1.297984182292     1.007825032230
         H           -1.355752615496    -1.742851212853    -0.234242817708     1.007825032230
         H            1.348690384504    -1.755785212853    -0.247099817708     1.007825032230
         H            1.263445384504    -0.840345212853     1.287435182292     1.007825032230
         H            0.810371384504     1.659554787147     0.092839182292     1.007825032230
         H           -2.194555015496     1.009638887147     0.055964582292     1.007825032230
         H            3.160236384504    -0.203036212853     0.179928182292     1.007825032230

  Basis Set: AUG-CC-PVTZ
    Blend: AUG-CC-PVTZ
  Basis Set: (AUG-CC-PVTZ AUX)
    Blend: AUG-CC-PVTZ-JKFIT
	 Reference Energy          =    -342.9532679225466154 [Eh]
	 Singles Energy            =      -0.0000000000000000 [Eh]
	 Same-Spin Energy          =      -0.3296365646441725 [Eh]
	 Opposite-Spin Energy      =      -1.0494463519950619 [Eh]
	 Correlation Energy        =      -1.3790829166392342 [Eh]
	 Total Energy              =    -344.3323508391858354 [Eh]

	 ================> DF-SCS-MP2 Energies <==================
	-----------------------------------------------------------
	 SCS Same-Spin Scale       =       0.3333333333333333 [-]
	 SCS Opposite-Spin Scale   =       1.2000000000000000 [-]
	 SCS Same-Spin Energy      =      -0.1098788548813908 [Eh]
	 SCS Opposite-Spin Energy  =      -1.2593356223940742 [Eh]
	 SCS Correlation Energy    =      -1.3692144772754649 [Eh]
	 SCS Total Energy          =    -344.3224823998220927 [Eh]
	-----------------------------------------------------------

  Dipole Moment: [D]
     X:     3.2041      Y:    -1.2206      Z:     0.9824     Total:     3.5667

*** Psi4 exiting successfully. Buy a developer a beer!
