                               Psi4 1.3.2 release

  ==> Input File <==

--------------------------------------------------------------------------
#psi4
#
memory 32 gb

molecule  {
0 1
  O       -0.0679570     1.2803790     0.2912690
  O       -2.4604066     0.0338492    -0.0881297
  O        2.3232750     0.1233060    -0.2580880
  C       -0.0144270    -0.0326130    -0.2709570
  C       -1.2865220    -0.7147970     0.1919500
  C        1.2539810    -0.7230840     0.1827990
  H       -0.0165290     0.0250030    -1.3695790
  H       -1.2581130    -0.8122820     1.2878600
  H       -1.3731370    -1.7140640    -0.2443670
  H        1.3313060    -1.7269980    -0.2572240
  H        1.2460610    -0.8115580     1.2773110
  H        0.7929870     1.6883420     0.0827150
  H       -2.2316960     0.9438620     0.0200080
  H        3.1428520    -0.1742490     0.1698040
units angstrom
no_reorient  #important for SAPT in psi4, default
symmetry c1  #important for SAPT in psi4, default
}

set PROPERTIES_ORIGIN ["COM"]
properties('MP2/aug-cc-pvtz', properties = ['dipole'])
--------------------------------------------------------------------------

    Molecular point group: c1
  Charge       = 0
  Multiplicity = 1
  Basis Set: AUG-CC-PVTZ
    Blend: AUG-CC-PVTZ
  Basis Set: (AUG-CC-PVTZ AUX)
    Blend: AUG-CC-PVTZ-JKFIT

    Orbital Energies [Eh]
    ---------------------

    Doubly Occupied:

       1A    -20.583682     2A    -20.564726     3A    -20.546677
       4A    -11.294944     5A    -11.287645     6A    -11.276284
       7A     -1.392064     8A     -1.367335     9A     -1.343822
      10A     -1.041173    11A     -0.920748    12A     -0.818370
      13A     -0.743390    14A     -0.697795    15A     -0.668041
      16A     -0.661663    17A     -0.616259    18A     -0.596336
      19A     -0.577439    20A     -0.546377    21A     -0.534639
      22A     -0.491605    23A     -0.472510    24A     -0.456885
      25A     -0.435343

  @DF-RHF Final Energy:  -342.96606392391072

   => Energetics <=

    Nuclear Repulsion Energy =            262.4220272216412582
    One-Electron Energy =                -990.9046814682990316
    Two-Electron Energy =                 385.5165903227471063
    Total Energy =                       -342.9660639239107240
  Basis Set: (AUG-CC-PVTZ AUX)
    Blend: AUG-CC-PVTZ-RI
    Molecular point group: c1

    Geometry (in Angstrom), charge = 0, multiplicity = 1:

       Center              X                  Y                   Z               Mass
    ------------   -----------------  -----------------  -----------------  -----------------
         O           -0.044083680571     1.250555640912     0.276703719919    15.994914619570
         O           -2.436533280571     0.004025840912    -0.102694980081    15.994914619570
         O            2.347148319429     0.093482640912    -0.272653280081    15.994914619570
         C            0.009446319429    -0.062436359088    -0.285522280081    12.000000000000
         C           -1.262648680571    -0.744620359088     0.177384719919    12.000000000000
         C            1.277854319429    -0.752907359088     0.168233719919    12.000000000000
         H            0.007344319429    -0.004820359088    -1.384144280081     1.007825032230
         H           -1.234239680571    -0.842105359088     1.273294719919     1.007825032230
         H           -1.349263680571    -1.743887359088    -0.258932280081     1.007825032230
         H            1.355179319429    -1.756821359088    -0.271789280081     1.007825032230
         H            1.269934319429    -0.841381359088     1.262745719919     1.007825032230
         H            0.816860319429     1.658518640912     0.068149719919     1.007825032230
         H           -2.207822680571     0.914038640912     0.005442719919     1.007825032230
         H            3.166725319429    -0.204072359088     0.155238719919     1.007825032230

  Basis Set: AUG-CC-PVTZ
    Blend: AUG-CC-PVTZ
  Basis Set: (AUG-CC-PVTZ AUX)
    Blend: AUG-CC-PVTZ-JKFIT
	 Reference Energy          =    -342.9660639239107240 [Eh]
	 Singles Energy            =      -0.0000000000000000 [Eh]
	 Same-Spin Energy          =      -0.3279367238293149 [Eh]
	 Opposite-Spin Energy      =      -1.0452306229150090 [Eh]
	 Correlation Energy        =      -1.3731673467443239 [Eh]
	 Total Energy              =    -344.3392312706550342 [Eh]

	 ================> DF-SCS-MP2 Energies <==================
	-----------------------------------------------------------
	 SCS Same-Spin Scale       =       0.3333333333333333 [-]
	 SCS Opposite-Spin Scale   =       1.2000000000000000 [-]
	 SCS Same-Spin Energy      =      -0.1093122412764383 [Eh]
	 SCS Opposite-Spin Energy  =      -1.2542767474980108 [Eh]
	 SCS Correlation Energy    =      -1.3635889887744490 [Eh]
	 SCS Total Energy          =    -344.3296529126851624 [Eh]
	-----------------------------------------------------------

  Dipole Moment: [D]
     X:     3.3358      Y:    -1.3261      Z:     0.6528     Total:     3.6486

*** Psi4 exiting successfully. Buy a developer a beer!
