                               Psi4 1.3.2 release

  ==> Input File <==

--------------------------------------------------------------------------
#psi4
#
memory 32 gb

molecule  {
0 1
  O       -0.0679570     1.2803790     0.2912690
  O       -2.4243090     0.0219280    -0.2318400
  O        2.3232750     0.1233060    -0.2580880
  C       -0.0144270    -0.0326130    -0.2709570
  C       -1.2865220    -0.7147970     0.1919500
  C        1.2539810    -0.7230840     0.1827990
  H       -0.0165290     0.0250030    -1.3695790
  H       -1.2581130    -0.8122820     1.2878600
  H       -1.3731370    -1.7140640    -0.2443670
  H        1.3313060    -1.7269980    -0.2572240
  H        1.2460610    -0.8115580     1.2773110
  H        0.8812644     1.7301727     0.0613308
  H       -2.2316960     0.9438620     0.0200080
  H        3.1428520    -0.1742490     0.1698040
units angstrom
no_reorient  #important for SAPT in psi4, default
symmetry c1  #important for SAPT in psi4, default
}

set PROPERTIES_ORIGIN ["COM"]
properties('MP2/aug-cc-pvtz', properties = ['dipole'])
--------------------------------------------------------------------------

    Molecular point group: c1
  Charge       = 0
  Multiplicity = 1
  Basis Set: AUG-CC-PVTZ
    Blend: AUG-CC-PVTZ
  Basis Set: (AUG-CC-PVTZ AUX)
    Blend: AUG-CC-PVTZ-JKFIT

    Orbital Energies [Eh]
    ---------------------

    Doubly Occupied:

       1A    -20.583327     2A    -20.569363     3A    -20.550478
       4A    -11.292777     5A    -11.283352     6A    -11.275764
       7A     -1.386374     8A     -1.360746     9A     -1.329650
      10A     -1.034629    11A     -0.917615    12A     -0.809457
      13A     -0.737155    14A     -0.694585    15A     -0.663676
      16A     -0.654056    17A     -0.608956    18A     -0.591330
      19A     -0.576318    20A     -0.542231    21A     -0.525155
      22A     -0.491460    23A     -0.472194    24A     -0.451612
      25A     -0.437053

  @DF-RHF Final Energy:  -342.95307366361612

   => Energetics <=

    Nuclear Repulsion Energy =            262.0853644021722175
    One-Electron Energy =                -990.3982527198545540
    Two-Electron Energy =                 385.3598146540662128
    Total Energy =                       -342.9530736636161237
  Basis Set: (AUG-CC-PVTZ AUX)
    Blend: AUG-CC-PVTZ-RI
    Molecular point group: c1

    Geometry (in Angstrom), charge = 0, multiplicity = 1:

       Center              X                  Y                   Z               Mass
    ------------   -----------------  -----------------  -----------------  -----------------
         O           -0.051322848739     1.252169164376     0.301910156158    15.994914619570
         O           -2.407674848739    -0.006281835624    -0.221198843842    15.994914619570
         O            2.339909151261     0.095096164376    -0.247446843842    15.994914619570
         C            0.002207151261    -0.060822835624    -0.260315843842    12.000000000000
         C           -1.269887848739    -0.743006835624     0.202591156158    12.000000000000
         C            1.270615151261    -0.751293835624     0.193440156158    12.000000000000
         H            0.000105151261    -0.003206835624    -1.358937843842     1.007825032230
         H           -1.241478848739    -0.840491835624     1.298501156158     1.007825032230
         H           -1.356502848739    -1.742273835624    -0.233725843842     1.007825032230
         H            1.347940151261    -1.755207835624    -0.246582843842     1.007825032230
         H            1.262695151261    -0.839767835624     1.287952156158     1.007825032230
         H            0.897898551261     1.701962864376     0.071971956158     1.007825032230
         H           -2.215061848739     0.915652164376     0.030649156158     1.007825032230
         H            3.159486151261    -0.202458835624     0.180445156158     1.007825032230

  Basis Set: AUG-CC-PVTZ
    Blend: AUG-CC-PVTZ
  Basis Set: (AUG-CC-PVTZ AUX)
    Blend: AUG-CC-PVTZ-JKFIT
	 Reference Energy          =    -342.9530736636161237 [Eh]
	 Singles Energy            =      -0.0000000000000000 [Eh]
	 Same-Spin Energy          =      -0.3297340396976341 [Eh]
	 Opposite-Spin Energy      =      -1.0495677962750034 [Eh]
	 Correlation Energy        =      -1.3793018359726374 [Eh]
	 Total Energy              =    -344.3323754995887498 [Eh]

	 ================> DF-SCS-MP2 Energies <==================
	-----------------------------------------------------------
	 SCS Same-Spin Scale       =       0.3333333333333333 [-]
	 SCS Opposite-Spin Scale   =       1.2000000000000000 [-]
	 SCS Same-Spin Energy      =      -0.1099113465658780 [Eh]
	 SCS Opposite-Spin Energy  =      -1.2594813555300040 [Eh]
	 SCS Correlation Energy    =      -1.3693927020958820 [Eh]
	 SCS Total Energy          =    -344.3224663657119891 [Eh]
	-----------------------------------------------------------

  Dipole Moment: [D]
     X:     3.2885      Y:    -1.2768      Z:     0.9496     Total:     3.6532

*** Psi4 exiting successfully. Buy a developer a beer!
