                               Psi4 1.3.2 release

  ==> Input File <==

--------------------------------------------------------------------------
#psi4
#
memory 32 gb

molecule  {
0 1
  O       -0.0679570     1.2803790     0.2912690
  O       -2.4243090     0.0219280    -0.2318400
  O        2.3232750     0.1233060    -0.2580880
  C       -0.0375448    -0.0368899    -0.2626165
  C       -1.2865220    -0.7147970     0.1919500
  C        1.2539810    -0.7230840     0.1827990
  H       -0.0165290     0.0250030    -1.3695790
  H       -1.2581130    -0.8122820     1.2878600
  H       -1.3731370    -1.7140640    -0.2443670
  H        1.3313060    -1.7269980    -0.2572240
  H        1.2460610    -0.8115580     1.2773110
  H        0.7929870     1.6883420     0.0827150
  H       -2.2316960     0.9438620     0.0200080
  H        3.1428520    -0.1742490     0.1698040
units angstrom
no_reorient  #important for SAPT in psi4, default
symmetry c1  #important for SAPT in psi4, default
}

set PROPERTIES_ORIGIN ["COM"]
properties('MP2/aug-cc-pvtz', properties = ['dipole'])
--------------------------------------------------------------------------

    Molecular point group: c1
  Charge       = 0
  Multiplicity = 1
  Basis Set: AUG-CC-PVTZ
    Blend: AUG-CC-PVTZ
  Basis Set: (AUG-CC-PVTZ AUX)
    Blend: AUG-CC-PVTZ-JKFIT

    Orbital Energies [Eh]
    ---------------------

    Doubly Occupied:

       1A    -20.582702     2A    -20.563211     3A    -20.551424
       4A    -11.293716     5A    -11.285653     6A    -11.275973
       7A     -1.390316     8A     -1.365641     9A     -1.340406
      10A     -1.040197    11A     -0.919967    12A     -0.814740
      13A     -0.742240    14A     -0.697546    15A     -0.666857
      16A     -0.660788    17A     -0.612659    18A     -0.594765
      19A     -0.578640    20A     -0.545501    21A     -0.527611
      22A     -0.496392    23A     -0.471800    24A     -0.450835
      25A     -0.440525

  @DF-RHF Final Energy:  -342.96601191209538

   => Energetics <=

    Nuclear Repulsion Energy =            262.6662104426833366
    One-Electron Energy =                -991.4442331209770600
    Two-Electron Energy =                 385.8120107661983411
    Total Energy =                       -342.9660119120953823
  Basis Set: (AUG-CC-PVTZ AUX)
    Blend: AUG-CC-PVTZ-RI
    Molecular point group: c1

    Geometry (in Angstrom), charge = 0, multiplicity = 1:

       Center              X                  Y                   Z               Mass
    ------------   -----------------  -----------------  -----------------  -----------------
         O           -0.047342486491     1.253184737693     0.300588689111    15.994914619570
         O           -2.403694486491    -0.005266262307    -0.222520310889    15.994914619570
         O            2.343889513509     0.096111737693    -0.248768310889    15.994914619570
         C           -0.016930286491    -0.064084162307    -0.253296810889    12.000000000000
         C           -1.265907486491    -0.741991262307     0.201269689111    12.000000000000
         C            1.274595513509    -0.750278262307     0.192118689111    12.000000000000
         H            0.004085513509    -0.002191262307    -1.360259310889     1.007825032230
         H           -1.237498486491    -0.839476262307     1.297179689111     1.007825032230
         H           -1.352522486491    -1.741258262307    -0.235047310889     1.007825032230
         H            1.351920513509    -1.754192262307    -0.247904310889     1.007825032230
         H            1.266675513509    -0.838752262307     1.286630689111     1.007825032230
         H            0.813601513509     1.661147737693     0.092034689111     1.007825032230
         H           -2.211081486491     0.916667737693     0.029327689111     1.007825032230
         H            3.163466513509    -0.201443262307     0.179123689111     1.007825032230

  Basis Set: AUG-CC-PVTZ
    Blend: AUG-CC-PVTZ
  Basis Set: (AUG-CC-PVTZ AUX)
    Blend: AUG-CC-PVTZ-JKFIT
	 Reference Energy          =    -342.9660119120953823 [Eh]
	 Singles Energy            =      -0.0000000000000000 [Eh]
	 Same-Spin Energy          =      -0.3284081990474448 [Eh]
	 Opposite-Spin Energy      =      -1.0461918677873840 [Eh]
	 Correlation Energy        =      -1.3746000668348288 [Eh]
	 Total Energy              =    -344.3406119789302124 [Eh]

	 ================> DF-SCS-MP2 Energies <==================
	-----------------------------------------------------------
	 SCS Same-Spin Scale       =       0.3333333333333333 [-]
	 SCS Opposite-Spin Scale   =       1.2000000000000000 [-]
	 SCS Same-Spin Energy      =      -0.1094693996824816 [Eh]
	 SCS Opposite-Spin Energy  =      -1.2554302413448608 [Eh]
	 SCS Correlation Energy    =      -1.3648996410273424 [Eh]
	 SCS Total Energy          =    -344.3309115531227462 [Eh]
	-----------------------------------------------------------

  Dipole Moment: [D]
     X:     3.1623      Y:    -1.3309      Z:     0.9704     Total:     3.5656

*** Psi4 exiting successfully. Buy a developer a beer!
