                               Psi4 1.3.2 release

  ==> Input File <==

--------------------------------------------------------------------------
#psi4
#
memory 32 gb

molecule  {
0 1
  O       -0.0679570     1.2803790     0.2912690
  O       -2.4243090     0.0219280    -0.2318400
  O        2.3232750     0.1233060    -0.2580880
  C       -0.0144270    -0.0326130    -0.2709570
  C       -1.3666375    -0.6629217     0.1621095
  C        1.2539810    -0.7230840     0.1827990
  H       -0.0165290     0.0250030    -1.3695790
  H       -1.2581130    -0.8122820     1.2878600
  H       -1.3731370    -1.7140640    -0.2443670
  H        1.3313060    -1.7269980    -0.2572240
  H        1.2460610    -0.8115580     1.2773110
  H        0.7929870     1.6883420     0.0827150
  H       -2.2316960     0.9438620     0.0200080
  H        3.1428520    -0.1742490     0.1698040
units angstrom
no_reorient  #important for SAPT in psi4, default
symmetry c1  #important for SAPT in psi4, default
}

set PROPERTIES_ORIGIN ["COM"]
properties('MP2/aug-cc-pvtz', properties = ['dipole'])
--------------------------------------------------------------------------

    Molecular point group: c1
  Charge       = 0
  Multiplicity = 1
  Basis Set: AUG-CC-PVTZ
    Blend: AUG-CC-PVTZ
  Basis Set: (AUG-CC-PVTZ AUX)
    Blend: AUG-CC-PVTZ-JKFIT

    Orbital Energies [Eh]
    ---------------------

    Doubly Occupied:

       1A    -20.581672     2A    -20.561955     3A    -20.561589
       4A    -11.292173     5A    -11.282166     6A    -11.280342
       7A     -1.405562     8A     -1.383568     9A     -1.351114
      10A     -1.028399    11A     -0.913254    12A     -0.815787
      13A     -0.746207    14A     -0.696177    15A     -0.675075
      16A     -0.667348    17A     -0.617978    18A     -0.609251
      19A     -0.588518    20A     -0.544271    21A     -0.531977
      22A     -0.479914    23A     -0.468170    24A     -0.453494
      25A     -0.422829

  @DF-RHF Final Energy:  -342.95720279601301

   => Energetics <=

    Nuclear Repulsion Energy =            263.1088924302910073
    One-Electron Energy =                -992.2146082701970045
    Two-Electron Energy =                 386.1485130438929900
    Total Energy =                       -342.9572027960130072
  Basis Set: (AUG-CC-PVTZ AUX)
    Blend: AUG-CC-PVTZ-RI
    Molecular point group: c1

    Geometry (in Angstrom), charge = 0, multiplicity = 1:

       Center              X                  Y                   Z               Mass
    ------------   -----------------  -----------------  -----------------  -----------------
         O           -0.039911827773     1.245864304861     0.305566258039    15.994914619570
         O           -2.396263827773    -0.012586695139    -0.217542741961    15.994914619570
         O            2.351320172227     0.088791304861    -0.243790741961    15.994914619570
         C            0.013618172227    -0.067127695139    -0.256659741961    12.000000000000
         C           -1.338592327773    -0.697436395139     0.176406758039    12.000000000000
         C            1.282026172227    -0.757598695139     0.197096258039    12.000000000000
         H            0.011516172227    -0.009511695139    -1.355281741961     1.007825032230
         H           -1.230067827773    -0.846796695139     1.302157258039     1.007825032230
         H           -1.345091827773    -1.748578695139    -0.230069741961     1.007825032230
         H            1.359351172227    -1.761512695139    -0.242926741961     1.007825032230
         H            1.274106172227    -0.846072695139     1.291608258039     1.007825032230
         H            0.821032172227     1.653827304861     0.097012258039     1.007825032230
         H           -2.203650827773     0.909347304861     0.034305258039     1.007825032230
         H            3.170897172227    -0.208763695139     0.184101258039     1.007825032230

  Basis Set: AUG-CC-PVTZ
    Blend: AUG-CC-PVTZ
  Basis Set: (AUG-CC-PVTZ AUX)
    Blend: AUG-CC-PVTZ-JKFIT
	 Reference Energy          =    -342.9572027960130072 [Eh]
	 Singles Energy            =      -0.0000000000000000 [Eh]
	 Same-Spin Energy          =      -0.3285022215555829 [Eh]
	 Opposite-Spin Energy      =      -1.0452212135860046 [Eh]
	 Correlation Energy        =      -1.3737234351415875 [Eh]
	 Total Energy              =    -344.3309262311545922 [Eh]

	 ================> DF-SCS-MP2 Energies <==================
	-----------------------------------------------------------
	 SCS Same-Spin Scale       =       0.3333333333333333 [-]
	 SCS Opposite-Spin Scale   =       1.2000000000000000 [-]
	 SCS Same-Spin Energy      =      -0.1095007405185276 [Eh]
	 SCS Opposite-Spin Energy  =      -1.2542654563032054 [Eh]
	 SCS Correlation Energy    =      -1.3637661968217329 [Eh]
	 SCS Total Energy          =    -344.3209689928347643 [Eh]
	-----------------------------------------------------------

  Dipole Moment: [D]
     X:     2.8587      Y:    -1.1097      Z:     0.8405     Total:     3.1796

*** Psi4 exiting successfully. Buy a developer a beer!
