                               Psi4 1.3.2 release

  ==> Input File <==

--------------------------------------------------------------------------
#psi4
#
memory 32 gb

molecule  {
0 1
  O       -0.0679570     1.2803790     0.2912690
  O       -2.4243090     0.0219280    -0.2318400
  O        2.3232750     0.1233060    -0.2580880
  C       -0.0144270    -0.0326130    -0.2709570
  C       -1.4467530    -0.6110463     0.1322690
  C        1.2539810    -0.7230840     0.1827990
  H       -0.0165290     0.0250030    -1.3695790
  H       -1.2581130    -0.8122820     1.2878600
  H       -1.3731370    -1.7140640    -0.2443670
  H        1.3313060    -1.7269980    -0.2572240
  H        1.2460610    -0.8115580     1.2773110
  H        0.7929870     1.6883420     0.0827150
  H       -2.2316960     0.9438620     0.0200080
  H        3.1428520    -0.1742490     0.1698040
units angstrom
no_reorient  #important for SAPT in psi4, default
symmetry c1  #important for SAPT in psi4, default
}

set PROPERTIES_ORIGIN ["COM"]
properties('MP2/aug-cc-pvtz', properties = ['dipole'])
--------------------------------------------------------------------------

    Molecular point group: c1
  Charge       = 0
  Multiplicity = 1
  Basis Set: AUG-CC-PVTZ
    Blend: AUG-CC-PVTZ
  Basis Set: (AUG-CC-PVTZ AUX)
    Blend: AUG-CC-PVTZ-JKFIT

    Orbital Energies [Eh]
    ---------------------

    Doubly Occupied:

       1A    -20.580483     2A    -20.574637     3A    -20.560300
       4A    -11.290778     5A    -11.288374     6A    -11.279030
       7A     -1.461939     8A     -1.384692     9A     -1.351399
      10A     -1.018529    11A     -0.908286    12A     -0.824997
      13A     -0.752611    14A     -0.698386    15A     -0.686094
      16A     -0.671539    17A     -0.636198    18A     -0.630219
      19A     -0.592295    20A     -0.544762    21A     -0.531865
      22A     -0.471816    23A     -0.455656    24A     -0.445535
      25A     -0.400153

  @DF-RHF Final Energy:  -342.91997037827701

   => Energetics <=

    Nuclear Repulsion Energy =            263.7820598607705165
    One-Electron Energy =                -993.3229120683567999
    Two-Electron Energy =                 386.6208818293093259
    Total Energy =                       -342.9199703782770143
  Basis Set: (AUG-CC-PVTZ AUX)
    Blend: AUG-CC-PVTZ-RI
    Molecular point group: c1

    Geometry (in Angstrom), charge = 0, multiplicity = 1:

       Center              X                  Y                   Z               Mass
    ------------   -----------------  -----------------  -----------------  -----------------
         O           -0.029467354777     1.239101428583     0.309456495215    15.994914619570
         O           -2.385819354777    -0.019349571417    -0.213652504785    15.994914619570
         O            2.361764645223     0.082028428583    -0.239900504785    15.994914619570
         C            0.024062645223    -0.073890571417    -0.252769504785    12.000000000000
         C           -1.408263354777    -0.652323871417     0.150456495215    12.000000000000
         C            1.292470645223    -0.764361571417     0.200986495215    12.000000000000
         H            0.021960645223    -0.016274571417    -1.351391504785     1.007825032230
         H           -1.219623354777    -0.853559571417     1.306047495215     1.007825032230
         H           -1.334647354777    -1.755341571417    -0.226179504785     1.007825032230
         H            1.369795645223    -1.768275571417    -0.239036504785     1.007825032230
         H            1.284550645223    -0.852835571417     1.295498495215     1.007825032230
         H            0.831476645223     1.647064428583     0.100902495215     1.007825032230
         H           -2.193206354777     0.902584428583     0.038195495215     1.007825032230
         H            3.181341645223    -0.215526571417     0.187991495215     1.007825032230

  Basis Set: AUG-CC-PVTZ
    Blend: AUG-CC-PVTZ
  Basis Set: (AUG-CC-PVTZ AUX)
    Blend: AUG-CC-PVTZ-JKFIT
	 Reference Energy          =    -342.9199703782770143 [Eh]
	 Singles Energy            =      -0.0000000000000000 [Eh]
	 Same-Spin Energy          =      -0.3292831033307579 [Eh]
	 Opposite-Spin Energy      =      -1.0454094700345866 [Eh]
	 Correlation Energy        =      -1.3746925733653446 [Eh]
	 Total Energy              =    -344.2946629516423513 [Eh]

	 ================> DF-SCS-MP2 Energies <==================
	-----------------------------------------------------------
	 SCS Same-Spin Scale       =       0.3333333333333333 [-]
	 SCS Opposite-Spin Scale   =       1.2000000000000000 [-]
	 SCS Same-Spin Energy      =      -0.1097610344435860 [Eh]
	 SCS Opposite-Spin Energy  =      -1.2544913640415039 [Eh]
	 SCS Correlation Energy    =      -1.3642523984850898 [Eh]
	 SCS Total Energy          =    -344.2842227767620784 [Eh]
	-----------------------------------------------------------

  Dipole Moment: [D]
     X:     2.4498      Y:    -0.8285      Z:     0.6634     Total:     2.6699

*** Psi4 exiting successfully. Buy a developer a beer!
