                               Psi4 1.3.2 release

  ==> Input File <==

--------------------------------------------------------------------------
#psi4
#
memory 32 gb

molecule  {
0 1
  O       -0.0679570     1.2803790     0.2912690
  O       -2.4243090     0.0219280    -0.2318400
  O        2.3232750     0.1233060    -0.2580880
  C       -0.0144270    -0.0326130    -0.2709570
  C       -1.2865220    -0.7147970     0.1919500
  C        1.2539810    -0.7230840     0.1827990
  H       -0.0165290     0.0250030    -1.3695790
  H       -1.2581130    -0.8122820     1.2878600
  H       -1.3731370    -1.7140640    -0.2443670
  H        1.3313060    -1.7269980    -0.2572240
  H        1.2460610    -0.8115580     1.2773110
  H        0.7929870     1.6883420     0.0827150
  H       -2.2712092     0.7547339    -0.0316568
  H        3.1428520    -0.1742490     0.1698040
units angstrom
no_reorient  #important for SAPT in psi4, default
symmetry c1  #important for SAPT in psi4, default
}

set PROPERTIES_ORIGIN ["COM"]
properties('MP2/aug-cc-pvtz', properties = ['dipole'])
--------------------------------------------------------------------------

    Molecular point group: c1
  Charge       = 0
  Multiplicity = 1
  Basis Set: AUG-CC-PVTZ
    Blend: AUG-CC-PVTZ
  Basis Set: (AUG-CC-PVTZ AUX)
    Blend: AUG-CC-PVTZ-JKFIT

    Orbital Energies [Eh]
    ---------------------

    Doubly Occupied:

       1A    -20.583005     2A    -20.562525     3A    -20.532729
       4A    -11.294050     5A    -11.285979     6A    -11.279369
       7A     -1.418851     8A     -1.386616     9A     -1.353122
      10A     -1.045004    11A     -0.932289    12A     -0.824441
      13A     -0.750649    14A     -0.701880    15A     -0.685695
      16A     -0.666693    17A     -0.615928    18A     -0.598578
      19A     -0.583403    20A     -0.545649    21A     -0.533643
      22A     -0.502942    23A     -0.472848    24A     -0.455791
      25A     -0.444527

  @DF-RHF Final Energy:  -342.92095564160138

   => Energetics <=

    Nuclear Repulsion Energy =            263.8343545509173396
    One-Electron Energy =                -993.3982055160944356
    Two-Electron Energy =                 386.6428953235757717
    Total Energy =                       -342.9209556416013811
  Basis Set: (AUG-CC-PVTZ AUX)
    Blend: AUG-CC-PVTZ-RI
    Molecular point group: c1

    Geometry (in Angstrom), charge = 0, multiplicity = 1:

       Center              X                  Y                   Z               Mass
    ------------   -----------------  -----------------  -----------------  -----------------
         O           -0.049923671317     1.254697928919     0.302241698007    15.994914619570
         O           -2.406275671317    -0.003753071081    -0.220867301993    15.994914619570
         O            2.341308328683     0.097624928919    -0.247115301993    15.994914619570
         C            0.003606328683    -0.058294071081    -0.259984301993    12.000000000000
         C           -1.268488671317    -0.740478071081     0.202922698007    12.000000000000
         C            1.272014328683    -0.748765071081     0.193771698007    12.000000000000
         H            0.001504328683    -0.000678071081    -1.358606301993     1.007825032230
         H           -1.240079671317    -0.837963071081     1.298832698007     1.007825032230
         H           -1.355103671317    -1.739745071081    -0.233394301993     1.007825032230
         H            1.349339328683    -1.752679071081    -0.246251301993     1.007825032230
         H            1.264094328683    -0.837239071081     1.288283698007     1.007825032230
         H            0.811020328683     1.662660928919     0.093687698007     1.007825032230
         H           -2.253175871317     0.729052828919    -0.020684101993     1.007825032230
         H            3.160885328683    -0.199930071081     0.180776698007     1.007825032230

  Basis Set: AUG-CC-PVTZ
    Blend: AUG-CC-PVTZ
  Basis Set: (AUG-CC-PVTZ AUX)
    Blend: AUG-CC-PVTZ-JKFIT
	 Reference Energy          =    -342.9209556416013811 [Eh]
	 Singles Energy            =      -0.0000000000000000 [Eh]
	 Same-Spin Energy          =      -0.3259967668593637 [Eh]
	 Opposite-Spin Energy      =      -1.0408834415022181 [Eh]
	 Correlation Energy        =      -1.3668802083615819 [Eh]
	 Total Energy              =    -344.2878358499629599 [Eh]

	 ================> DF-SCS-MP2 Energies <==================
	-----------------------------------------------------------
	 SCS Same-Spin Scale       =       0.3333333333333333 [-]
	 SCS Opposite-Spin Scale   =       1.2000000000000000 [-]
	 SCS Same-Spin Energy      =      -0.1086655889531212 [Eh]
	 SCS Opposite-Spin Energy  =      -1.2490601298026618 [Eh]
	 SCS Correlation Energy    =      -1.3577257187557830 [Eh]
	 SCS Total Energy          =    -344.2786813603571545 [Eh]
	-----------------------------------------------------------

  Dipole Moment: [D]
     X:     3.1793      Y:    -1.5316      Z:     0.9370     Total:     3.6512

*** Psi4 exiting successfully. Buy a developer a beer!
