                               Psi4 1.3.2 release

  ==> Input File <==

--------------------------------------------------------------------------
#psi4
#
memory 32 gb

molecule  {
0 1
  O       -0.0679570     1.2803790     0.2912690
  O       -2.4243090     0.0219280    -0.2318400
  O        2.3232750     0.1233060    -0.2580880
  C        0.0317527    -0.0228607    -0.2871217
  C       -1.2865220    -0.7147970     0.1919500
  C        1.2539810    -0.7230840     0.1827990
  H       -0.0165290     0.0250030    -1.3695790
  H       -1.2581130    -0.8122820     1.2878600
  H       -1.3731370    -1.7140640    -0.2443670
  H        1.3313060    -1.7269980    -0.2572240
  H        1.2460610    -0.8115580     1.2773110
  H        0.7929870     1.6883420     0.0827150
  H       -2.2316960     0.9438620     0.0200080
  H        3.1428520    -0.1742490     0.1698040
units angstrom
no_reorient  #important for SAPT in psi4, default
symmetry c1  #important for SAPT in psi4, default
}

set PROPERTIES_ORIGIN ["COM"]
properties('MP2/aug-cc-pvtz', properties = ['dipole'])
--------------------------------------------------------------------------

    Molecular point group: c1
  Charge       = 0
  Multiplicity = 1
  Basis Set: AUG-CC-PVTZ
    Blend: AUG-CC-PVTZ
  Basis Set: (AUG-CC-PVTZ AUX)
    Blend: AUG-CC-PVTZ-JKFIT

    Orbital Energies [Eh]
    ---------------------

    Doubly Occupied:

       1A    -20.582176     2A    -20.564981     3A    -20.550787
       4A    -11.292397     5A    -11.283333     6A    -11.277097
       7A     -1.392117     8A     -1.364459     9A     -1.340238
      10A     -1.038314    11A     -0.914953    12A     -0.816200
      13A     -0.743149    14A     -0.698613    15A     -0.667482
      16A     -0.658331    17A     -0.608529    18A     -0.594599
      19A     -0.575973    20A     -0.545869    21A     -0.534552
      22A     -0.488983    23A     -0.471526    24A     -0.461093
      25A     -0.433073

  @DF-RHF Final Energy:  -342.96332748062747

   => Energetics <=

    Nuclear Repulsion Energy =            262.5100985504154778
    One-Electron Energy =                -991.1492041735366456
    Two-Electron Energy =                 385.6757781424936979
    Total Energy =                       -342.9633274806274699
  Basis Set: (AUG-CC-PVTZ AUX)
    Blend: AUG-CC-PVTZ-RI
    Molecular point group: c1

    Geometry (in Angstrom), charge = 0, multiplicity = 1:

       Center              X                  Y                   Z               Mass
    ------------   -----------------  -----------------  -----------------  -----------------
         O           -0.056376641773     1.251355783239     0.303783375528    15.994914619570
         O           -2.412728641773    -0.007095216761    -0.219325624472    15.994914619570
         O            2.334855358227     0.094282783239    -0.245573624472    15.994914619570
         C            0.043333058227    -0.051883916761    -0.274607324472    12.000000000000
         C           -1.274941641773    -0.743820216761     0.204464375528    12.000000000000
         C            1.265561358227    -0.752107216761     0.195313375528    12.000000000000
         H           -0.004948641773    -0.004020216761    -1.357064624472     1.007825032230
         H           -1.246532641773    -0.841305216761     1.300374375528     1.007825032230
         H           -1.361556641773    -1.743087216761    -0.231852624472     1.007825032230
         H            1.342886358227    -1.756021216761    -0.244709624472     1.007825032230
         H            1.257641358227    -0.840581216761     1.289825375528     1.007825032230
         H            0.804567358227     1.659318783239     0.095229375528     1.007825032230
         H           -2.220115641773     0.914838783239     0.032522375528     1.007825032230
         H            3.154432358227    -0.203272216761     0.182318375528     1.007825032230

  Basis Set: AUG-CC-PVTZ
    Blend: AUG-CC-PVTZ
  Basis Set: (AUG-CC-PVTZ AUX)
    Blend: AUG-CC-PVTZ-JKFIT
	 Reference Energy          =    -342.9633274806274699 [Eh]
	 Singles Energy            =      -0.0000000000000000 [Eh]
	 Same-Spin Energy          =      -0.3285885285831501 [Eh]
	 Opposite-Spin Energy      =      -1.0467782268237187 [Eh]
	 Correlation Energy        =      -1.3753667554068687 [Eh]
	 Total Energy              =    -344.3386942360343141 [Eh]

	 ================> DF-SCS-MP2 Energies <==================
	-----------------------------------------------------------
	 SCS Same-Spin Scale       =       0.3333333333333333 [-]
	 SCS Opposite-Spin Scale   =       1.2000000000000000 [-]
	 SCS Same-Spin Energy      =      -0.1095295095277167 [Eh]
	 SCS Opposite-Spin Energy  =      -1.2561338721884623 [Eh]
	 SCS Correlation Energy    =      -1.3656633817161790 [Eh]
	 SCS Total Energy          =    -344.3289908623436304 [Eh]
	-----------------------------------------------------------

  Dipole Moment: [D]
     X:     3.2205      Y:    -1.3046      Z:     0.9581     Total:     3.6044

*** Psi4 exiting successfully. Buy a developer a beer!
