                               Psi4 1.3.2 release

  ==> Input File <==

--------------------------------------------------------------------------
#psi4
#
memory 32 gb

molecule  {
0 1
  O       -0.0679570     1.2803790     0.2912690
  O       -2.4243090     0.0219280    -0.2318400
  O        2.3232750     0.1233060    -0.2580880
  C       -0.0144270    -0.0326130    -0.2709570
  C       -1.2865220    -0.7147970     0.1919500
  C        1.2539810    -0.7230840     0.1827990
  H       -0.0165290     0.0250030    -1.3695790
  H       -1.2581130    -0.8122820     1.2878600
  H       -1.3731370    -1.7140640    -0.2443670
  H        1.3313060    -1.7269980    -0.2572240
  H        1.2460610    -0.8115580     1.2773110
  H        0.7929870     1.6883420     0.0827150
  H       -2.2316960     0.9438620     0.0200080
  H        3.1428520    -0.1742490     0.1698040
units angstrom
no_reorient  #important for SAPT in psi4, default
symmetry c1  #important for SAPT in psi4, default
}

set PROPERTIES_ORIGIN ["COM"]
properties('MP2/aug-cc-pvtz', properties = ['dipole'])
--------------------------------------------------------------------------

    Molecular point group: c1
  Charge       = 0
  Multiplicity = 1
  Basis Set: AUG-CC-PVTZ
    Blend: AUG-CC-PVTZ
  Basis Set: (AUG-CC-PVTZ AUX)
    Blend: AUG-CC-PVTZ-JKFIT

    Orbital Energies [Eh]
    ---------------------

    Doubly Occupied:

       1A    -20.582537     2A    -20.563757     3A    -20.551192
       4A    -11.293260     5A    -11.284760     6A    -11.276419
       7A     -1.390838     8A     -1.365176     9A     -1.340347
      10A     -1.039119    11A     -0.918473    12A     -0.815185
      13A     -0.742564    14A     -0.697800    15A     -0.666956
      16A     -0.660003    17A     -0.610734    18A     -0.595001
      19A     -0.577720    20A     -0.545433    21A     -0.530037
      22A     -0.493875    23A     -0.471803    24A     -0.454376
      25A     -0.438725

  @DF-RHF Final Energy:  -342.96651010764873

   => Energetics <=

    Nuclear Repulsion Energy =            262.6075005264324318
    One-Electron Energy =                -991.3358432303634800
    Two-Electron Energy =                 385.7618325962823178
    Total Energy =                       -342.9665101076487304
  Basis Set: (AUG-CC-PVTZ AUX)
    Blend: AUG-CC-PVTZ-RI
    Molecular point group: c1

    Geometry (in Angstrom), charge = 0, multiplicity = 1:

       Center              X                  Y                   Z               Mass
    ------------   -----------------  -----------------  -----------------  -----------------
         O           -0.050356300770     1.252627168103     0.301676020864    15.994914619570
         O           -2.406708300770    -0.005823831897    -0.221432979136    15.994914619570
         O            2.340875699230     0.095554168103    -0.247680979136    15.994914619570
         C            0.003173699230    -0.060364831897    -0.260549979136    12.000000000000
         C           -1.268921300770    -0.742548831897     0.202357020864    12.000000000000
         C            1.271581699230    -0.750835831897     0.193206020864    12.000000000000
         H            0.001071699230    -0.002748831897    -1.359171979136     1.007825032230
         H           -1.240512300770    -0.840033831897     1.298267020864     1.007825032230
         H           -1.355536300770    -1.741815831897    -0.233959979136     1.007825032230
         H            1.348906699230    -1.754749831897    -0.246816979136     1.007825032230
         H            1.263661699230    -0.839309831897     1.287718020864     1.007825032230
         H            0.810587699230     1.660590168103     0.093122020864     1.007825032230
         H           -2.214095300770     0.916110168103     0.030415020864     1.007825032230
         H            3.160452699230    -0.202000831897     0.180211020864     1.007825032230

  Basis Set: AUG-CC-PVTZ
    Blend: AUG-CC-PVTZ
  Basis Set: (AUG-CC-PVTZ AUX)
    Blend: AUG-CC-PVTZ-JKFIT
	 Reference Energy          =    -342.9665101076487304 [Eh]
	 Singles Energy            =      -0.0000000000000000 [Eh]
	 Same-Spin Energy          =      -0.3284029403276816 [Eh]
	 Opposite-Spin Energy      =      -1.0462717735095026 [Eh]
	 Correlation Energy        =      -1.3746747138371842 [Eh]
	 Total Energy              =    -344.3411848214859106 [Eh]

	 ================> DF-SCS-MP2 Energies <==================
	-----------------------------------------------------------
	 SCS Same-Spin Scale       =       0.3333333333333333 [-]
	 SCS Opposite-Spin Scale   =       1.2000000000000000 [-]
	 SCS Same-Spin Energy      =      -0.1094676467758939 [Eh]
	 SCS Opposite-Spin Energy  =      -1.2555261282114032 [Eh]
	 SCS Correlation Energy    =      -1.3649937749872971 [Eh]
	 SCS Total Energy          =    -344.3315038826360137 [Eh]
	-----------------------------------------------------------

  Dipole Moment: [D]
     X:     3.1834      Y:    -1.3224      Z:     0.9654     Total:     3.5798

*** Psi4 exiting successfully. Buy a developer a beer!
