                               Psi4 1.3.2 release

  ==> Input File <==

--------------------------------------------------------------------------
#psi4
#
memory 32 gb

molecule  {
0 1
  O       -0.0679570     1.2803790     0.2912690
  O       -2.3939816     0.0548047    -0.2532100
  O        2.3232750     0.1233060    -0.2580880
  C       -0.0144270    -0.0326130    -0.2709570
  C       -1.2865220    -0.7147970     0.1919500
  C        1.2539810    -0.7230840     0.1827990
  H       -0.0165290     0.0250030    -1.3695790
  H       -1.2581130    -0.8122820     1.2878600
  H       -1.3731370    -1.7140640    -0.2443670
  H        1.3313060    -1.7269980    -0.2572240
  H        1.2460610    -0.8115580     1.2773110
  H        0.7929870     1.6883420     0.0827150
  H       -2.2316960     0.9438620     0.0200080
  H        3.1428520    -0.1742490     0.1698040
units angstrom
no_reorient  #important for SAPT in psi4, default
symmetry c1  #important for SAPT in psi4, default
}

set PROPERTIES_ORIGIN ["COM"]
properties('MP2/aug-cc-pvtz', properties = ['dipole'])
--------------------------------------------------------------------------

    Molecular point group: c1
  Charge       = 0
  Multiplicity = 1
  Basis Set: AUG-CC-PVTZ
    Blend: AUG-CC-PVTZ
  Basis Set: (AUG-CC-PVTZ AUX)
    Blend: AUG-CC-PVTZ-JKFIT

    Orbital Energies [Eh]
    ---------------------

    Doubly Occupied:

       1A    -20.581829     2A    -20.562652     3A    -20.547519
       4A    -11.292318     5A    -11.283461     6A    -11.277299
       7A     -1.390705     8A     -1.367326     9A     -1.342511
      10A     -1.039115    11A     -0.920203    12A     -0.815594
      13A     -0.742884    14A     -0.697831    15A     -0.667502
      16A     -0.664365    17A     -0.609702    18A     -0.594101
      19A     -0.580631    20A     -0.544673    21A     -0.528954
      22A     -0.494259    23A     -0.471217    24A     -0.453209
      25A     -0.439141

  @DF-RHF Final Energy:  -342.96727794120943

   => Energetics <=

    Nuclear Repulsion Energy =            263.1558547225091047
    One-Electron Energy =                -992.4282655258591603
    Two-Electron Energy =                 386.3051328621406810
    Total Energy =                       -342.9672779412094314
  Basis Set: (AUG-CC-PVTZ AUX)
    Blend: AUG-CC-PVTZ-RI
    Molecular point group: c1

    Geometry (in Angstrom), charge = 0, multiplicity = 1:

       Center              X                  Y                   Z               Mass
    ------------   -----------------  -----------------  -----------------  -----------------
         O           -0.055626242866     1.246914238365     0.305389450389    15.994914619570
         O           -2.381650842866     0.021339938365    -0.239089549611    15.994914619570
         O            2.335605757134     0.089841238365    -0.243967549611    15.994914619570
         C           -0.002096242866    -0.066077761635    -0.256836549611    12.000000000000
         C           -1.274191242866    -0.748261761635     0.206070450389    12.000000000000
         C            1.266311757134    -0.756548761635     0.196919450389    12.000000000000
         H           -0.004198242866    -0.008461761635    -1.355458549611     1.007825032230
         H           -1.245782242866    -0.845746761635     1.301980450389     1.007825032230
         H           -1.360806242866    -1.747528761635    -0.230246549611     1.007825032230
         H            1.343636757134    -1.760462761635    -0.243103549611     1.007825032230
         H            1.258391757134    -0.845022761635     1.291431450389     1.007825032230
         H            0.805317757134     1.654877238365     0.096835450389     1.007825032230
         H           -2.219365242866     0.910397238365     0.034128450389     1.007825032230
         H            3.155182757134    -0.207713761635     0.183924450389     1.007825032230

  Basis Set: AUG-CC-PVTZ
    Blend: AUG-CC-PVTZ
  Basis Set: (AUG-CC-PVTZ AUX)
    Blend: AUG-CC-PVTZ-JKFIT
	 Reference Energy          =    -342.9672779412094314 [Eh]
	 Singles Energy            =      -0.0000000000000000 [Eh]
	 Same-Spin Energy          =      -0.3280225694222462 [Eh]
	 Opposite-Spin Energy      =      -1.0452680023061121 [Eh]
	 Correlation Energy        =      -1.3732905717283583 [Eh]
	 Total Energy              =    -344.3405685129378071 [Eh]

	 ================> DF-SCS-MP2 Energies <==================
	-----------------------------------------------------------
	 SCS Same-Spin Scale       =       0.3333333333333333 [-]
	 SCS Opposite-Spin Scale   =       1.2000000000000000 [-]
	 SCS Same-Spin Energy      =      -0.1093408564740821 [Eh]
	 SCS Opposite-Spin Energy  =      -1.2543216027673345 [Eh]
	 SCS Correlation Energy    =      -1.3636624592414166 [Eh]
	 SCS Total Energy          =    -344.3309404004508565 [Eh]
	-----------------------------------------------------------

  Dipole Moment: [D]
     X:     3.1043      Y:    -1.3880      Z:     1.0269     Total:     3.5522

*** Psi4 exiting successfully. Buy a developer a beer!
