                               Psi4 1.3.2 release

  ==> Input File <==

--------------------------------------------------------------------------
#psi4
#
memory 32 gb

molecule  {
0 1
  O       -0.0679570     1.2803790     0.2912690
  O       -2.4243090     0.0219280    -0.2318400
  O        2.3232750     0.1233060    -0.2580880
  C       -0.0144270    -0.0326130    -0.2709570
  C       -1.3544768    -0.8356234     0.1382758
  C        1.2539810    -0.7230840     0.1827990
  H       -0.0165290     0.0250030    -1.3695790
  H       -1.2581130    -0.8122820     1.2878600
  H       -1.3731370    -1.7140640    -0.2443670
  H        1.3313060    -1.7269980    -0.2572240
  H        1.2460610    -0.8115580     1.2773110
  H        0.7929870     1.6883420     0.0827150
  H       -2.2316960     0.9438620     0.0200080
  H        3.1428520    -0.1742490     0.1698040
units angstrom
no_reorient  #important for SAPT in psi4, default
symmetry c1  #important for SAPT in psi4, default
}

set PROPERTIES_ORIGIN ["COM"]
properties('MP2/aug-cc-pvtz', properties = ['dipole'])
--------------------------------------------------------------------------

    Molecular point group: c1
  Charge       = 0
  Multiplicity = 1
  Basis Set: AUG-CC-PVTZ
    Blend: AUG-CC-PVTZ
  Basis Set: (AUG-CC-PVTZ AUX)
    Blend: AUG-CC-PVTZ-JKFIT

    Orbital Energies [Eh]
    ---------------------

    Doubly Occupied:

       1A    -20.580335     2A    -20.564678     3A    -20.548645
       4A    -11.290713     5A    -11.287363     6A    -11.279470
       7A     -1.387876     8A     -1.361408     9A     -1.338640
      10A     -1.028935    11A     -0.923358    12A     -0.819372
      13A     -0.739275    14A     -0.691679    15A     -0.663248
      16A     -0.663102    17A     -0.624286    18A     -0.604313
      19A     -0.580375    20A     -0.542570    21A     -0.530802
      22A     -0.489635    23A     -0.469338    24A     -0.452272
      25A     -0.416245

  @DF-RHF Final Energy:  -342.93953619300970

   => Energetics <=

    Nuclear Repulsion Energy =            260.9522029701157066
    One-Electron Energy =                -988.0276154426676385
    Two-Electron Energy =                 384.1358762795422876
    Total Energy =                       -342.9395361930097010
  Basis Set: (AUG-CC-PVTZ AUX)
    Blend: AUG-CC-PVTZ-RI
    Molecular point group: c1

    Geometry (in Angstrom), charge = 0, multiplicity = 1:

       Center              X                  Y                   Z               Mass
    ------------   -----------------  -----------------  -----------------  -----------------
         O           -0.041497190191     1.268379027256     0.308673402550    15.994914619570
         O           -2.397849190191     0.009928027256    -0.214435597450    15.994914619570
         O            2.349734809809     0.111306027256    -0.240683597450    15.994914619570
         C            0.012032809809    -0.044612972744    -0.253552597450    12.000000000000
         C           -1.328016990191    -0.847623372744     0.155680202550    12.000000000000
         C            1.280440809809    -0.735083972744     0.200203402550    12.000000000000
         H            0.009930809809     0.013003027256    -1.352174597450     1.007825032230
         H           -1.231653190191    -0.824281972744     1.305264402550     1.007825032230
         H           -1.346677190191    -1.726063972744    -0.226962597450     1.007825032230
         H            1.357765809809    -1.738997972744    -0.239819597450     1.007825032230
         H            1.272520809809    -0.823557972744     1.294715402550     1.007825032230
         H            0.819446809809     1.676342027256     0.100119402550     1.007825032230
         H           -2.205236190191     0.931862027256     0.037412402550     1.007825032230
         H            3.169311809809    -0.186248972744     0.187208402550     1.007825032230

  Basis Set: AUG-CC-PVTZ
    Blend: AUG-CC-PVTZ
  Basis Set: (AUG-CC-PVTZ AUX)
    Blend: AUG-CC-PVTZ-JKFIT
	 Reference Energy          =    -342.9395361930097010 [Eh]
	 Singles Energy            =      -0.0000000000000000 [Eh]
	 Same-Spin Energy          =      -0.3280937055905430 [Eh]
	 Opposite-Spin Energy      =      -1.0464354565070595 [Eh]
	 Correlation Energy        =      -1.3745291620976023 [Eh]
	 Total Energy              =    -344.3140653551072887 [Eh]

	 ================> DF-SCS-MP2 Energies <==================
	-----------------------------------------------------------
	 SCS Same-Spin Scale       =       0.3333333333333333 [-]
	 SCS Opposite-Spin Scale   =       1.2000000000000000 [-]
	 SCS Same-Spin Energy      =      -0.1093645685301810 [Eh]
	 SCS Opposite-Spin Energy  =      -1.2557225478084713 [Eh]
	 SCS Correlation Energy    =      -1.3650871163386522 [Eh]
	 SCS Total Energy          =    -344.3046233093483579 [Eh]
	-----------------------------------------------------------

  Dipole Moment: [D]
     X:     3.0699      Y:    -1.4231      Z:     0.8880     Total:     3.4983

*** Psi4 exiting successfully. Buy a developer a beer!
