                               Psi4 1.3.2 release

  ==> Input File <==

--------------------------------------------------------------------------
#psi4
#
memory 32 gb

molecule  {
0 1
  O       -0.0679570     1.2803790     0.2912690
  O       -2.4243090     0.0219280    -0.2318400
  O        2.3232750     0.1233060    -0.2580880
  C        0.1236916     0.0013935    -0.3173183
  C       -1.2865220    -0.7147970     0.1919500
  C        1.2539810    -0.7230840     0.1827990
  H       -0.0165290     0.0250030    -1.3695790
  H       -1.2581130    -0.8122820     1.2878600
  H       -1.3731370    -1.7140640    -0.2443670
  H        1.3313060    -1.7269980    -0.2572240
  H        1.2460610    -0.8115580     1.2773110
  H        0.7929870     1.6883420     0.0827150
  H       -2.2316960     0.9438620     0.0200080
  H        3.1428520    -0.1742490     0.1698040
units angstrom
no_reorient  #important for SAPT in psi4, default
symmetry c1  #important for SAPT in psi4, default
}

set PROPERTIES_ORIGIN ["COM"]
properties('MP2/aug-cc-pvtz', properties = ['dipole'])
--------------------------------------------------------------------------

    Molecular point group: c1
  Charge       = 0
  Multiplicity = 1
  Basis Set: AUG-CC-PVTZ
    Blend: AUG-CC-PVTZ
  Basis Set: (AUG-CC-PVTZ AUX)
    Blend: AUG-CC-PVTZ-JKFIT

    Orbital Energies [Eh]
    ---------------------

    Doubly Occupied:

       1A    -20.581404     2A    -20.567987     3A    -20.550163
       4A    -11.290973     5A    -11.282194     6A    -11.277534
       7A     -1.395618     8A     -1.363966     9A     -1.340037
      10A     -1.040660    11A     -0.906783    12A     -0.818424
      13A     -0.744472    14A     -0.701325    15A     -0.668598
      16A     -0.655158    17A     -0.609799    18A     -0.590878
      19A     -0.573228    20A     -0.549642    21A     -0.540826
      22A     -0.483405    23A     -0.473370    24A     -0.466755
      25A     -0.414378

  @DF-RHF Final Energy:  -342.94222583030069

   => Energetics <=

    Nuclear Repulsion Energy =            262.3815538598345825
    One-Electron Energy =                -990.8724066472912000
    Two-Electron Energy =                 385.5486269571558751
    Total Energy =                       -342.9422258303006856
  Basis Set: (AUG-CC-PVTZ AUX)
    Blend: AUG-CC-PVTZ-RI
    Molecular point group: c1

    Geometry (in Angstrom), charge = 0, multiplicity = 1:

       Center              X                  Y                   Z               Mass
    ------------   -----------------  -----------------  -----------------  -----------------
         O           -0.068362504163     1.248193819113     0.307720036640    15.994914619570
         O           -2.424714504163    -0.010257180887    -0.215388963360    15.994914619570
         O            2.322869495837     0.091120819113    -0.241636963360    15.994914619570
         C            0.123286095837    -0.030791680887    -0.300867263360    12.000000000000
         C           -1.286927504163    -0.746982180887     0.208401036640    12.000000000000
         C            1.253575495837    -0.755269180887     0.199250036640    12.000000000000
         H           -0.016934504163    -0.007182180887    -1.353127963360     1.007825032230
         H           -1.258518504163    -0.844467180887     1.304311036640     1.007825032230
         H           -1.373542504163    -1.746249180887    -0.227915963360     1.007825032230
         H            1.330900495837    -1.759183180887    -0.240772963360     1.007825032230
         H            1.245655495837    -0.843743180887     1.293762036640     1.007825032230
         H            0.792581495837     1.656156819113     0.099166036640     1.007825032230
         H           -2.232101504163     0.911676819113     0.036459036640     1.007825032230
         H            3.142446495837    -0.206434180887     0.186255036640     1.007825032230

  Basis Set: AUG-CC-PVTZ
    Blend: AUG-CC-PVTZ
  Basis Set: (AUG-CC-PVTZ AUX)
    Blend: AUG-CC-PVTZ-JKFIT
	 Reference Energy          =    -342.9422258303006856 [Eh]
	 Singles Energy            =      -0.0000000000000000 [Eh]
	 Same-Spin Energy          =      -0.3297136629118033 [Eh]
	 Opposite-Spin Energy      =      -1.0491229243922875 [Eh]
	 Correlation Energy        =      -1.3788365873040909 [Eh]
	 Total Energy              =    -344.3210624176047645 [Eh]

	 ================> DF-SCS-MP2 Energies <==================
	-----------------------------------------------------------
	 SCS Same-Spin Scale       =       0.3333333333333333 [-]
	 SCS Opposite-Spin Scale   =       1.2000000000000000 [-]
	 SCS Same-Spin Energy      =      -0.1099045543039344 [Eh]
	 SCS Opposite-Spin Energy  =      -1.2589475092707449 [Eh]
	 SCS Correlation Energy    =      -1.3688520635746793 [Eh]
	 SCS Total Energy          =    -344.3110778938753924 [Eh]
	-----------------------------------------------------------

  Dipole Moment: [D]
     X:     3.2719      Y:    -1.2640      Z:     0.9531     Total:     3.6347

*** Psi4 exiting successfully. Buy a developer a beer!
