                               Psi4 1.3.2 release

  ==> Input File <==

--------------------------------------------------------------------------
#psi4
#
memory 32 gb

molecule  {
0 1
  O       -0.0700221     1.3319076     0.1508300
  O       -2.4243090     0.0219280    -0.2318400
  O        2.3232750     0.1233060    -0.2580880
  C       -0.0144270    -0.0326130    -0.2709570
  C       -1.2865220    -0.7147970     0.1919500
  C        1.2539810    -0.7230840     0.1827990
  H       -0.0165290     0.0250030    -1.3695790
  H       -1.2581130    -0.8122820     1.2878600
  H       -1.3731370    -1.7140640    -0.2443670
  H        1.3313060    -1.7269980    -0.2572240
  H        1.2460610    -0.8115580     1.2773110
  H        0.7929870     1.6883420     0.0827150
  H       -2.2316960     0.9438620     0.0200080
  H        3.1428520    -0.1742490     0.1698040
units angstrom
no_reorient  #important for SAPT in psi4, default
symmetry c1  #important for SAPT in psi4, default
}

set PROPERTIES_ORIGIN ["COM"]
properties('MP2/aug-cc-pvtz', properties = ['dipole'])
--------------------------------------------------------------------------

    Molecular point group: c1
  Charge       = 0
  Multiplicity = 1
  Basis Set: AUG-CC-PVTZ
    Blend: AUG-CC-PVTZ
  Basis Set: (AUG-CC-PVTZ AUX)
    Blend: AUG-CC-PVTZ-JKFIT

    Orbital Energies [Eh]
    ---------------------

    Doubly Occupied:

       1A    -20.583532     2A    -20.558169     3A    -20.551446
       4A    -11.296110     5A    -11.284633     6A    -11.278142
       7A     -1.393118     8A     -1.367106     9A     -1.343257
      10A     -1.042216    11A     -0.919632    12A     -0.821149
      13A     -0.741756    14A     -0.696854    15A     -0.673633
      16A     -0.661880    17A     -0.610316    18A     -0.593290
      19A     -0.582706    20A     -0.551693    21A     -0.526083
      22A     -0.495488    23A     -0.473304    24A     -0.455483
      25A     -0.434363

  @DF-RHF Final Energy:  -342.96617617847141

   => Energetics <=

    Nuclear Repulsion Energy =            262.3671656965168495
    One-Electron Energy =                -990.7959661165331227
    Two-Electron Energy =                 385.4626242415448587
    Total Energy =                       -342.9661761784714145
  Basis Set: (AUG-CC-PVTZ AUX)
    Blend: AUG-CC-PVTZ-RI
    Molecular point group: c1

    Geometry (in Angstrom), charge = 0, multiplicity = 1:

       Center              X                  Y                   Z               Mass
    ------------   -----------------  -----------------  -----------------  -----------------
         O           -0.052062551761     1.295201728577     0.185640873422    15.994914619570
         O           -2.406349451761    -0.014777871423    -0.197029126578    15.994914619570
         O            2.341234548239     0.086600128577    -0.223277126578    15.994914619570
         C            0.003532548239    -0.069318871423    -0.236146126578    12.000000000000
         C           -1.268562451761    -0.751502871423     0.226760873422    12.000000000000
         C            1.271940548239    -0.759789871423     0.217609873422    12.000000000000
         H            0.001430548239    -0.011702871423    -1.334768126578     1.007825032230
         H           -1.240153451761    -0.848987871423     1.322670873422     1.007825032230
         H           -1.355177451761    -1.750769871423    -0.209556126578     1.007825032230
         H            1.349265548239    -1.763703871423    -0.222413126578     1.007825032230
         H            1.264020548239    -0.848263871423     1.312121873422     1.007825032230
         H            0.810946548239     1.651636128577     0.117525873422     1.007825032230
         H           -2.213736451761     0.907156128577     0.054818873422     1.007825032230
         H            3.160811548239    -0.210954871423     0.204614873422     1.007825032230

  Basis Set: AUG-CC-PVTZ
    Blend: AUG-CC-PVTZ
  Basis Set: (AUG-CC-PVTZ AUX)
    Blend: AUG-CC-PVTZ-JKFIT
	 Reference Energy          =    -342.9661761784714145 [Eh]
	 Singles Energy            =      -0.0000000000000000 [Eh]
	 Same-Spin Energy          =      -0.3277072916323539 [Eh]
	 Opposite-Spin Energy      =      -1.0448225964089273 [Eh]
	 Correlation Energy        =      -1.3725298880412811 [Eh]
	 Total Energy              =    -344.3387060665127137 [Eh]

	 ================> DF-SCS-MP2 Energies <==================
	-----------------------------------------------------------
	 SCS Same-Spin Scale       =       0.3333333333333333 [-]
	 SCS Opposite-Spin Scale   =       1.2000000000000000 [-]
	 SCS Same-Spin Energy      =      -0.1092357638774513 [Eh]
	 SCS Opposite-Spin Energy  =      -1.2537871156907128 [Eh]
	 SCS Correlation Energy    =      -1.3630228795681640 [Eh]
	 SCS Total Energy          =    -344.3291990580395918 [Eh]
	-----------------------------------------------------------

  Dipole Moment: [D]
     X:     3.2293      Y:    -1.4802      Z:     1.2529     Total:     3.7668

*** Psi4 exiting successfully. Buy a developer a beer!
