                               Psi4 1.3.2 release

  ==> Input File <==

--------------------------------------------------------------------------
#psi4
#
memory 32 gb

molecule  {
0 1
  O       -0.0671370     1.2599736     0.3367873
  O       -2.4243090     0.0219280    -0.2318400
  O        2.3232750     0.1233060    -0.2580880
  C       -0.0144270    -0.0326130    -0.2709570
  C       -1.2865220    -0.7147970     0.1919500
  C        1.2539810    -0.7230840     0.1827990
  H       -0.0165290     0.0250030    -1.3695790
  H       -1.2581130    -0.8122820     1.2878600
  H       -1.3731370    -1.7140640    -0.2443670
  H        1.3313060    -1.7269980    -0.2572240
  H        1.2460610    -0.8115580     1.2773110
  H        0.7929870     1.6883420     0.0827150
  H       -2.2316960     0.9438620     0.0200080
  H        3.1428520    -0.1742490     0.1698040
units angstrom
no_reorient  #important for SAPT in psi4, default
symmetry c1  #important for SAPT in psi4, default
}

set PROPERTIES_ORIGIN ["COM"]
properties('MP2/aug-cc-pvtz', properties = ['dipole'])
--------------------------------------------------------------------------

    Molecular point group: c1
  Charge       = 0
  Multiplicity = 1
  Basis Set: AUG-CC-PVTZ
    Blend: AUG-CC-PVTZ
  Basis Set: (AUG-CC-PVTZ AUX)
    Blend: AUG-CC-PVTZ-JKFIT

    Orbital Energies [Eh]
    ---------------------

    Doubly Occupied:

       1A    -20.582191     2A    -20.566079     3A    -20.551109
       4A    -11.292285     5A    -11.284676     6A    -11.275749
       7A     -1.389937     8A     -1.364443     9A     -1.338975
      10A     -1.037738    11A     -0.918044    12A     -0.813238
      13A     -0.742259    14A     -0.697732    15A     -0.665728
      16A     -0.657969    17A     -0.610872    18A     -0.595071
      19A     -0.576123    20A     -0.543033    21A     -0.531606
      22A     -0.492939    23A     -0.471522    24A     -0.454006
      25A     -0.439470

  @DF-RHF Final Energy:  -342.96429927367512

   => Energetics <=

    Nuclear Repulsion Energy =            262.6814358272957293
    One-Electron Energy =                -991.5058777308137223
    Two-Electron Energy =                 385.8601426298428123
    Total Energy =                       -342.9642992736751239
  Basis Set: (AUG-CC-PVTZ AUX)
    Blend: AUG-CC-PVTZ-RI
    Molecular point group: c1

    Geometry (in Angstrom), charge = 0, multiplicity = 1:

       Center              X                  Y                   Z               Mass
    ------------   -----------------  -----------------  -----------------  -----------------
         O           -0.049678790812     1.235767580683     0.339284681220    15.994914619570
         O           -2.406850790812    -0.002278019317    -0.229342618780    15.994914619570
         O            2.340733209188     0.099099980683    -0.255590618780    15.994914619570
         C            0.003031209188    -0.056819019317    -0.268459618780    12.000000000000
         C           -1.269063790812    -0.739003019317     0.194447381220    12.000000000000
         C            1.271439209188    -0.747290019317     0.185296381220    12.000000000000
         H            0.000929209188     0.000796980683    -1.367081618780     1.007825032230
         H           -1.240654790812    -0.836488019317     1.290357381220     1.007825032230
         H           -1.355678790812    -1.738270019317    -0.241869618780     1.007825032230
         H            1.348764209188    -1.751204019317    -0.254726618780     1.007825032230
         H            1.263519209188    -0.835764019317     1.279808381220     1.007825032230
         H            0.810445209188     1.664135980683     0.085212381220     1.007825032230
         H           -2.214237790812     0.919655980683     0.022505381220     1.007825032230
         H            3.160310209188    -0.198455019317     0.172301381220     1.007825032230

  Basis Set: AUG-CC-PVTZ
    Blend: AUG-CC-PVTZ
  Basis Set: (AUG-CC-PVTZ AUX)
    Blend: AUG-CC-PVTZ-JKFIT
	 Reference Energy          =    -342.9642992736751239 [Eh]
	 Singles Energy            =      -0.0000000000000000 [Eh]
	 Same-Spin Energy          =      -0.3287688201440447 [Eh]
	 Opposite-Spin Energy      =      -1.0470831493574726 [Eh]
	 Correlation Energy        =      -1.3758519695015172 [Eh]
	 Total Energy              =    -344.3401512431766491 [Eh]

	 ================> DF-SCS-MP2 Energies <==================
	-----------------------------------------------------------
	 SCS Same-Spin Scale       =       0.3333333333333333 [-]
	 SCS Opposite-Spin Scale   =       1.2000000000000000 [-]
	 SCS Same-Spin Energy      =      -0.1095896067146816 [Eh]
	 SCS Opposite-Spin Energy  =      -1.2564997792289672 [Eh]
	 SCS Correlation Energy    =      -1.3660893859436487 [Eh]
	 SCS Total Energy          =    -344.3303886596187908 [Eh]
	-----------------------------------------------------------

  Dipole Moment: [D]
     X:     3.1665      Y:    -1.2619      Z:     0.8775     Total:     3.5199

*** Psi4 exiting successfully. Buy a developer a beer!
