                               Psi4 1.3.2 release

  ==> Input File <==

--------------------------------------------------------------------------
#psi4
#
memory 32 gb

molecule  {
0 1
  O       -0.0679570     1.2803790     0.2912690
  O       -2.3293175     0.1177062    -0.2942976
  O        2.3232750     0.1233060    -0.2580880
  C       -0.0144270    -0.0326130    -0.2709570
  C       -1.2865220    -0.7147970     0.1919500
  C        1.2539810    -0.7230840     0.1827990
  H       -0.0165290     0.0250030    -1.3695790
  H       -1.2581130    -0.8122820     1.2878600
  H       -1.3731370    -1.7140640    -0.2443670
  H        1.3313060    -1.7269980    -0.2572240
  H        1.2460610    -0.8115580     1.2773110
  H        0.7929870     1.6883420     0.0827150
  H       -2.2316960     0.9438620     0.0200080
  H        3.1428520    -0.1742490     0.1698040
units angstrom
no_reorient  #important for SAPT in psi4, default
symmetry c1  #important for SAPT in psi4, default
}

set PROPERTIES_ORIGIN ["COM"]
properties('MP2/aug-cc-pvtz', properties = ['dipole'])
--------------------------------------------------------------------------

    Molecular point group: c1
  Charge       = 0
  Multiplicity = 1
  Basis Set: AUG-CC-PVTZ
    Blend: AUG-CC-PVTZ
  Basis Set: (AUG-CC-PVTZ AUX)
    Blend: AUG-CC-PVTZ-JKFIT

    Orbital Energies [Eh]
    ---------------------

    Doubly Occupied:

       1A    -20.580290     2A    -20.560278     3A    -20.540220
       4A    -11.290248     5A    -11.280903     6A    -11.279113
       7A     -1.391763     8A     -1.372870     9A     -1.344401
      10A     -1.039334    11A     -0.924003    12A     -0.815717
      13A     -0.743640    14A     -0.699059    15A     -0.676689
      16A     -0.663610    17A     -0.607046    18A     -0.592158
      19A     -0.585522    20A     -0.542977    21A     -0.526141
      22A     -0.495232    23A     -0.470030    24A     -0.450556
      25A     -0.438908

  @DF-RHF Final Energy:  -342.96096747247225

   => Energetics <=

    Nuclear Repulsion Energy =            264.3109844683223741
    One-Electron Energy =                -994.7224903009763466
    Two-Electron Energy =                 387.4505383601817812
    Total Energy =                       -342.9609674724722481
  Basis Set: (AUG-CC-PVTZ AUX)
    Blend: AUG-CC-PVTZ-RI
    Molecular point group: c1

    Geometry (in Angstrom), charge = 0, multiplicity = 1:

       Center              X                  Y                   Z               Mass
    ------------   -----------------  -----------------  -----------------  -----------------
         O           -0.066862816484     1.235983948832     0.312529174628    15.994914619570
         O           -2.328223316484     0.073311148832    -0.273037425372    15.994914619570
         O            2.324369183516     0.078910948832    -0.236827825372    15.994914619570
         C           -0.013332816484    -0.077008051168    -0.249696825372    12.000000000000
         C           -1.285427816484    -0.759192051168     0.213210174628    12.000000000000
         C            1.255075183516    -0.767479051168     0.204059174628    12.000000000000
         H           -0.015434816484    -0.019392051168    -1.348318825372     1.007825032230
         H           -1.257018816484    -0.856677051168     1.309120174628     1.007825032230
         H           -1.372042816484    -1.758459051168    -0.223106825372     1.007825032230
         H            1.332400183516    -1.771393051168    -0.235963825372     1.007825032230
         H            1.247155183516    -0.855953051168     1.298571174628     1.007825032230
         H            0.794081183516     1.643946948832     0.103975174628     1.007825032230
         H           -2.230601816484     0.899466948832     0.041268174628     1.007825032230
         H            3.143946183516    -0.218644051168     0.191064174628     1.007825032230

  Basis Set: AUG-CC-PVTZ
    Blend: AUG-CC-PVTZ
  Basis Set: (AUG-CC-PVTZ AUX)
    Blend: AUG-CC-PVTZ-JKFIT
	 Reference Energy          =    -342.9609674724722481 [Eh]
	 Singles Energy            =      -0.0000000000000000 [Eh]
	 Same-Spin Energy          =      -0.3274590721909643 [Eh]
	 Opposite-Spin Energy      =      -1.0437392200554081 [Eh]
	 Correlation Energy        =      -1.3711982922463724 [Eh]
	 Total Energy              =    -344.3321657647186385 [Eh]

	 ================> DF-SCS-MP2 Energies <==================
	-----------------------------------------------------------
	 SCS Same-Spin Scale       =       0.3333333333333333 [-]
	 SCS Opposite-Spin Scale   =       1.2000000000000000 [-]
	 SCS Same-Spin Energy      =      -0.1091530240636547 [Eh]
	 SCS Opposite-Spin Energy  =      -1.2524870640664896 [Eh]
	 SCS Correlation Energy    =      -1.3616400881301443 [Eh]
	 SCS Total Energy          =    -344.3226075606023642 [Eh]
	-----------------------------------------------------------

  Dipole Moment: [D]
     X:     2.9256      Y:    -1.5192      Z:     1.1507     Total:     3.4916

*** Psi4 exiting successfully. Buy a developer a beer!
