                               Psi4 1.4a3.dev225

  ==> Input File <==

--------------------------------------------------------------------------
#psi4
#
memory 32 gb

molecule  {
0 1
  O       -0.0679500     1.2804190     0.2912780
  O       -2.4243340     0.0219370    -0.2318290
  O        2.3233720     0.1231770    -0.2581300
  C       -0.0144220    -0.0326010    -0.2709950
  C       -1.3265793    -0.6889110     0.1770210
  C        1.2539560    -0.7229870     0.1828220
  H       -0.0165930     0.0251350    -1.3695740
  H       -1.2581970    -0.8124860     1.2878120
  H       -1.3730900    -1.7140410    -0.2445610
  H        1.3311710    -1.7270150    -0.2570240
  H        1.2459170    -0.8113320     1.2773370
  H        0.7928980     1.6884400     0.0824910
  H       -2.2316880     0.9438100     0.0202110
  H        3.1428100    -0.1741490     0.1701570
units angstrom
no_reorient  #important for SAPT in psi4, default
symmetry c1  #important for SAPT in psi4, default
}

set PROPERTIES_ORIGIN ["COM"]
properties('MP2/aug-cc-pvtz', properties = ['dipole'])
--------------------------------------------------------------------------

    Molecular point group: c1
  Charge       = 0
  Multiplicity = 1
  Basis Set: AUG-CC-PVTZ
    Blend: AUG-CC-PVTZ
  Basis Set: (AUG-CC-PVTZ AUX)
    Blend: AUG-CC-PVTZ-JKFIT

    Orbital Energies [Eh]
    ---------------------

    Doubly Occupied:

       1A    -20.582127     2A    -20.562835     3A    -20.556204
       4A    -11.292726     5A    -11.283470     6A    -11.277901
       7A     -1.392866     8A     -1.375279     9A     -1.348598
      10A     -1.033666    11A     -0.915940    12A     -0.814793
      13A     -0.743927    14A     -0.696658    15A     -0.668391
      16A     -0.666217    17A     -0.613554    18A     -0.599392
      19A     -0.584974    20A     -0.544519    21A     -0.531160
      22A     -0.487682    23A     -0.470596    24A     -0.454209
      25A     -0.431739

  @DF-RHF Final Energy:  -342.96472831206421

   => Energetics <=

    Nuclear Repulsion Energy =            262.8385656178602972
    One-Electron Energy =                -991.7477437410138918
    Two-Electron Energy =                 385.9444498110894415
    Total Energy =                       -342.9647283120642101
  Basis Set: (AUG-CC-PVTZ AUX)
    Blend: AUG-CC-PVTZ-RI
    Molecular point group: c1

    Geometry (in Angstrom), charge = 0, multiplicity = 1:

       Center              X                  Y                   Z               Mass
    ------------   -----------------  -----------------  -----------------  -----------------
         O           -0.045132735943     1.249288810973     0.303633543963    15.994914619570
         O           -2.401516735943    -0.009193189027    -0.219473456037    15.994914619570
         O            2.346189264057     0.092046810973    -0.245774456037    15.994914619570
         C            0.008395264057    -0.063731189027    -0.258639456037    12.000000000000
         C           -1.303762035943    -0.720041189027     0.189376543963    12.000000000000
         C            1.276773264057    -0.754117189027     0.195177543963    12.000000000000
         H            0.006224264057    -0.005995189027    -1.357218456037     1.007825032230
         H           -1.235379735943    -0.843616189027     1.300167543963     1.007825032230
         H           -1.350272735943    -1.745171189027    -0.232205456037     1.007825032230
         H            1.353988264057    -1.758145189027    -0.244668456037     1.007825032230
         H            1.268734264057    -0.842462189027     1.289692543963     1.007825032230
         H            0.815715264057     1.657309810973     0.094846543963     1.007825032230
         H           -2.208870735943     0.912679810973     0.032566543963     1.007825032230
         H            3.165627264057    -0.205279189027     0.182512543963     1.007825032230

  Basis Set: AUG-CC-PVTZ
    Blend: AUG-CC-PVTZ
  Basis Set: (AUG-CC-PVTZ AUX)
    Blend: AUG-CC-PVTZ-JKFIT
	 Reference Energy          =    -342.9647283120642101 [Eh]
	 Singles Energy            =      -0.0000000000000000 [Eh]
	 Same-Spin Energy          =      -0.3283660579403530 [Eh]
	 Opposite-Spin Energy      =      -1.0455945458123364 [Eh]
	 Correlation Energy        =      -1.3739606037526895 [Eh]
	 Total Energy              =    -344.3386889158168742 [Eh]

	 ================> DF-SCS-MP2 Energies <==================
	-----------------------------------------------------------
	 SCS Same-Spin Scale       =       0.3333333333333333 [-]
	 SCS Opposite-Spin Scale   =       1.2000000000000000 [-]
	 SCS Same-Spin Energy      =      -0.1094553526467843 [Eh]
	 SCS Opposite-Spin Energy  =      -1.2547134549748036 [Eh]
	 SCS Correlation Energy    =      -1.3641688076215879 [Eh]
	 SCS Total Energy          =    -344.3288971196857915 [Eh]
	-----------------------------------------------------------

  Dipole Moment: [D]
     X:     3.0292      Y:    -1.2229      Z:     0.9090     Total:     3.3908

*** Psi4 exiting successfully. Buy a developer a beer!
