                               Psi4 1.4a3.dev225

  ==> Input File <==

--------------------------------------------------------------------------
#psi4
#
memory 32 gb

molecule  {
0 1
  O       -0.0679500     1.2804190     0.2912780
  O       -2.4243340     0.0219370    -0.2318290
  O        2.3233720     0.1231770    -0.2581300
  C       -0.0136730    -0.0509733    -0.2788625
  C       -1.2865220    -0.7148500     0.1919400
  C        1.2539560    -0.7229870     0.1828220
  H       -0.0165930     0.0251350    -1.3695740
  H       -1.2581970    -0.8124860     1.2878120
  H       -1.3730900    -1.7140410    -0.2445610
  H        1.3311710    -1.7270150    -0.2570240
  H        1.2459170    -0.8113320     1.2773370
  H        0.7928980     1.6884400     0.0824910
  H       -2.2316880     0.9438100     0.0202110
  H        3.1428100    -0.1741490     0.1701570
units angstrom
no_reorient  #important for SAPT in psi4, default
symmetry c1  #important for SAPT in psi4, default
}

set PROPERTIES_ORIGIN ["COM"]
properties('MP2/aug-cc-pvtz', properties = ['dipole'])
--------------------------------------------------------------------------

    Molecular point group: c1
  Charge       = 0
  Multiplicity = 1
  Basis Set: AUG-CC-PVTZ
    Blend: AUG-CC-PVTZ
  Basis Set: (AUG-CC-PVTZ AUX)
    Blend: AUG-CC-PVTZ-JKFIT

    Orbital Energies [Eh]
    ---------------------

    Doubly Occupied:

       1A    -20.582928     2A    -20.561416     3A    -20.551633
       4A    -11.293925     5A    -11.284975     6A    -11.276946
       7A     -1.388531     8A     -1.363363     9A     -1.337262
      10A     -1.041985    11A     -0.919895    12A     -0.814947
      13A     -0.741399    14A     -0.697952    15A     -0.665790
      16A     -0.658718    17A     -0.610927    18A     -0.594740
      19A     -0.577122    20A     -0.544233    21A     -0.527010
      22A     -0.494312    23A     -0.472049    24A     -0.456526
      25A     -0.440764

  @DF-RHF Final Energy:  -342.96574698731223

   => Energetics <=

    Nuclear Repulsion Energy =            262.4671515480705466
    One-Electron Energy =                -991.0670977096542629
    Two-Electron Energy =                 385.6341991742714868
    Total Energy =                       -342.9657469873122295
  Basis Set: (AUG-CC-PVTZ AUX)
    Blend: AUG-CC-PVTZ-RI
    Molecular point group: c1

    Geometry (in Angstrom), charge = 0, multiplicity = 1:

       Center              X                  Y                   Z               Mass
    ------------   -----------------  -----------------  -----------------  -----------------
         O           -0.050452559178     1.255065572976     0.302714256168    15.994914619570
         O           -2.406836559178    -0.003416427024    -0.220392743832    15.994914619570
         O            2.340869440822     0.097823572976    -0.246693743832    15.994914619570
         C            0.003824440822    -0.076326727024    -0.267426243832    12.000000000000
         C           -1.269024559178    -0.740203427024     0.203376256168    12.000000000000
         C            1.271453440822    -0.748340427024     0.194258256168    12.000000000000
         H            0.000904440822    -0.000218427024    -1.358137743832     1.007825032230
         H           -1.240699559178    -0.837839427024     1.299248256168     1.007825032230
         H           -1.355592559178    -1.739394427024    -0.233124743832     1.007825032230
         H            1.348668440822    -1.752368427024    -0.245587743832     1.007825032230
         H            1.263414440822    -0.836685427024     1.288773256168     1.007825032230
         H            0.810395440822     1.663086572976     0.093927256168     1.007825032230
         H           -2.214190559178     0.918456572976     0.031647256168     1.007825032230
         H            3.160307440822    -0.199502427024     0.181593256168     1.007825032230

  Basis Set: AUG-CC-PVTZ
    Blend: AUG-CC-PVTZ
  Basis Set: (AUG-CC-PVTZ AUX)
    Blend: AUG-CC-PVTZ-JKFIT
	 Reference Energy          =    -342.9657469873122295 [Eh]
	 Singles Energy            =      -0.0000000000000000 [Eh]
	 Same-Spin Energy          =      -0.3284904999067326 [Eh]
	 Opposite-Spin Energy      =      -1.0466290423277398 [Eh]
	 Correlation Energy        =      -1.3751195422344724 [Eh]
	 Total Energy              =    -344.3408665295467017 [Eh]

	 ================> DF-SCS-MP2 Energies <==================
	-----------------------------------------------------------
	 SCS Same-Spin Scale       =       0.3333333333333333 [-]
	 SCS Opposite-Spin Scale   =       1.2000000000000000 [-]
	 SCS Same-Spin Energy      =      -0.1094968333022442 [Eh]
	 SCS Opposite-Spin Energy  =      -1.2559548507932876 [Eh]
	 SCS Correlation Energy    =      -1.3654516840955317 [Eh]
	 SCS Total Energy          =    -344.3311986714077761 [Eh]
	-----------------------------------------------------------

  Dipole Moment: [D]
     X:     3.1826      Y:    -1.3804      Z:     0.9439     Total:     3.5952

*** Psi4 exiting successfully. Buy a developer a beer!
