                               Psi4 1.3.2 release

  ==> Input File <==

--------------------------------------------------------------------------
#psi4
#
memory 32 gb

molecule  {
0 1
  O       -0.0240441     1.2904062     0.2698195
  O       -2.4243090     0.0219280    -0.2318400
  O        2.3232750     0.1233060    -0.2580880
  C       -0.0144270    -0.0326130    -0.2709570
  C       -1.2865220    -0.7147970     0.1919500
  C        1.2539810    -0.7230840     0.1827990
  H       -0.0165290     0.0250030    -1.3695790
  H       -1.2581130    -0.8122820     1.2878600
  H       -1.3731370    -1.7140640    -0.2443670
  H        1.3313060    -1.7269980    -0.2572240
  H        1.2460610    -0.8115580     1.2773110
  H        0.7929870     1.6883420     0.0827150
  H       -2.2316960     0.9438620     0.0200080
  H        3.1428520    -0.1742490     0.1698040
units angstrom
no_reorient  #important for SAPT in psi4, default
symmetry c1  #important for SAPT in psi4, default
}

set PROPERTIES_ORIGIN ["COM"]
properties('MP2/aug-cc-pvtz', properties = ['dipole'])
--------------------------------------------------------------------------

    Molecular point group: c1
  Charge       = 0
  Multiplicity = 1
  Basis Set: AUG-CC-PVTZ
    Blend: AUG-CC-PVTZ
  Basis Set: (AUG-CC-PVTZ AUX)
    Blend: AUG-CC-PVTZ-JKFIT

    Orbital Energies [Eh]
    ---------------------

    Doubly Occupied:

       1A    -20.581383     2A    -20.557590     3A    -20.552678
       4A    -11.292571     5A    -11.285564     6A    -11.278272
       7A     -1.393936     8A     -1.366004     9A     -1.344842
      10A     -1.041848    11A     -0.918768    12A     -0.820148
      13A     -0.743923    14A     -0.699216    15A     -0.668924
      16A     -0.662279    17A     -0.612362    18A     -0.596003
      19A     -0.580250    20A     -0.545764    21A     -0.527782
      22A     -0.496586    23A     -0.470809    24A     -0.454011
      25A     -0.439515

  @DF-RHF Final Energy:  -342.96755636450081

   => Energetics <=

    Nuclear Repulsion Energy =            262.7306366913713305
    One-Electron Energy =                -991.5343242998994810
    Two-Electron Energy =                 385.8361312440273991
    Total Energy =                       -342.9675563645008083
  Basis Set: (AUG-CC-PVTZ AUX)
    Blend: AUG-CC-PVTZ-RI
    Molecular point group: c1

    Geometry (in Angstrom), charge = 0, multiplicity = 1:

       Center              X                  Y                   Z               Mass
    ------------   -----------------  -----------------  -----------------  -----------------
         O           -0.014074072713     1.260911958157     0.283953764973    15.994914619570
         O           -2.414338972713    -0.007566241843    -0.217705735027    15.994914619570
         O            2.333245027287     0.093811758157    -0.243953735027    15.994914619570
         C           -0.004456972713    -0.062107241843    -0.256822735027    12.000000000000
         C           -1.276551972713    -0.744291241843     0.206084264973    12.000000000000
         C            1.263951027287    -0.752578241843     0.196933264973    12.000000000000
         H           -0.006558972713    -0.004491241843    -1.355444735027     1.007825032230
         H           -1.248142972713    -0.841776241843     1.301994264973     1.007825032230
         H           -1.363166972713    -1.743558241843    -0.230232735027     1.007825032230
         H            1.341276027287    -1.756492241843    -0.243089735027     1.007825032230
         H            1.256031027287    -0.841052241843     1.291445264973     1.007825032230
         H            0.802957027287     1.658847758157     0.096849264973     1.007825032230
         H           -2.221725972713     0.914367758157     0.034142264973     1.007825032230
         H            3.152822027287    -0.203743241843     0.183938264973     1.007825032230

  Basis Set: AUG-CC-PVTZ
    Blend: AUG-CC-PVTZ
  Basis Set: (AUG-CC-PVTZ AUX)
    Blend: AUG-CC-PVTZ-JKFIT
	 Reference Energy          =    -342.9675563645008083 [Eh]
	 Singles Energy            =      -0.0000000000000000 [Eh]
	 Same-Spin Energy          =      -0.3275870560857090 [Eh]
	 Opposite-Spin Energy      =      -1.0444998248069011 [Eh]
	 Correlation Energy        =      -1.3720868808926101 [Eh]
	 Total Energy              =    -344.3396432453934040 [Eh]

	 ================> DF-SCS-MP2 Energies <==================
	-----------------------------------------------------------
	 SCS Same-Spin Scale       =       0.3333333333333333 [-]
	 SCS Opposite-Spin Scale   =       1.2000000000000000 [-]
	 SCS Same-Spin Energy      =      -0.1091956853619030 [Eh]
	 SCS Opposite-Spin Energy  =      -1.2533997897682811 [Eh]
	 SCS Correlation Energy    =      -1.3625954751301841 [Eh]
	 SCS Total Energy          =    -344.3301518396310144 [Eh]
	-----------------------------------------------------------

  Dipole Moment: [D]
     X:     3.0786      Y:    -1.3636      Z:     0.9927     Total:     3.5104

*** Psi4 exiting successfully. Buy a developer a beer!
