                               Psi4 1.3.2 release

  ==> Input File <==

--------------------------------------------------------------------------
#psi4
#
memory 32 gb

molecule  {
0 1
  O       -0.0679570     1.2803790     0.2912690
  O       -2.4243090     0.0219280    -0.2318400
  O        2.3232750     0.1233060    -0.2580880
  C       -0.0144270    -0.0326130    -0.2709570
  C       -1.2666077    -0.6726597     0.2088372
  C        1.2539810    -0.7230840     0.1827990
  H       -0.0165290     0.0250030    -1.3695790
  H       -1.2581130    -0.8122820     1.2878600
  H       -1.3731370    -1.7140640    -0.2443670
  H        1.3313060    -1.7269980    -0.2572240
  H        1.2460610    -0.8115580     1.2773110
  H        0.7929870     1.6883420     0.0827150
  H       -2.2316960     0.9438620     0.0200080
  H        3.1428520    -0.1742490     0.1698040
units angstrom
no_reorient  #important for SAPT in psi4, default
symmetry c1  #important for SAPT in psi4, default
}

set PROPERTIES_ORIGIN ["COM"]
properties('MP2/aug-cc-pvtz', properties = ['dipole'])
--------------------------------------------------------------------------

    Molecular point group: c1
  Charge       = 0
  Multiplicity = 1
  Basis Set: AUG-CC-PVTZ
    Blend: AUG-CC-PVTZ
  Basis Set: (AUG-CC-PVTZ AUX)
    Blend: AUG-CC-PVTZ-JKFIT

    Orbital Energies [Eh]
    ---------------------

    Doubly Occupied:

       1A    -20.583290     2A    -20.563595     3A    -20.552755
       4A    -11.294186     5A    -11.284149     6A    -11.276933
       7A     -1.392150     8A     -1.366836     9A     -1.341398
      10A     -1.043099    11A     -0.919151    12A     -0.814193
      13A     -0.743532    14A     -0.699809    15A     -0.668591
      16A     -0.659424    17A     -0.612835    18A     -0.596485
      19A     -0.571159    20A     -0.546325    21A     -0.529239
      22A     -0.490099    23A     -0.472394    24A     -0.455251
      25A     -0.444230

  @DF-RHF Final Energy:  -342.96289120808888

   => Energetics <=

    Nuclear Repulsion Energy =            263.1622269121829163
    One-Electron Energy =                -992.4080208442585445
    Two-Electron Energy =                 386.2829027239868083
    Total Energy =                       -342.9628912080888767
  Basis Set: (AUG-CC-PVTZ AUX)
    Blend: AUG-CC-PVTZ-RI
    Molecular point group: c1

    Geometry (in Angstrom), charge = 0, multiplicity = 1:

       Center              X                  Y                   Z               Mass
    ------------   -----------------  -----------------  -----------------  -----------------
         O           -0.052952482140     1.247133825466     0.299474475540    15.994914619570
         O           -2.409304482140    -0.011317174534    -0.223634524460    15.994914619570
         O            2.338279517860     0.090060825466    -0.249882524460    15.994914619570
         C            0.000577517860    -0.065858174534    -0.262751524460    12.000000000000
         C           -1.251603182140    -0.705904874534     0.217042675540    12.000000000000
         C            1.268985517860    -0.756329174534     0.191004475540    12.000000000000
         H           -0.001524482140    -0.008242174534    -1.361373524460     1.007825032230
         H           -1.243108482140    -0.845527174534     1.296065475540     1.007825032230
         H           -1.358132482140    -1.747309174534    -0.236161524460     1.007825032230
         H            1.346310517860    -1.760243174534    -0.249018524460     1.007825032230
         H            1.261065517860    -0.844803174534     1.285516475540     1.007825032230
         H            0.807991517860     1.655096825466     0.090920475540     1.007825032230
         H           -2.216691482140     0.910616825466     0.028213475540     1.007825032230
         H            3.157856517860    -0.207494174534     0.178009475540     1.007825032230

  Basis Set: AUG-CC-PVTZ
    Blend: AUG-CC-PVTZ
  Basis Set: (AUG-CC-PVTZ AUX)
    Blend: AUG-CC-PVTZ-JKFIT
	 Reference Energy          =    -342.9628912080888767 [Eh]
	 Singles Energy            =      -0.0000000000000000 [Eh]
	 Same-Spin Energy          =      -0.3287903213250188 [Eh]
	 Opposite-Spin Energy      =      -1.0469043640164788 [Eh]
	 Correlation Energy        =      -1.3756946853414975 [Eh]
	 Total Energy              =    -344.3385858934303769 [Eh]

	 ================> DF-SCS-MP2 Energies <==================
	-----------------------------------------------------------
	 SCS Same-Spin Scale       =       0.3333333333333333 [-]
	 SCS Opposite-Spin Scale   =       1.2000000000000000 [-]
	 SCS Same-Spin Energy      =      -0.1095967737750063 [Eh]
	 SCS Opposite-Spin Energy  =      -1.2562852368197746 [Eh]
	 SCS Correlation Energy    =      -1.3658820105947809 [Eh]
	 SCS Total Energy          =    -344.3287732186836365 [Eh]
	-----------------------------------------------------------

  Dipole Moment: [D]
     X:     3.2139      Y:    -1.2663      Z:     0.9874     Total:     3.5927

*** Psi4 exiting successfully. Buy a developer a beer!
