                               Psi4 1.3.2 release

  ==> Input File <==

--------------------------------------------------------------------------
#psi4
#
memory 32 gb

molecule  {
0 1
  O       -0.0679570     1.2803790     0.2912690
  O       -2.4243090     0.0219280    -0.2318400
  O        2.3232750     0.1233060    -0.2580880
  C       -0.0144270    -0.0326130    -0.2709570
  C       -1.2865220    -0.7147970     0.1919500
  C        1.2539810    -0.7230840     0.1827990
  H       -0.0165290     0.0250030    -1.3695790
  H       -1.2581130    -0.8122820     1.2878600
  H       -1.3731370    -1.7140640    -0.2443670
  H        1.3313060    -1.7269980    -0.2572240
  H        1.2460610    -0.8115580     1.2773110
  H        0.9695419     1.7720035     0.0399466
  H       -2.2316960     0.9438620     0.0200080
  H        3.1428520    -0.1742490     0.1698040
units angstrom
no_reorient  #important for SAPT in psi4, default
symmetry c1  #important for SAPT in psi4, default
}

set PROPERTIES_ORIGIN ["COM"]
properties('MP2/aug-cc-pvtz', properties = ['dipole'])
--------------------------------------------------------------------------

    Molecular point group: c1
  Charge       = 0
  Multiplicity = 1
  Basis Set: AUG-CC-PVTZ
    Blend: AUG-CC-PVTZ
  Basis Set: (AUG-CC-PVTZ AUX)
    Blend: AUG-CC-PVTZ-JKFIT

    Orbital Energies [Eh]
    ---------------------

    Doubly Occupied:

       1A    -20.584219     2A    -20.573009     3A    -20.549794
       4A    -11.292388     5A    -11.282027     6A    -11.275221
       7A     -1.385044     8A     -1.358201     9A     -1.319099
      10A     -1.031118    11A     -0.916888    12A     -0.805440
      13A     -0.733472    14A     -0.692186    15A     -0.662153
      16A     -0.646853    17A     -0.607152    18A     -0.587536
      19A     -0.574826    20A     -0.539240    21A     -0.518986
      22A     -0.488202    23A     -0.472637    24A     -0.449141
      25A     -0.435175

  @DF-RHF Final Energy:  -342.93086835702928

   => Energetics <=

    Nuclear Repulsion Energy =            261.6325892996056268
    One-Electron Energy =                -989.5669003484765653
    Two-Electron Energy =                 385.0034426918417125
    Total Energy =                       -342.9308683570292828
  Basis Set: (AUG-CC-PVTZ AUX)
    Blend: AUG-CC-PVTZ-RI
    Molecular point group: c1

    Geometry (in Angstrom), charge = 0, multiplicity = 1:

       Center              X                  Y                   Z               Mass
    ------------   -----------------  -----------------  -----------------  -----------------
         O           -0.052289397802     1.251711159556     0.302144291453    15.994914619570
         O           -2.408641397802    -0.006739840444    -0.220964708547    15.994914619570
         O            2.338942602198     0.094638159556    -0.247212708547    15.994914619570
         C            0.001240602198    -0.061280840444    -0.260081708547    12.000000000000
         C           -1.270854397802    -0.743464840444     0.202825291453    12.000000000000
         C            1.269648602198    -0.751751840444     0.193674291453    12.000000000000
         H           -0.000861397802    -0.003664840444    -1.358703708547     1.007825032230
         H           -1.242445397802    -0.840949840444     1.298735291453     1.007825032230
         H           -1.357469397802    -1.742731840444    -0.233491708547     1.007825032230
         H            1.346973602198    -1.755665840444    -0.246348708547     1.007825032230
         H            1.261728602198    -0.840225840444     1.288186291453     1.007825032230
         H            0.985209502198     1.743335659556     0.050821891453     1.007825032230
         H           -2.216028397802     0.915194159556     0.030883291453     1.007825032230
         H            3.158519602198    -0.202916840444     0.180679291453     1.007825032230

  Basis Set: AUG-CC-PVTZ
    Blend: AUG-CC-PVTZ
  Basis Set: (AUG-CC-PVTZ AUX)
    Blend: AUG-CC-PVTZ-JKFIT
	 Reference Energy          =    -342.9308683570292828 [Eh]
	 Singles Energy            =      -0.0000000000000000 [Eh]
	 Same-Spin Energy          =      -0.3310373222579140 [Eh]
	 Opposite-Spin Energy      =      -1.0531113710986681 [Eh]
	 Correlation Energy        =      -1.3841486933565821 [Eh]
	 Total Energy              =    -344.3150170503858476 [Eh]

	 ================> DF-SCS-MP2 Energies <==================
	-----------------------------------------------------------
	 SCS Same-Spin Scale       =       0.3333333333333333 [-]
	 SCS Opposite-Spin Scale   =       1.2000000000000000 [-]
	 SCS Same-Spin Energy      =      -0.1103457740859713 [Eh]
	 SCS Opposite-Spin Energy  =      -1.2637336453184018 [Eh]
	 SCS Correlation Energy    =      -1.3740794194043731 [Eh]
	 SCS Total Energy          =    -344.3049477764336643 [Eh]
	-----------------------------------------------------------

  Dipole Moment: [D]
     X:     3.3956      Y:    -1.2427      Z:     0.9320     Total:     3.7340

*** Psi4 exiting successfully. Buy a developer a beer!
