                               Psi4 1.3.2 release

  ==> Input File <==

--------------------------------------------------------------------------
#psi4
#
memory 32 gb

molecule  {
0 1
  O       -0.0679570     1.2803790     0.2912690
  O       -2.4497865     0.0307823    -0.1364527
  O        2.3232750     0.1233060    -0.2580880
  C       -0.0144270    -0.0326130    -0.2709570
  C       -1.2865220    -0.7147970     0.1919500
  C        1.2539810    -0.7230840     0.1827990
  H       -0.0165290     0.0250030    -1.3695790
  H       -1.2581130    -0.8122820     1.2878600
  H       -1.3731370    -1.7140640    -0.2443670
  H        1.3313060    -1.7269980    -0.2572240
  H        1.2460610    -0.8115580     1.2773110
  H        0.7929870     1.6883420     0.0827150
  H       -2.2316960     0.9438620     0.0200080
  H        3.1428520    -0.1742490     0.1698040
units angstrom
no_reorient  #important for SAPT in psi4, default
symmetry c1  #important for SAPT in psi4, default
}

set PROPERTIES_ORIGIN ["COM"]
properties('MP2/aug-cc-pvtz', properties = ['dipole'])
--------------------------------------------------------------------------

    Molecular point group: c1
  Charge       = 0
  Multiplicity = 1
  Basis Set: AUG-CC-PVTZ
    Blend: AUG-CC-PVTZ
  Basis Set: (AUG-CC-PVTZ AUX)
    Blend: AUG-CC-PVTZ-JKFIT

    Orbital Energies [Eh]
    ---------------------

    Doubly Occupied:

       1A    -20.583335     2A    -20.564426     3A    -20.547867
       4A    -11.294432     5A    -11.286714     6A    -11.276419
       7A     -1.391706     8A     -1.366767     9A     -1.342954
      10A     -1.040598    11A     -0.920182    12A     -0.817404
      13A     -0.743236    14A     -0.697725    15A     -0.667731
      16A     -0.661594    17A     -0.614350    18A     -0.596060
      19A     -0.577880    20A     -0.546093    21A     -0.533189
      22A     -0.492214    23A     -0.472270    24A     -0.456168
      25A     -0.436743

  @DF-RHF Final Energy:  -342.96698945327165

   => Energetics <=

    Nuclear Repulsion Energy =            262.4873938447197474
    One-Electron Energy =                -991.0526525026427862
    Two-Electron Energy =                 385.5982692046514444
    Total Energy =                       -342.9669894532716512
  Basis Set: (AUG-CC-PVTZ AUX)
    Blend: AUG-CC-PVTZ-RI
    Molecular point group: c1

    Geometry (in Angstrom), charge = 0, multiplicity = 1:

       Center              X                  Y                   Z               Mass
    ------------   -----------------  -----------------  -----------------  -----------------
         O           -0.045929117768     1.251088571048     0.285100727639    15.994914619570
         O           -2.427758617768     0.001491871048    -0.142620972361    15.994914619570
         O            2.345302882232     0.094015571048    -0.264256272361    15.994914619570
         C            0.007600882232    -0.061903428952    -0.277125272361    12.000000000000
         C           -1.264494117768    -0.744087428952     0.185781727639    12.000000000000
         C            1.276008882232    -0.752374428952     0.176630727639    12.000000000000
         H            0.005498882232    -0.004287428952    -1.375747272361     1.007825032230
         H           -1.236085117768    -0.841572428952     1.281691727639     1.007825032230
         H           -1.351109117768    -1.743354428952    -0.250535272361     1.007825032230
         H            1.353333882232    -1.756288428952    -0.263392272361     1.007825032230
         H            1.268088882232    -0.840848428952     1.271142727639     1.007825032230
         H            0.815014882232     1.659051571048     0.076546727639     1.007825032230
         H           -2.209668117768     0.914571571048     0.013839727639     1.007825032230
         H            3.164879882232    -0.203539428952     0.163635727639     1.007825032230

  Basis Set: AUG-CC-PVTZ
    Blend: AUG-CC-PVTZ
  Basis Set: (AUG-CC-PVTZ AUX)
    Blend: AUG-CC-PVTZ-JKFIT
	 Reference Energy          =    -342.9669894532716512 [Eh]
	 Singles Energy            =      -0.0000000000000000 [Eh]
	 Same-Spin Energy          =      -0.3280315111827269 [Eh]
	 Opposite-Spin Energy      =      -1.0454372496140900 [Eh]
	 Correlation Energy        =      -1.3734687607968170 [Eh]
	 Total Energy              =    -344.3404582140684624 [Eh]

	 ================> DF-SCS-MP2 Energies <==================
	-----------------------------------------------------------
	 SCS Same-Spin Scale       =       0.3333333333333333 [-]
	 SCS Opposite-Spin Scale   =       1.2000000000000000 [-]
	 SCS Same-Spin Energy      =      -0.1093438370609090 [Eh]
	 SCS Opposite-Spin Energy  =      -1.2545246995369079 [Eh]
	 SCS Correlation Energy    =      -1.3638685365978169 [Eh]
	 SCS Total Energy          =    -344.3308579898694575 [Eh]
	-----------------------------------------------------------

  Dipole Moment: [D]
     X:     3.2912      Y:    -1.3268      Z:     0.7599     Total:     3.6290

*** Psi4 exiting successfully. Buy a developer a beer!
