                               Psi4 1.3.2 release

  ==> Input File <==

--------------------------------------------------------------------------
#psi4
#
memory 32 gb

molecule  {
0 1
  O       -0.0679570     1.2803790     0.2912690
  O       -2.4532502    -0.0118463    -0.2099536
  O        2.3232750     0.1233060    -0.2580880
  C       -0.0144270    -0.0326130    -0.2709570
  C       -1.2865220    -0.7147970     0.1919500
  C        1.2539810    -0.7230840     0.1827990
  H       -0.0165290     0.0250030    -1.3695790
  H       -1.2581130    -0.8122820     1.2878600
  H       -1.3731370    -1.7140640    -0.2443670
  H        1.3313060    -1.7269980    -0.2572240
  H        1.2460610    -0.8115580     1.2773110
  H        0.7929870     1.6883420     0.0827150
  H       -2.2316960     0.9438620     0.0200080
  H        3.1428520    -0.1742490     0.1698040
units angstrom
no_reorient  #important for SAPT in psi4, default
symmetry c1  #important for SAPT in psi4, default
}

set PROPERTIES_ORIGIN ["COM"]
properties('MP2/aug-cc-pvtz', properties = ['dipole'])
--------------------------------------------------------------------------

    Molecular point group: c1
  Charge       = 0
  Multiplicity = 1
  Basis Set: AUG-CC-PVTZ
    Blend: AUG-CC-PVTZ
  Basis Set: (AUG-CC-PVTZ AUX)
    Blend: AUG-CC-PVTZ-JKFIT

    Orbital Energies [Eh]
    ---------------------

    Doubly Occupied:

       1A    -20.583210     2A    -20.564817     3A    -20.554797
       4A    -11.294148     5A    -11.286054     6A    -11.275601
       7A     -1.391168     8A     -1.363764     9A     -1.337457
      10A     -1.039201    11A     -0.916926    12A     -0.814612
      13A     -0.742280    14A     -0.697962    15A     -0.667627
      16A     -0.654411    17A     -0.611551    18A     -0.595870
      19A     -0.574613    20A     -0.546137    21A     -0.530854
      22A     -0.493396    23A     -0.472379    24A     -0.455410
      25A     -0.438048

  @DF-RHF Final Energy:  -342.96315083633527

   => Energetics <=

    Nuclear Repulsion Energy =            262.0804792892373598
    One-Electron Energy =                -990.2826747784317831
    Two-Electron Energy =                 385.2390446528591497
    Total Energy =                       -342.9631508363352737
  Basis Set: (AUG-CC-PVTZ AUX)
    Blend: AUG-CC-PVTZ-RI
    Molecular point group: c1

    Geometry (in Angstrom), charge = 0, multiplicity = 1:

       Center              X                  Y                   Z               Mass
    ------------   -----------------  -----------------  -----------------  -----------------
         O           -0.045327236353     1.258496072306     0.297872857365    15.994914619570
         O           -2.430620436353    -0.033729227694    -0.203349742635    15.994914619570
         O            2.345904763647     0.101423072306    -0.251484142635    15.994914619570
         C            0.008202763647    -0.054495927694    -0.264353142635    12.000000000000
         C           -1.263892236353    -0.736679927694     0.198553857365    12.000000000000
         C            1.276610763647    -0.744966927694     0.189402857365    12.000000000000
         H            0.006100763647     0.003120072306    -1.362975142635     1.007825032230
         H           -1.235483236353    -0.834164927694     1.294463857365     1.007825032230
         H           -1.350507236353    -1.735946927694    -0.237763142635     1.007825032230
         H            1.353935763647    -1.748880927694    -0.250620142635     1.007825032230
         H            1.268690763647    -0.833440927694     1.283914857365     1.007825032230
         H            0.815616763647     1.666459072306     0.089318857365     1.007825032230
         H           -2.209066236353     0.921979072306     0.026611857365     1.007825032230
         H            3.165481763647    -0.196131927694     0.176407857365     1.007825032230

  Basis Set: AUG-CC-PVTZ
    Blend: AUG-CC-PVTZ
  Basis Set: (AUG-CC-PVTZ AUX)
    Blend: AUG-CC-PVTZ-JKFIT
	 Reference Energy          =    -342.9631508363352737 [Eh]
	 Singles Energy            =      -0.0000000000000000 [Eh]
	 Same-Spin Energy          =      -0.3288406543901967 [Eh]
	 Opposite-Spin Energy      =      -1.0474297654119589 [Eh]
	 Correlation Energy        =      -1.3762704198021556 [Eh]
	 Total Energy              =    -344.3394212561374275 [Eh]

	 ================> DF-SCS-MP2 Energies <==================
	-----------------------------------------------------------
	 SCS Same-Spin Scale       =       0.3333333333333333 [-]
	 SCS Opposite-Spin Scale   =       1.2000000000000000 [-]
	 SCS Same-Spin Energy      =      -0.1096135514633989 [Eh]
	 SCS Opposite-Spin Energy  =      -1.2569157184943507 [Eh]
	 SCS Correlation Energy    =      -1.3665292699577496 [Eh]
	 SCS Total Energy          =    -344.3296801062930399 [Eh]
	-----------------------------------------------------------

  Dipole Moment: [D]
     X:     3.2566      Y:    -1.2576      Z:     0.9045     Total:     3.6063

*** Psi4 exiting successfully. Buy a developer a beer!
