                               Psi4 1.4a3.dev225

  ==> Input File <==

--------------------------------------------------------------------------
#psi4
#
memory 32 gb

molecule  {
0 1
  O       -0.0679500     1.2804190     0.2912780
  O       -2.4243340     0.0219370    -0.2318290
  O        2.3233720     0.1231770    -0.2581300
  C       -0.0144220    -0.0326010    -0.2709950
  C       -1.2464647    -0.7407890     0.2068590
  C        1.2539560    -0.7229870     0.1828220
  H       -0.0165930     0.0251350    -1.3695740
  H       -1.2581970    -0.8124860     1.2878120
  H       -1.3730900    -1.7140410    -0.2445610
  H        1.3311710    -1.7270150    -0.2570240
  H        1.2459170    -0.8113320     1.2773370
  H        0.7928980     1.6884400     0.0824910
  H       -2.2316880     0.9438100     0.0202110
  H        3.1428100    -0.1741490     0.1701570
units angstrom
no_reorient  #important for SAPT in psi4, default
symmetry c1  #important for SAPT in psi4, default
}

set PROPERTIES_ORIGIN ["COM"]
properties('MP2/aug-cc-pvtz', properties = ['dipole'])
--------------------------------------------------------------------------

    Molecular point group: c1
  Charge       = 0
  Multiplicity = 1
  Basis Set: AUG-CC-PVTZ
    Blend: AUG-CC-PVTZ
  Basis Set: (AUG-CC-PVTZ AUX)
    Blend: AUG-CC-PVTZ-JKFIT

    Orbital Energies [Eh]
    ---------------------

    Doubly Occupied:

       1A    -20.582934     2A    -20.564717     3A    -20.546346
       4A    -11.293811     5A    -11.286091     6A    -11.275958
       7A     -1.390777     8A     -1.361553     9A     -1.326301
      10A     -1.044780    11A     -0.920776    12A     -0.816437
      13A     -0.741970    14A     -0.699368    15A     -0.667090
      16A     -0.653204    17A     -0.608610    18A     -0.595192
      19A     -0.569001    20A     -0.546945    21A     -0.529024
      22A     -0.496548    23A     -0.472589    24A     -0.454224
      25A     -0.443633

  @DF-RHF Final Energy:  -342.96354390071394

   => Energetics <=

    Nuclear Repulsion Energy =            262.3985115954717457
    One-Electron Energy =                -990.9483520163389585
    Two-Electron Energy =                 385.5862965201532688
    Total Energy =                       -342.9635439007139439
  Basis Set: (AUG-CC-PVTZ AUX)
    Blend: AUG-CC-PVTZ-RI
    Molecular point group: c1

    Geometry (in Angstrom), charge = 0, multiplicity = 1:

       Center              X                  Y                   Z               Mass
    ------------   -----------------  -----------------  -----------------  -----------------
         O           -0.055577091608     1.256052026207     0.299743632707    15.994914619570
         O           -2.411961091608    -0.002429973793    -0.223363367293    15.994914619570
         O            2.335744908392     0.098810026207    -0.249664367293    15.994914619570
         C           -0.002049091608    -0.056967973793    -0.262529367293    12.000000000000
         C           -1.234091791608    -0.765155973793     0.215324632707    12.000000000000
         C            1.266328908392    -0.747353973793     0.191287632707    12.000000000000
         H           -0.004220091608     0.000768026207    -1.361108367293     1.007825032230
         H           -1.245824091608    -0.836852973793     1.296277632707     1.007825032230
         H           -1.360717091608    -1.738407973793    -0.236095367293     1.007825032230
         H            1.343543908392    -1.751381973793    -0.248558367293     1.007825032230
         H            1.258289908392    -0.835698973793     1.285802632707     1.007825032230
         H            0.805270908392     1.664073026207     0.090956632707     1.007825032230
         H           -2.219315091608     0.919443026207     0.028676632707     1.007825032230
         H            3.155182908392    -0.198515973793     0.178622632707     1.007825032230

  Basis Set: AUG-CC-PVTZ
    Blend: AUG-CC-PVTZ
  Basis Set: (AUG-CC-PVTZ AUX)
    Blend: AUG-CC-PVTZ-JKFIT
	 Reference Energy          =    -342.9635439007139439 [Eh]
	 Singles Energy            =      -0.0000000000000000 [Eh]
	 Same-Spin Energy          =      -0.3286051444436497 [Eh]
	 Opposite-Spin Energy      =      -1.0472453488237716 [Eh]
	 Correlation Energy        =      -1.3758504932674214 [Eh]
	 Total Energy              =    -344.3393943939813653 [Eh]

	 ================> DF-SCS-MP2 Energies <==================
	-----------------------------------------------------------
	 SCS Same-Spin Scale       =       0.3333333333333333 [-]
	 SCS Opposite-Spin Scale   =       1.2000000000000000 [-]
	 SCS Same-Spin Energy      =      -0.1095350481478832 [Eh]
	 SCS Opposite-Spin Energy  =      -1.2566944185885258 [Eh]
	 SCS Correlation Energy    =      -1.3662294667364090 [Eh]
	 SCS Total Energy          =    -344.3297733674503434 [Eh]
	-----------------------------------------------------------

  Dipole Moment: [D]
     X:     3.3228      Y:    -1.4089      Z:     1.0134     Total:     3.7488

*** Psi4 exiting successfully. Buy a developer a beer!
