                               Psi4 1.3.2 release

  ==> Input File <==

--------------------------------------------------------------------------
#psi4
#
memory 32 gb

molecule  {
0 1
  O       -0.0679570     1.2803790     0.2912690
  O       -2.4243090     0.0219280    -0.2318400
  O        2.3232750     0.1233060    -0.2580880
  C       -0.0144270    -0.0326130    -0.2709570
  C       -1.2310330    -0.5858989     0.2409811
  C        1.2539810    -0.7230840     0.1827990
  H       -0.0165290     0.0250030    -1.3695790
  H       -1.2581130    -0.8122820     1.2878600
  H       -1.3731370    -1.7140640    -0.2443670
  H        1.3313060    -1.7269980    -0.2572240
  H        1.2460610    -0.8115580     1.2773110
  H        0.7929870     1.6883420     0.0827150
  H       -2.2316960     0.9438620     0.0200080
  H        3.1428520    -0.1742490     0.1698040
units angstrom
no_reorient  #important for SAPT in psi4, default
symmetry c1  #important for SAPT in psi4, default
}

set PROPERTIES_ORIGIN ["COM"]
properties('MP2/aug-cc-pvtz', properties = ['dipole'])
--------------------------------------------------------------------------

    Molecular point group: c1
  Charge       = 0
  Multiplicity = 1
  Basis Set: AUG-CC-PVTZ
    Blend: AUG-CC-PVTZ
  Basis Set: (AUG-CC-PVTZ AUX)
    Blend: AUG-CC-PVTZ-JKFIT

    Orbital Energies [Eh]
    ---------------------

    Doubly Occupied:

       1A    -20.584804     2A    -20.563664     3A    -20.556951
       4A    -11.296120     5A    -11.283511     6A    -11.280437
       7A     -1.395529     8A     -1.370734     9A     -1.344383
      10A     -1.051497    11A     -0.922587    12A     -0.813122
      13A     -0.745662    14A     -0.703476    15A     -0.672433
      16A     -0.658161    17A     -0.617833    18A     -0.601989
      19A     -0.566421    20A     -0.548194    21A     -0.530231
      22A     -0.477580    23A     -0.471842    24A     -0.455565
      25A     -0.447651

  @DF-RHF Final Energy:  -342.94056866159633

   => Energetics <=

    Nuclear Repulsion Energy =            264.2520099785279513
    One-Electron Energy =                -994.4644003345082410
    Two-Electron Energy =                 387.2718216943839025
    Total Energy =                       -342.9405686615963305
  Basis Set: (AUG-CC-PVTZ AUX)
    Blend: AUG-CC-PVTZ-RI
    Molecular point group: c1

    Geometry (in Angstrom), charge = 0, multiplicity = 1:

       Center              X                  Y                   Z               Mass
    ------------   -----------------  -----------------  -----------------  -----------------
         O           -0.057590273747     1.235823020032     0.295283949418    15.994914619570
         O           -2.413942273747    -0.022627979968    -0.227825050582    15.994914619570
         O            2.333641726253     0.078750020032    -0.254073050582    15.994914619570
         C           -0.004060273747    -0.077168979968    -0.266942050582    12.000000000000
         C           -1.220666273747    -0.630454879968     0.244996049418    12.000000000000
         C            1.264347726253    -0.767639979968     0.186813949418    12.000000000000
         H           -0.006162273747    -0.019552979968    -1.365564050582     1.007825032230
         H           -1.247746273747    -0.856837979968     1.291874949418     1.007825032230
         H           -1.362770273747    -1.758619979968    -0.240352050582     1.007825032230
         H            1.341672726253    -1.771553979968    -0.253209050582     1.007825032230
         H            1.256427726253    -0.856113979968     1.281325949418     1.007825032230
         H            0.803353726253     1.643786020032     0.086729949418     1.007825032230
         H           -2.221329273747     0.899306020032     0.024022949418     1.007825032230
         H            3.153218726253    -0.218804979968     0.173818949418     1.007825032230

  Basis Set: AUG-CC-PVTZ
    Blend: AUG-CC-PVTZ
  Basis Set: (AUG-CC-PVTZ AUX)
    Blend: AUG-CC-PVTZ-JKFIT
	 Reference Energy          =    -342.9405686615963305 [Eh]
	 Singles Energy            =      -0.0000000000000000 [Eh]
	 Same-Spin Energy          =      -0.3299735429442234 [Eh]
	 Opposite-Spin Energy      =      -1.0491004676416749 [Eh]
	 Correlation Energy        =      -1.3790740105858983 [Eh]
	 Total Energy              =    -344.3196426721822263 [Eh]

	 ================> DF-SCS-MP2 Energies <==================
	-----------------------------------------------------------
	 SCS Same-Spin Scale       =       0.3333333333333333 [-]
	 SCS Opposite-Spin Scale   =       1.2000000000000000 [-]
	 SCS Same-Spin Energy      =      -0.1099911809814078 [Eh]
	 SCS Opposite-Spin Energy  =      -1.2589205611700098 [Eh]
	 SCS Correlation Energy    =      -1.3689117421514176 [Eh]
	 SCS Total Energy          =    -344.3094804037477275 [Eh]
	-----------------------------------------------------------

  Dipole Moment: [D]
     X:     3.2632      Y:    -1.1203      Z:     1.0273     Total:     3.5999

*** Psi4 exiting successfully. Buy a developer a beer!
