                               Psi4 1.3.2 release

  ==> Input File <==

--------------------------------------------------------------------------
#psi4
#
memory 32 gb

molecule  {
0 1
  O       -0.0679570     1.2803790     0.2912690
  O       -2.4243090     0.0219280    -0.2318400
  O        2.3232750     0.1233060    -0.2580880
  C       -0.0144270    -0.0326130    -0.2709570
  C       -1.2865220    -0.7147970     0.1919500
  C        1.2539810    -0.7230840     0.1827990
  H       -0.0165290     0.0250030    -1.3695790
  H       -1.2581130    -0.8122820     1.2878600
  H       -1.3731370    -1.7140640    -0.2443670
  H        1.3313060    -1.7269980    -0.2572240
  H        1.2460610    -0.8115580     1.2773110
  H        0.7929870     1.6883420     0.0827150
  H       -2.2514526     0.8492979    -0.0058244
  H        3.1428520    -0.1742490     0.1698040
units angstrom
no_reorient  #important for SAPT in psi4, default
symmetry c1  #important for SAPT in psi4, default
}

set PROPERTIES_ORIGIN ["COM"]
properties('MP2/aug-cc-pvtz', properties = ['dipole'])
--------------------------------------------------------------------------

    Molecular point group: c1
  Charge       = 0
  Multiplicity = 1
  Basis Set: AUG-CC-PVTZ
    Blend: AUG-CC-PVTZ
  Basis Set: (AUG-CC-PVTZ AUX)
    Blend: AUG-CC-PVTZ-JKFIT

    Orbital Energies [Eh]
    ---------------------

    Doubly Occupied:

       1A    -20.582748     2A    -20.563089     3A    -20.543059
       4A    -11.293624     5A    -11.285325     6A    -11.277844
       7A     -1.394485     8A     -1.378167     9A     -1.350134
      10A     -1.041683    11A     -0.924556    12A     -0.819391
      13A     -0.746052    14A     -0.699210    15A     -0.674526
      16A     -0.666559    17A     -0.613582    18A     -0.596669
      19A     -0.580604    20A     -0.545499    21A     -0.531902
      22A     -0.498782    23A     -0.472354    24A     -0.454848
      25A     -0.441682

  @DF-RHF Final Energy:  -342.96160265778963

   => Energetics <=

    Nuclear Repulsion Energy =            263.1585548198972333
    One-Electron Energy =                -992.2875697438718134
    Two-Electron Energy =                 386.1674122661850106
    Total Energy =                       -342.9616026577896264
  Basis Set: (AUG-CC-PVTZ AUX)
    Blend: AUG-CC-PVTZ-RI
    Molecular point group: c1

    Geometry (in Angstrom), charge = 0, multiplicity = 1:

       Center              X                  Y                   Z               Mass
    ------------   -----------------  -----------------  -----------------  -----------------
         O           -0.050139986044     1.253662549058     0.301958859436    15.994914619570
         O           -2.406491986044    -0.004788450942    -0.221150140564    15.994914619570
         O            2.341092013956     0.096589549058    -0.247398140564    15.994914619570
         C            0.003390013956    -0.059329450942    -0.260267140564    12.000000000000
         C           -1.268704986044    -0.741513450942     0.202639859436    12.000000000000
         C            1.271798013956    -0.749800450942     0.193488859436    12.000000000000
         H            0.001288013956    -0.001713450942    -1.358889140564     1.007825032230
         H           -1.240295986044    -0.838998450942     1.298549859436     1.007825032230
         H           -1.355319986044    -1.740780450942    -0.233677140564     1.007825032230
         H            1.349123013956    -1.753714450942    -0.246534140564     1.007825032230
         H            1.263878013956    -0.838274450942     1.288000859436     1.007825032230
         H            0.810804013956     1.661625549058     0.093404859436     1.007825032230
         H           -2.233635586044     0.822581449058     0.004865459436     1.007825032230
         H            3.160669013956    -0.200965450942     0.180493859436     1.007825032230

  Basis Set: AUG-CC-PVTZ
    Blend: AUG-CC-PVTZ
  Basis Set: (AUG-CC-PVTZ AUX)
    Blend: AUG-CC-PVTZ-JKFIT
	 Reference Energy          =    -342.9616026577896264 [Eh]
	 Singles Energy            =      -0.0000000000000000 [Eh]
	 Same-Spin Energy          =      -0.3271605264978298 [Eh]
	 Opposite-Spin Energy      =      -1.0433922635236506 [Eh]
	 Correlation Energy        =      -1.3705527900214802 [Eh]
	 Total Energy              =    -344.3321554478110897 [Eh]

	 ================> DF-SCS-MP2 Energies <==================
	-----------------------------------------------------------
	 SCS Same-Spin Scale       =       0.3333333333333333 [-]
	 SCS Opposite-Spin Scale   =       1.2000000000000000 [-]
	 SCS Same-Spin Energy      =      -0.1090535088326099 [Eh]
	 SCS Opposite-Spin Energy  =      -1.2520707162283806 [Eh]
	 SCS Correlation Energy    =      -1.3611242250609905 [Eh]
	 SCS Total Energy          =    -344.3227268828505885 [Eh]
	-----------------------------------------------------------

  Dipole Moment: [D]
     X:     3.1751      Y:    -1.4269      Z:     0.9500     Total:     3.6083

*** Psi4 exiting successfully. Buy a developer a beer!
