                               Psi4 1.4a3.dev225

  ==> Input File <==

--------------------------------------------------------------------------
#psi4
#
memory 32 gb

molecule  {
0 1
  O       -0.0679500     1.2804190     0.2912780
  O       -2.4243340     0.0219370    -0.2318290
  O        2.3233720     0.1231770    -0.2581300
  C       -0.0162945     0.0133297    -0.2513261
  C       -1.2865220    -0.7148500     0.1919400
  C        1.2539560    -0.7229870     0.1828220
  H       -0.0165930     0.0251350    -1.3695740
  H       -1.2581970    -0.8124860     1.2878120
  H       -1.3730900    -1.7140410    -0.2445610
  H        1.3311710    -1.7270150    -0.2570240
  H        1.2459170    -0.8113320     1.2773370
  H        0.7928980     1.6884400     0.0824910
  H       -2.2316880     0.9438100     0.0202110
  H        3.1428100    -0.1741490     0.1701570
units angstrom
no_reorient  #important for SAPT in psi4, default
symmetry c1  #important for SAPT in psi4, default
}

set PROPERTIES_ORIGIN ["COM"]
properties('MP2/aug-cc-pvtz', properties = ['dipole'])
--------------------------------------------------------------------------

    Molecular point group: c1
  Charge       = 0
  Multiplicity = 1
  Basis Set: AUG-CC-PVTZ
    Blend: AUG-CC-PVTZ
  Basis Set: (AUG-CC-PVTZ AUX)
    Blend: AUG-CC-PVTZ-JKFIT

    Orbital Energies [Eh]
    ---------------------

    Doubly Occupied:

       1A    -20.581567     2A    -20.569532     3A    -20.550140
       4A    -11.291609     5A    -11.284886     6A    -11.275267
       7A     -1.401678     8A     -1.369422     9A     -1.344937
      10A     -1.031909    11A     -0.915070    12A     -0.816823
      13A     -0.745895    14A     -0.697599    15A     -0.670157
      16A     -0.663826    17A     -0.610898    18A     -0.597236
      19A     -0.579386    20A     -0.548684    21A     -0.536065
      22A     -0.492243    23A     -0.471005    24A     -0.447250
      25A     -0.433015

  @DF-RHF Final Energy:  -342.96502458799148

   => Energetics <=

    Nuclear Repulsion Energy =            262.9582543439167353
    One-Electron Energy =                -991.9943633320056051
    Two-Electron Energy =                 386.0710844000974475
    Total Energy =                       -342.9650245879914792
  Basis Set: (AUG-CC-PVTZ AUX)
    Blend: AUG-CC-PVTZ-RI
    Molecular point group: c1

    Geometry (in Angstrom), charge = 0, multiplicity = 1:

       Center              X                  Y                   Z               Mass
    ------------   -----------------  -----------------  -----------------  -----------------
         O           -0.050110800268     1.246682539143     0.299124399197    15.994914619570
         O           -2.406494800268    -0.011799460857    -0.223982600803    15.994914619570
         O            2.341211199732     0.089440539143    -0.250283600803    15.994914619570
         C            0.001544699732    -0.020406760857    -0.243479700803    12.000000000000
         C           -1.268682800268    -0.748586460857     0.199786399197    12.000000000000
         C            1.271795199732    -0.756723460857     0.190668399197    12.000000000000
         H            0.001246199732    -0.008601460857    -1.361727600803     1.007825032230
         H           -1.240357800268    -0.846222460857     1.295658399197     1.007825032230
         H           -1.355250800268    -1.747777460857    -0.236714600803     1.007825032230
         H            1.349010199732    -1.760751460857    -0.249177600803     1.007825032230
         H            1.263756199732    -0.845068460857     1.285183399197     1.007825032230
         H            0.810737199732     1.654703539143     0.090337399197     1.007825032230
         H           -2.213848800268     0.910073539143     0.028057399197     1.007825032230
         H            3.160649199732    -0.207885460857     0.178003399197     1.007825032230

  Basis Set: AUG-CC-PVTZ
    Blend: AUG-CC-PVTZ
  Basis Set: (AUG-CC-PVTZ AUX)
    Blend: AUG-CC-PVTZ-JKFIT
	 Reference Energy          =    -342.9650245879914792 [Eh]
	 Singles Energy            =      -0.0000000000000000 [Eh]
	 Same-Spin Energy          =      -0.3283025377208290 [Eh]
	 Opposite-Spin Energy      =      -1.0455927872245592 [Eh]
	 Correlation Energy        =      -1.3738953249453880 [Eh]
	 Total Energy              =    -344.3389199129368876 [Eh]

	 ================> DF-SCS-MP2 Energies <==================
	-----------------------------------------------------------
	 SCS Same-Spin Scale       =       0.3333333333333333 [-]
	 SCS Opposite-Spin Scale   =       1.2000000000000000 [-]
	 SCS Same-Spin Energy      =      -0.1094341792402763 [Eh]
	 SCS Opposite-Spin Energy  =      -1.2547113446694709 [Eh]
	 SCS Correlation Energy    =      -1.3641455239097471 [Eh]
	 SCS Total Energy          =    -344.3291701119012487 [Eh]
	-----------------------------------------------------------

  Dipole Moment: [D]
     X:     3.1819      Y:    -1.1696      Z:     1.0267     Total:     3.5421

*** Psi4 exiting successfully. Buy a developer a beer!
