                               Psi4 1.4a3.dev225

  ==> Input File <==

--------------------------------------------------------------------------
#psi4
#
memory 32 gb

molecule  {
0 1
  O       -0.0679500     1.2804190     0.2912780
  O       -2.4243340     0.0219370    -0.2318290
  O        2.3233720     0.1231770    -0.2581300
  C       -0.0144220    -0.0326010    -0.2709950
  C       -1.2865220    -0.7148500     0.1919400
  C        1.2539560    -0.7229870     0.1828220
  H       -0.0165930     0.0251350    -1.3695740
  H       -1.2581970    -0.8124860     1.2878120
  H       -1.3730900    -1.7140410    -0.2445610
  H        1.3311710    -1.7270150    -0.2570240
  H        1.2459170    -0.8113320     1.2773370
  H        0.7928980     1.6884400     0.0824910
  H       -2.2356400     0.9248984     0.0150406
  H        3.1428100    -0.1741490     0.1701570
units angstrom
no_reorient  #important for SAPT in psi4, default
symmetry c1  #important for SAPT in psi4, default
}

set PROPERTIES_ORIGIN ["COM"]
properties('MP2/aug-cc-pvtz', properties = ['dipole'])
--------------------------------------------------------------------------

    Molecular point group: c1
  Charge       = 0
  Multiplicity = 1
  Basis Set: AUG-CC-PVTZ
    Blend: AUG-CC-PVTZ
  Basis Set: (AUG-CC-PVTZ AUX)
    Blend: AUG-CC-PVTZ-JKFIT

    Orbital Energies [Eh]
    ---------------------

    Doubly Occupied:

       1A    -20.582575     2A    -20.563613     3A    -20.549751
       4A    -11.293324     5A    -11.284867     6A    -11.276706
       7A     -1.391112     8A     -1.366878     9A     -1.342998
      10A     -1.039587    11A     -0.919560    12A     -0.815954
      13A     -0.743169    14A     -0.698018    15A     -0.667089
      16A     -0.662770    17A     -0.611359    18A     -0.595337
      19A     -0.578294    20A     -0.545426    21A     -0.530417
      22A     -0.494944    23A     -0.471915    24A     -0.454454
      25A     -0.439330

  @DF-RHF Final Energy:  -342.96739196259705

   => Energetics <=

    Nuclear Repulsion Energy =            262.7072387417941854
    One-Electron Energy =                -991.5103681503500184
    Two-Electron Energy =                 385.8357374459587845
    Total Energy =                       -342.9673919625970484
  Basis Set: (AUG-CC-PVTZ AUX)
    Blend: AUG-CC-PVTZ-RI
    Molecular point group: c1

    Geometry (in Angstrom), charge = 0, multiplicity = 1:

       Center              X                  Y                   Z               Mass
    ------------   -----------------  -----------------  -----------------  -----------------
         O           -0.050311643385     1.252877481423     0.301745198970    15.994914619570
         O           -2.406695643385    -0.005604518577    -0.221361801030    15.994914619570
         O            2.341010356615     0.095635481423    -0.247662801030    15.994914619570
         C            0.003216356615    -0.060142518577    -0.260527801030    12.000000000000
         C           -1.268883643385    -0.742391518577     0.202407198970    12.000000000000
         C            1.271594356615    -0.750528518577     0.193289198970    12.000000000000
         H            0.001045356615    -0.002406518577    -1.359106801030     1.007825032230
         H           -1.240558643385    -0.840027518577     1.298279198970     1.007825032230
         H           -1.355451643385    -1.741582518577    -0.234093801030     1.007825032230
         H            1.348809356615    -1.754556518577    -0.246556801030     1.007825032230
         H            1.263555356615    -0.838873518577     1.287804198970     1.007825032230
         H            0.810536356615     1.660898481423     0.092958198970     1.007825032230
         H           -2.218001643385     0.897356881423     0.025507798970     1.007825032230
         H            3.160448356615    -0.201690518577     0.180624198970     1.007825032230

  Basis Set: AUG-CC-PVTZ
    Blend: AUG-CC-PVTZ
  Basis Set: (AUG-CC-PVTZ AUX)
    Blend: AUG-CC-PVTZ-JKFIT
	 Reference Energy          =    -342.9673919625970484 [Eh]
	 Singles Energy            =      -0.0000000000000000 [Eh]
	 Same-Spin Energy          =      -0.3281524780708180 [Eh]
	 Opposite-Spin Energy      =      -1.0456710249231091 [Eh]
	 Correlation Energy        =      -1.3738235029939272 [Eh]
	 Total Energy              =    -344.3412154655909490 [Eh]

	 ================> DF-SCS-MP2 Energies <==================
	-----------------------------------------------------------
	 SCS Same-Spin Scale       =       0.3333333333333333 [-]
	 SCS Opposite-Spin Scale   =       1.2000000000000000 [-]
	 SCS Same-Spin Energy      =      -0.1093841593569393 [Eh]
	 SCS Opposite-Spin Energy  =      -1.2548052299077310 [Eh]
	 SCS Correlation Energy    =      -1.3641893892646704 [Eh]
	 SCS Total Energy          =    -344.3315813518617006 [Eh]
	-----------------------------------------------------------

  Dipole Moment: [D]
     X:     3.1803      Y:    -1.3428      Z:     0.9627     Total:     3.5839

*** Psi4 exiting successfully. Buy a developer a beer!
