                               Psi4 1.3.2 release

  ==> Input File <==

--------------------------------------------------------------------------
#psi4
#
memory 32 gb

molecule  {
0 1
  O       -0.0679570     1.2803790     0.2912690
  O       -2.4094828     0.0161515    -0.2787881
  O        2.3232750     0.1233060    -0.2580880
  C       -0.0144270    -0.0326130    -0.2709570
  C       -1.2865220    -0.7147970     0.1919500
  C        1.2539810    -0.7230840     0.1827990
  H       -0.0165290     0.0250030    -1.3695790
  H       -1.2581130    -0.8122820     1.2878600
  H       -1.3731370    -1.7140640    -0.2443670
  H        1.3313060    -1.7269980    -0.2572240
  H        1.2460610    -0.8115580     1.2773110
  H        0.7929870     1.6883420     0.0827150
  H       -2.2316960     0.9438620     0.0200080
  H        3.1428520    -0.1742490     0.1698040
units angstrom
no_reorient  #important for SAPT in psi4, default
symmetry c1  #important for SAPT in psi4, default
}

set PROPERTIES_ORIGIN ["COM"]
properties('MP2/aug-cc-pvtz', properties = ['dipole'])
--------------------------------------------------------------------------

    Molecular point group: c1
  Charge       = 0
  Multiplicity = 1
  Basis Set: AUG-CC-PVTZ
    Blend: AUG-CC-PVTZ
  Basis Set: (AUG-CC-PVTZ AUX)
    Blend: AUG-CC-PVTZ-JKFIT

    Orbital Energies [Eh]
    ---------------------

    Doubly Occupied:

       1A    -20.582095     2A    -20.563400     3A    -20.553230
       4A    -11.292609     5A    -11.283756     6A    -11.276316
       7A     -1.390352     8A     -1.364256     9A     -1.338650
      10A     -1.038239    11A     -0.917392    12A     -0.814020
      13A     -0.742051    14A     -0.697885    15A     -0.666539
      16A     -0.658527    17A     -0.609181    18A     -0.594254
      19A     -0.577066    20A     -0.545065    21A     -0.528386
      22A     -0.494769    23A     -0.471548    24A     -0.453364
      25A     -0.439281

  @DF-RHF Final Energy:  -342.96473584579178

   => Energetics <=

    Nuclear Repulsion Energy =            262.6651909735935533
    One-Electron Energy =                -991.4753963648557828
    Two-Electron Energy =                 385.8454695454704506
    Total Energy =                       -342.9647358457917790
  Basis Set: (AUG-CC-PVTZ AUX)
    Blend: AUG-CC-PVTZ-RI
    Molecular point group: c1

    Geometry (in Angstrom), charge = 0, multiplicity = 1:

       Center              X                  Y                   Z               Mass
    ------------   -----------------  -----------------  -----------------  -----------------
         O           -0.052932625002     1.253630940946     0.309834114487    15.994914619570
         O           -2.394458425002    -0.010596559054    -0.260222985513    15.994914619570
         O            2.338299374998     0.096557940946    -0.239522885513    15.994914619570
         C            0.000597374998    -0.059361059054    -0.252391885513    12.000000000000
         C           -1.271497625002    -0.741545059054     0.210515114487    12.000000000000
         C            1.269005374998    -0.749832059054     0.201364114487    12.000000000000
         H           -0.001504625002    -0.001745059054    -1.351013885513     1.007825032230
         H           -1.243088625002    -0.839030059054     1.306425114487     1.007825032230
         H           -1.358112625002    -1.740812059054    -0.225801885513     1.007825032230
         H            1.346330374998    -1.753746059054    -0.238658885513     1.007825032230
         H            1.261085374998    -0.838306059054     1.295876114487     1.007825032230
         H            0.808011374998     1.661593940946     0.101280114487     1.007825032230
         H           -2.216671625002     0.917113940946     0.038573114487     1.007825032230
         H            3.157876374998    -0.200997059054     0.188369114487     1.007825032230

  Basis Set: AUG-CC-PVTZ
    Blend: AUG-CC-PVTZ
  Basis Set: (AUG-CC-PVTZ AUX)
    Blend: AUG-CC-PVTZ-JKFIT
	 Reference Energy          =    -342.9647358457917790 [Eh]
	 Singles Energy            =      -0.0000000000000000 [Eh]
	 Same-Spin Energy          =      -0.3286767388076475 [Eh]
	 Opposite-Spin Energy      =      -1.0469036742092479 [Eh]
	 Correlation Energy        =      -1.3755804130168954 [Eh]
	 Total Energy              =    -344.3403162588086843 [Eh]

	 ================> DF-SCS-MP2 Energies <==================
	-----------------------------------------------------------
	 SCS Same-Spin Scale       =       0.3333333333333333 [-]
	 SCS Opposite-Spin Scale   =       1.2000000000000000 [-]
	 SCS Same-Spin Energy      =      -0.1095589129358825 [Eh]
	 SCS Opposite-Spin Energy  =      -1.2562844090510974 [Eh]
	 SCS Correlation Energy    =      -1.3658433219869799 [Eh]
	 SCS Total Energy          =    -344.3305791677787511 [Eh]
	-----------------------------------------------------------

  Dipole Moment: [D]
     X:     3.1220      Y:    -1.3176      Z:     1.0626     Total:     3.5514

*** Psi4 exiting successfully. Buy a developer a beer!
