                               Psi4 1.3.2 release

  ==> Input File <==

--------------------------------------------------------------------------
#psi4
#
memory 32 gb

molecule  {
0 1
  O       -0.0679570     1.2803790     0.2912690
  O       -2.4243090     0.0219280    -0.2318400
  O        2.3232750     0.1233060    -0.2580880
  C       -0.0144270    -0.0326130    -0.2709570
  C       -1.2763900    -0.6938374     0.2004595
  C        1.2539810    -0.7230840     0.1827990
  H       -0.0165290     0.0250030    -1.3695790
  H       -1.2581130    -0.8122820     1.2878600
  H       -1.3731370    -1.7140640    -0.2443670
  H        1.3313060    -1.7269980    -0.2572240
  H        1.2460610    -0.8115580     1.2773110
  H        0.7929870     1.6883420     0.0827150
  H       -2.2316960     0.9438620     0.0200080
  H        3.1428520    -0.1742490     0.1698040
units angstrom
no_reorient  #important for SAPT in psi4, default
symmetry c1  #important for SAPT in psi4, default
}

set PROPERTIES_ORIGIN ["COM"]
properties('MP2/aug-cc-pvtz', properties = ['dipole'])
--------------------------------------------------------------------------

    Molecular point group: c1
  Charge       = 0
  Multiplicity = 1
  Basis Set: AUG-CC-PVTZ
    Blend: AUG-CC-PVTZ
  Basis Set: (AUG-CC-PVTZ AUX)
    Blend: AUG-CC-PVTZ-JKFIT

    Orbital Energies [Eh]
    ---------------------

    Doubly Occupied:

       1A    -20.582913     2A    -20.563664     3A    -20.551929
       4A    -11.293719     5A    -11.284434     6A    -11.276576
       7A     -1.391468     8A     -1.365980     9A     -1.340838
      10A     -1.041083    11A     -0.918704    12A     -0.814650
      13A     -0.743048    14A     -0.698817    15A     -0.667750
      16A     -0.659716    17A     -0.611731    18A     -0.595488
      19A     -0.574191    20A     -0.545884    21A     -0.529595
      22A     -0.492467    23A     -0.472122    24A     -0.454815
      25A     -0.441646

  @DF-RHF Final Energy:  -342.96539412812547

   => Energetics <=

    Nuclear Repulsion Energy =            262.8852413340772500
    One-Electron Energy =                -991.8748154282187670
    Two-Electron Energy =                 386.0241799660160495
    Total Energy =                       -342.9653941281254674
  Basis Set: (AUG-CC-PVTZ AUX)
    Blend: AUG-CC-PVTZ-RI
    Molecular point group: c1

    Geometry (in Angstrom), charge = 0, multiplicity = 1:

       Center              X                  Y                   Z               Mass
    ------------   -----------------  -----------------  -----------------  -----------------
         O           -0.051677186246     1.249894713381     0.300566656971    15.994914619570
         O           -2.408029186246    -0.008556286619    -0.222542343029    15.994914619570
         O            2.339554813754     0.092821713381    -0.248790343029    15.994914619570
         C            0.001852813754    -0.063097286619    -0.261659343029    12.000000000000
         C           -1.260110186246    -0.724321686619     0.209757156971    12.000000000000
         C            1.270260813754    -0.753568286619     0.192096656971    12.000000000000
         H           -0.000249186246    -0.005481286619    -1.360281343029     1.007825032230
         H           -1.241833186246    -0.842766286619     1.297157656971     1.007825032230
         H           -1.356857186246    -1.744548286619    -0.235069343029     1.007825032230
         H            1.347585813754    -1.757482286619    -0.247926343029     1.007825032230
         H            1.262340813754    -0.842042286619     1.286608656971     1.007825032230
         H            0.809266813754     1.657857713381     0.092012656971     1.007825032230
         H           -2.215416186246     0.913377713381     0.029305656971     1.007825032230
         H            3.159131813754    -0.204733286619     0.179101656971     1.007825032230

  Basis Set: AUG-CC-PVTZ
    Blend: AUG-CC-PVTZ
  Basis Set: (AUG-CC-PVTZ AUX)
    Blend: AUG-CC-PVTZ-JKFIT
	 Reference Energy          =    -342.9653941281254674 [Eh]
	 Singles Energy            =      -0.0000000000000000 [Eh]
	 Same-Spin Energy          =      -0.3285792835324823 [Eh]
	 Opposite-Spin Energy      =      -1.0465474326877802 [Eh]
	 Correlation Energy        =      -1.3751267162202625 [Eh]
	 Total Energy              =    -344.3405208443457468 [Eh]

	 ================> DF-SCS-MP2 Energies <==================
	-----------------------------------------------------------
	 SCS Same-Spin Scale       =       0.3333333333333333 [-]
	 SCS Opposite-Spin Scale   =       1.2000000000000000 [-]
	 SCS Same-Spin Energy      =      -0.1095264278441608 [Eh]
	 SCS Opposite-Spin Energy  =      -1.2558569192253362 [Eh]
	 SCS Correlation Energy    =      -1.3653833470694969 [Eh]
	 SCS Total Energy          =    -344.3307774751949637 [Eh]
	-----------------------------------------------------------

  Dipole Moment: [D]
     X:     3.1992      Y:    -1.2958      Z:     0.9766     Total:     3.5871

*** Psi4 exiting successfully. Buy a developer a beer!
