                               Psi4 1.3.2 release

  ==> Input File <==

--------------------------------------------------------------------------
#psi4
#
memory 32 gb

molecule  {
0 1
  O       -0.0679570     1.2803790     0.2912690
  O       -2.4243090     0.0219280    -0.2318400
  O        2.3232750     0.1233060    -0.2580880
  C        0.0086745    -0.0279361    -0.2791262
  C       -1.2865220    -0.7147970     0.1919500
  C        1.2539810    -0.7230840     0.1827990
  H       -0.0165290     0.0250030    -1.3695790
  H       -1.2581130    -0.8122820     1.2878600
  H       -1.3731370    -1.7140640    -0.2443670
  H        1.3313060    -1.7269980    -0.2572240
  H        1.2460610    -0.8115580     1.2773110
  H        0.7929870     1.6883420     0.0827150
  H       -2.2316960     0.9438620     0.0200080
  H        3.1428520    -0.1742490     0.1698040
units angstrom
no_reorient  #important for SAPT in psi4, default
symmetry c1  #important for SAPT in psi4, default
}

set PROPERTIES_ORIGIN ["COM"]
properties('MP2/aug-cc-pvtz', properties = ['dipole'])
--------------------------------------------------------------------------

    Molecular point group: c1
  Charge       = 0
  Multiplicity = 1
  Basis Set: AUG-CC-PVTZ
    Blend: AUG-CC-PVTZ
  Basis Set: (AUG-CC-PVTZ AUX)
    Blend: AUG-CC-PVTZ-JKFIT

    Orbital Energies [Eh]
    ---------------------

    Doubly Occupied:

       1A    -20.582361     2A    -20.564347     3A    -20.550981
       4A    -11.292819     5A    -11.283983     6A    -11.276794
       7A     -1.391439     8A     -1.364781     9A     -1.340291
      10A     -1.038508    11A     -0.916789    12A     -0.815676
      13A     -0.742863    14A     -0.698156    15A     -0.667189
      16A     -0.659169    17A     -0.609337    18A     -0.594968
      19A     -0.576824    20A     -0.545549    21A     -0.532366
      22A     -0.491355    23A     -0.471713    24A     -0.457864
      25A     -0.436206

  @DF-RHF Final Energy:  -342.96559175869794

   => Energetics <=

    Nuclear Repulsion Energy =            262.5556183388641784
    One-Electron Energy =                -991.2377679306562186
    Two-Electron Energy =                 385.7165578330941003
    Total Energy =                       -342.9655917586979399
  Basis Set: (AUG-CC-PVTZ AUX)
    Blend: AUG-CC-PVTZ-RI
    Molecular point group: c1

    Geometry (in Angstrom), charge = 0, multiplicity = 1:

       Center              X                  Y                   Z               Mass
    ------------   -----------------  -----------------  -----------------  -----------------
         O           -0.053367990055     1.252017451434     0.302741020630    15.994914619570
         O           -2.409719990055    -0.006433548566    -0.220367979370    15.994914619570
         O            2.337864009945     0.094944451434    -0.246615979370    15.994914619570
         C            0.023263509945    -0.056297648566    -0.267654179370    12.000000000000
         C           -1.271932990055    -0.743158548566     0.203422020630    12.000000000000
         C            1.268570009945    -0.751445548566     0.194271020630    12.000000000000
         H           -0.001939990055    -0.003358548566    -1.358106979370     1.007825032230
         H           -1.243523990055    -0.840643548566     1.299332020630     1.007825032230
         H           -1.358547990055    -1.742425548566    -0.232894979370     1.007825032230
         H            1.345895009945    -1.755359548566    -0.245751979370     1.007825032230
         H            1.260650009945    -0.839919548566     1.288783020630     1.007825032230
         H            0.807576009945     1.659980451434     0.094187020630     1.007825032230
         H           -2.217106990055     0.915500451434     0.031480020630     1.007825032230
         H            3.157441009945    -0.202610548566     0.181276020630     1.007825032230

  Basis Set: AUG-CC-PVTZ
    Blend: AUG-CC-PVTZ
  Basis Set: (AUG-CC-PVTZ AUX)
    Blend: AUG-CC-PVTZ-JKFIT
	 Reference Energy          =    -342.9655917586979399 [Eh]
	 Singles Energy            =      -0.0000000000000000 [Eh]
	 Same-Spin Energy          =      -0.3284634296152322 [Eh]
	 Opposite-Spin Energy      =      -1.0464678827382121 [Eh]
	 Correlation Energy        =      -1.3749313123534443 [Eh]
	 Total Energy              =    -344.3405230710513933 [Eh]

	 ================> DF-SCS-MP2 Energies <==================
	-----------------------------------------------------------
	 SCS Same-Spin Scale       =       0.3333333333333333 [-]
	 SCS Opposite-Spin Scale   =       1.2000000000000000 [-]
	 SCS Same-Spin Energy      =      -0.1094878098717441 [Eh]
	 SCS Opposite-Spin Energy  =      -1.2557614592858546 [Eh]
	 SCS Correlation Energy    =      -1.3652492691575986 [Eh]
	 SCS Total Energy          =    -344.3308410278555129 [Eh]
	-----------------------------------------------------------

  Dipole Moment: [D]
     X:     3.2028      Y:    -1.3137      Z:     0.9613     Total:     3.5928

*** Psi4 exiting successfully. Buy a developer a beer!
