                               Psi4 1.4a3.dev225

  ==> Input File <==

--------------------------------------------------------------------------
#psi4
#
memory 32 gb

molecule  {
0 1
  O       -0.0679500     1.2804190     0.2912780
  O       -2.4243340     0.0219370    -0.2318290
  O        2.3233720     0.1231770    -0.2581300
  C       -0.0144220    -0.0326010    -0.2709950
  C       -1.2865220    -0.7148500     0.1919400
  C        1.2539560    -0.7229870     0.1828220
  H       -0.0165930     0.0251350    -1.3695740
  H       -1.2581970    -0.8124860     1.2878120
  H       -1.3730900    -1.7140410    -0.2445610
  H        1.3311710    -1.7270150    -0.2570240
  H        1.2459170    -0.8113320     1.2773370
  H        0.7928980     1.6884400     0.0824910
  H       -2.2218080     0.9910890     0.0331371
  H        3.1428100    -0.1741490     0.1701570
units angstrom
no_reorient  #important for SAPT in psi4, default
symmetry c1  #important for SAPT in psi4, default
}

set PROPERTIES_ORIGIN ["COM"]
properties('MP2/aug-cc-pvtz', properties = ['dipole'])
--------------------------------------------------------------------------

    Molecular point group: c1
  Charge       = 0
  Multiplicity = 1
  Basis Set: AUG-CC-PVTZ
    Blend: AUG-CC-PVTZ
  Basis Set: (AUG-CC-PVTZ AUX)
    Blend: AUG-CC-PVTZ-JKFIT

    Orbital Energies [Eh]
    ---------------------

    Doubly Occupied:

       1A    -20.582450     2A    -20.564126     3A    -20.554422
       4A    -11.293100     5A    -11.284516     6A    -11.275755
       7A     -1.390419     8A     -1.362537     9A     -1.332999
      10A     -1.038090    11A     -0.916012    12A     -0.813431
      13A     -0.741210    14A     -0.697323    15A     -0.666911
      16A     -0.652975    17A     -0.608981    18A     -0.594239
      19A     -0.576252    20A     -0.545412    21A     -0.529057
      22A     -0.491053    23A     -0.471453    24A     -0.454248
      25A     -0.437300

  @DF-RHF Final Energy:  -342.96143874225345

   => Energetics <=

    Nuclear Repulsion Energy =            262.3646710053974402
    One-Electron Energy =                -990.9036792068764044
    Two-Electron Energy =                 385.5775694592255149
    Total Energy =                       -342.9614387422534492
  Basis Set: (AUG-CC-PVTZ AUX)
    Blend: AUG-CC-PVTZ-RI
    Molecular point group: c1

    Geometry (in Angstrom), charge = 0, multiplicity = 1:

       Center              X                  Y                   Z               Mass
    ------------   -----------------  -----------------  -----------------  -----------------
         O           -0.050463089752     1.252152761506     0.301547060654    15.994914619570
         O           -2.406847089752    -0.006329238494    -0.221559939346    15.994914619570
         O            2.340858910248     0.094910761506    -0.247860939346    15.994914619570
         C            0.003064910248    -0.060867238494    -0.260725939346    12.000000000000
         C           -1.269035089752    -0.743116238494     0.202209060654    12.000000000000
         C            1.271442910248    -0.751253238494     0.193091060654    12.000000000000
         H            0.000893910248    -0.003131238494    -1.359304939346     1.007825032230
         H           -1.240710089752    -0.840752238494     1.298081060654     1.007825032230
         H           -1.355603089752    -1.742307238494    -0.234291939346     1.007825032230
         H            1.348657910248    -1.755281238494    -0.246754939346     1.007825032230
         H            1.263403910248    -0.839598238494     1.287606060654     1.007825032230
         H            0.810384910248     1.660173761506     0.092760060654     1.007825032230
         H           -2.204321089752     0.962822761506     0.043406160654     1.007825032230
         H            3.160296910248    -0.202415238494     0.180426060654     1.007825032230

  Basis Set: AUG-CC-PVTZ
    Blend: AUG-CC-PVTZ
  Basis Set: (AUG-CC-PVTZ AUX)
    Blend: AUG-CC-PVTZ-JKFIT
	 Reference Energy          =    -342.9614387422534492 [Eh]
	 Singles Energy            =      -0.0000000000000000 [Eh]
	 Same-Spin Energy          =      -0.3290234189368758 [Eh]
	 Opposite-Spin Energy      =      -1.0478252302090247 [Eh]
	 Correlation Energy        =      -1.3768486491459004 [Eh]
	 Total Energy              =    -344.3382873913993762 [Eh]

	 ================> DF-SCS-MP2 Energies <==================
	-----------------------------------------------------------
	 SCS Same-Spin Scale       =       0.3333333333333333 [-]
	 SCS Opposite-Spin Scale   =       1.2000000000000000 [-]
	 SCS Same-Spin Energy      =      -0.1096744729789586 [Eh]
	 SCS Opposite-Spin Energy  =      -1.2573902762508296 [Eh]
	 SCS Correlation Energy    =      -1.3670647492297880 [Eh]
	 SCS Total Energy          =    -344.3285034914832181 [Eh]
	-----------------------------------------------------------

  Dipole Moment: [D]
     X:     3.1917      Y:    -1.2707      Z:     0.9743     Total:     3.5708

*** Psi4 exiting successfully. Buy a developer a beer!
