                               Psi4 1.3.2 release

  ==> Input File <==

--------------------------------------------------------------------------
#psi4
#
memory 32 gb

molecule  {
0 1
  O       -0.0679570     1.2803790     0.2912690
  O       -2.4243090     0.0219280    -0.2318400
  O        2.3232750     0.1233060    -0.2580880
  C       -0.0219174     0.1511116    -0.1922857
  C       -1.2865220    -0.7147970     0.1919500
  C        1.2539810    -0.7230840     0.1827990
  H       -0.0165290     0.0250030    -1.3695790
  H       -1.2581130    -0.8122820     1.2878600
  H       -1.3731370    -1.7140640    -0.2443670
  H        1.3313060    -1.7269980    -0.2572240
  H        1.2460610    -0.8115580     1.2773110
  H        0.7929870     1.6883420     0.0827150
  H       -2.2316960     0.9438620     0.0200080
  H        3.1428520    -0.1742490     0.1698040
units angstrom
no_reorient  #important for SAPT in psi4, default
symmetry c1  #important for SAPT in psi4, default
}

set PROPERTIES_ORIGIN ["COM"]
properties('MP2/aug-cc-pvtz', properties = ['dipole'])
--------------------------------------------------------------------------

    Molecular point group: c1
  Charge       = 0
  Multiplicity = 1
  Basis Set: AUG-CC-PVTZ
    Blend: AUG-CC-PVTZ
  Basis Set: (AUG-CC-PVTZ AUX)
    Blend: AUG-CC-PVTZ-JKFIT

    Orbital Energies [Eh]
    ---------------------

    Doubly Occupied:

       1A    -20.588487     2A    -20.578669     3A    -20.547321
       4A    -11.291012     5A    -11.286031     6A    -11.272372
       7A     -1.474399     8A     -1.371807     9A     -1.347375
      10A     -1.010060    11A     -0.906833    12A     -0.835372
      13A     -0.758111    14A     -0.702319    15A     -0.681410
      16A     -0.679923    17A     -0.620780    18A     -0.612631
      19A     -0.582721    20A     -0.556891    21A     -0.542677
      22A     -0.484554    23A     -0.467212    24A     -0.416568
      25A     -0.406935

  @DF-RHF Final Energy:  -342.92197814594050

   => Energetics <=

    Nuclear Repulsion Energy =            264.1638698976078672
    One-Electron Energy =                -994.1267538149479606
    Two-Electron Energy =                 387.0409057713996503
    Total Energy =                       -342.9219781459404999
  Basis Set: (AUG-CC-PVTZ AUX)
    Blend: AUG-CC-PVTZ-RI
    Molecular point group: c1

    Geometry (in Angstrom), charge = 0, multiplicity = 1:

       Center              X                  Y                   Z               Mass
    ------------   -----------------  -----------------  -----------------  -----------------
         O           -0.049379794594     1.228675415652     0.291419824891    15.994914619570
         O           -2.405731794594    -0.029775584348    -0.231689175109    15.994914619570
         O            2.341852205406     0.071602415652    -0.257937175109    15.994914619570
         C           -0.003340194594     0.099408015652    -0.192134875109    12.000000000000
         C           -1.267944794594    -0.766500584348     0.192100824891    12.000000000000
         C            1.272558205406    -0.774787584348     0.182949824891    12.000000000000
         H            0.002048205406    -0.026700584348    -1.369428175109     1.007825032230
         H           -1.239535794594    -0.863985584348     1.288010824891     1.007825032230
         H           -1.354559794594    -1.765767584348    -0.244216175109     1.007825032230
         H            1.349883205406    -1.778701584348    -0.257073175109     1.007825032230
         H            1.264638205406    -0.863261584348     1.277461824891     1.007825032230
         H            0.811564205406     1.636638415652     0.082865824891     1.007825032230
         H           -2.213118794594     0.892158415652     0.020158824891     1.007825032230
         H            3.161429205406    -0.225952584348     0.169954824891     1.007825032230

  Basis Set: AUG-CC-PVTZ
    Blend: AUG-CC-PVTZ
  Basis Set: (AUG-CC-PVTZ AUX)
    Blend: AUG-CC-PVTZ-JKFIT
	 Reference Energy          =    -342.9219781459404999 [Eh]
	 Singles Energy            =      -0.0000000000000000 [Eh]
	 Same-Spin Energy          =      -0.3291170549538218 [Eh]
	 Opposite-Spin Energy      =      -1.0455541691932591 [Eh]
	 Correlation Energy        =      -1.3746712241470809 [Eh]
	 Total Energy              =    -344.2966493700876072 [Eh]

	 ================> DF-SCS-MP2 Energies <==================
	-----------------------------------------------------------
	 SCS Same-Spin Scale       =       0.3333333333333333 [-]
	 SCS Opposite-Spin Scale   =       1.2000000000000000 [-]
	 SCS Same-Spin Energy      =      -0.1097056849846073 [Eh]
	 SCS Opposite-Spin Energy  =      -1.2546650030319109 [Eh]
	 SCS Correlation Energy    =      -1.3643706880165181 [Eh]
	 SCS Total Energy          =    -344.2863488339569926 [Eh]
	-----------------------------------------------------------

  Dipole Moment: [D]
     X:     3.1593      Y:    -0.6220      Z:     1.2769     Total:     3.4639

*** Psi4 exiting successfully. Buy a developer a beer!
