                               Psi4 1.3.2 release

  ==> Input File <==

--------------------------------------------------------------------------
#psi4
#
memory 32 gb

molecule  {
0 1
  O       -0.0679570     1.2803790     0.2912690
  O       -2.4377490     0.0268069    -0.1843756
  O        2.3232750     0.1233060    -0.2580880
  C       -0.0144270    -0.0326130    -0.2709570
  C       -1.2865220    -0.7147970     0.1919500
  C        1.2539810    -0.7230840     0.1827990
  H       -0.0165290     0.0250030    -1.3695790
  H       -1.2581130    -0.8122820     1.2878600
  H       -1.3731370    -1.7140640    -0.2443670
  H        1.3313060    -1.7269980    -0.2572240
  H        1.2460610    -0.8115580     1.2773110
  H        0.7929870     1.6883420     0.0827150
  H       -2.2316960     0.9438620     0.0200080
  H        3.1428520    -0.1742490     0.1698040
units angstrom
no_reorient  #important for SAPT in psi4, default
symmetry c1  #important for SAPT in psi4, default
}

set PROPERTIES_ORIGIN ["COM"]
properties('MP2/aug-cc-pvtz', properties = ['dipole'])
--------------------------------------------------------------------------

    Molecular point group: c1
  Charge       = 0
  Multiplicity = 1
  Basis Set: AUG-CC-PVTZ
    Blend: AUG-CC-PVTZ
  Basis Set: (AUG-CC-PVTZ AUX)
    Blend: AUG-CC-PVTZ-JKFIT

    Orbital Energies [Eh]
    ---------------------

    Doubly Occupied:

       1A    -20.582952     2A    -20.564101     3A    -20.549387
       4A    -11.293870     5A    -11.285749     6A    -11.276459
       7A     -1.391293     8A     -1.366030     9A     -1.341790
      10A     -1.039910    11A     -0.919414    12A     -0.816328
      13A     -0.742961    14A     -0.697736    15A     -0.667361
      16A     -0.661036    17A     -0.612480    18A     -0.595614
      19A     -0.577982    20A     -0.545777    21A     -0.531649
      22A     -0.492990    23A     -0.472039    24A     -0.455323
      25A     -0.437876

  @DF-RHF Final Energy:  -342.96719858740323

   => Energetics <=

    Nuclear Repulsion Energy =            262.5487671541699228
    One-Electron Energy =                -991.1957157921694943
    Two-Electron Energy =                 385.6797500505963399
    Total Energy =                       -342.9671985874032316
  Basis Set: (AUG-CC-PVTZ AUX)
    Blend: AUG-CC-PVTZ-RI
    Molecular point group: c1

    Geometry (in Angstrom), charge = 0, multiplicity = 1:

       Center              X                  Y                   Z               Mass
    ------------   -----------------  -----------------  -----------------  -----------------
         O           -0.048020854217     1.251779369726     0.293428210644    15.994914619570
         O           -2.417812854217    -0.001792730274    -0.182216389356    15.994914619570
         O            2.343211145783     0.094706369726    -0.255928789356    15.994914619570
         C            0.005509145783    -0.061212630274    -0.268797789356    12.000000000000
         C           -1.266585854217    -0.743396630274     0.194109210644    12.000000000000
         C            1.273917145783    -0.751683630274     0.184958210644    12.000000000000
         H            0.003407145783    -0.003596630274    -1.367419789356     1.007825032230
         H           -1.238176854217    -0.840881630274     1.290019210644     1.007825032230
         H           -1.353200854217    -1.742663630274    -0.242207789356     1.007825032230
         H            1.351242145783    -1.755597630274    -0.255064789356     1.007825032230
         H            1.265997145783    -0.840157630274     1.279470210644     1.007825032230
         H            0.812923145783     1.659742369726     0.084874210644     1.007825032230
         H           -2.211759854217     0.915262369726     0.022167210644     1.007825032230
         H            3.162788145783    -0.202848630274     0.171963210644     1.007825032230

  Basis Set: AUG-CC-PVTZ
    Blend: AUG-CC-PVTZ
  Basis Set: (AUG-CC-PVTZ AUX)
    Blend: AUG-CC-PVTZ-JKFIT
	 Reference Energy          =    -342.9671985874032316 [Eh]
	 Singles Energy            =      -0.0000000000000000 [Eh]
	 Same-Spin Energy          =      -0.3281873525151207 [Eh]
	 Opposite-Spin Energy      =      -1.0457835558996622 [Eh]
	 Correlation Energy        =      -1.3739709084147829 [Eh]
	 Total Energy              =    -344.3411694958180078 [Eh]

	 ================> DF-SCS-MP2 Energies <==================
	-----------------------------------------------------------
	 SCS Same-Spin Scale       =       0.3333333333333333 [-]
	 SCS Opposite-Spin Scale   =       1.2000000000000000 [-]
	 SCS Same-Spin Energy      =      -0.1093957841717069 [Eh]
	 SCS Opposite-Spin Energy  =      -1.2549402670795946 [Eh]
	 SCS Correlation Energy    =      -1.3643360512513014 [Eh]
	 SCS Total Energy          =    -344.3315346386545457 [Eh]
	-----------------------------------------------------------

  Dipole Moment: [D]
     X:     3.2401      Y:    -1.3256      Z:     0.8643     Total:     3.6059

*** Psi4 exiting successfully. Buy a developer a beer!
