                               Psi4 1.3.2 release

  ==> Input File <==

--------------------------------------------------------------------------
#psi4
#
memory 32 gb

molecule  {
0 1
  O       -0.0679570     1.2803790     0.2912690
  O       -2.4170681     0.0191515    -0.2553822
  O        2.3232750     0.1233060    -0.2580880
  C       -0.0144270    -0.0326130    -0.2709570
  C       -1.2865220    -0.7147970     0.1919500
  C        1.2539810    -0.7230840     0.1827990
  H       -0.0165290     0.0250030    -1.3695790
  H       -1.2581130    -0.8122820     1.2878600
  H       -1.3731370    -1.7140640    -0.2443670
  H        1.3313060    -1.7269980    -0.2572240
  H        1.2460610    -0.8115580     1.2773110
  H        0.7929870     1.6883420     0.0827150
  H       -2.2316960     0.9438620     0.0200080
  H        3.1428520    -0.1742490     0.1698040
units angstrom
no_reorient  #important for SAPT in psi4, default
symmetry c1  #important for SAPT in psi4, default
}

set PROPERTIES_ORIGIN ["COM"]
properties('MP2/aug-cc-pvtz', properties = ['dipole'])
--------------------------------------------------------------------------

    Molecular point group: c1
  Charge       = 0
  Multiplicity = 1
  Basis Set: AUG-CC-PVTZ
    Blend: AUG-CC-PVTZ
  Basis Set: (AUG-CC-PVTZ AUX)
    Blend: AUG-CC-PVTZ-JKFIT

    Orbital Energies [Eh]
    ---------------------

    Doubly Occupied:

       1A    -20.582319     2A    -20.563580     3A    -20.552186
       4A    -11.292940     5A    -11.284259     6A    -11.276374
       7A     -1.390598     8A     -1.364721     9A     -1.339527
      10A     -1.038689    11A     -0.917947    12A     -0.814602
      13A     -0.742321    14A     -0.697842    15A     -0.666747
      16A     -0.659317    17A     -0.609931    18A     -0.594641
      19A     -0.577443    20A     -0.545251    21A     -0.529214
      22A     -0.494329    23A     -0.471679    24A     -0.453876
      25A     -0.439040

  @DF-RHF Final Energy:  -342.96577009136917

   => Energetics <=

    Nuclear Repulsion Energy =            262.6363695130820588
    One-Electron Energy =                -991.4055322785306998
    Two-Electron Energy =                 385.8033926740794755
    Total Energy =                       -342.9657700913691656
  Basis Set: (AUG-CC-PVTZ AUX)
    Blend: AUG-CC-PVTZ-RI
    Molecular point group: c1

    Geometry (in Angstrom), charge = 0, multiplicity = 1:

       Center              X                  Y                   Z               Mass
    ------------   -----------------  -----------------  -----------------  -----------------
         O           -0.051614539977     1.253109635912     0.305766909988    15.994914619570
         O           -2.400725639977    -0.008117864088    -0.240884290012    15.994914619570
         O            2.339617460023     0.096036635912    -0.243590090012    15.994914619570
         C            0.001915460023    -0.059882364088    -0.256459090012    12.000000000000
         C           -1.270179539977    -0.742066364088     0.206447909988    12.000000000000
         C            1.270323460023    -0.750353364088     0.197296909988    12.000000000000
         H           -0.000186539977    -0.002266364088    -1.355081090012     1.007825032230
         H           -1.241770539977    -0.839551364088     1.302357909988     1.007825032230
         H           -1.356794539977    -1.741333364088    -0.229869090012     1.007825032230
         H            1.347648460023    -1.754267364088    -0.242726090012     1.007825032230
         H            1.262403460023    -0.838827364088     1.291808909988     1.007825032230
         H            0.809329460023     1.661072635912     0.097212909988     1.007825032230
         H           -2.215353539977     0.916592635912     0.034505909988     1.007825032230
         H            3.159194460023    -0.201518364088     0.184301909988     1.007825032230

  Basis Set: AUG-CC-PVTZ
    Blend: AUG-CC-PVTZ
  Basis Set: (AUG-CC-PVTZ AUX)
    Blend: AUG-CC-PVTZ-JKFIT
	 Reference Energy          =    -342.9657700913691656 [Eh]
	 Singles Energy            =      -0.0000000000000000 [Eh]
	 Same-Spin Energy          =      -0.3285326719463024 [Eh]
	 Opposite-Spin Energy      =      -1.0465696838637064 [Eh]
	 Correlation Energy        =      -1.3751023558100088 [Eh]
	 Total Energy              =    -344.3408724471791515 [Eh]

	 ================> DF-SCS-MP2 Energies <==================
	-----------------------------------------------------------
	 SCS Same-Spin Scale       =       0.3333333333333333 [-]
	 SCS Opposite-Spin Scale   =       1.2000000000000000 [-]
	 SCS Same-Spin Energy      =      -0.1095108906487675 [Eh]
	 SCS Opposite-Spin Energy  =      -1.2558836206364477 [Eh]
	 SCS Correlation Energy    =      -1.3653945112852151 [Eh]
	 SCS Total Energy          =    -344.3311646026543826 [Eh]
	-----------------------------------------------------------

  Dipole Moment: [D]
     X:     3.1533      Y:    -1.3202      Z:     1.0145     Total:     3.5658

*** Psi4 exiting successfully. Buy a developer a beer!
