                               Psi4 1.4a3.dev225

  ==> Input File <==

--------------------------------------------------------------------------
#psi4
#
memory 32 gb

molecule  {
0 1
  O       -0.0679500     1.2804190     0.2912780
  O       -2.4243340     0.0219370    -0.2318290
  O        2.3233720     0.1231770    -0.2581300
  C       -0.0144220    -0.0326010    -0.2709950
  C       -1.3025449    -0.7044744     0.1859724
  C        1.2539560    -0.7229870     0.1828220
  H       -0.0165930     0.0251350    -1.3695740
  H       -1.2581970    -0.8124860     1.2878120
  H       -1.3730900    -1.7140410    -0.2445610
  H        1.3311710    -1.7270150    -0.2570240
  H        1.2459170    -0.8113320     1.2773370
  H        0.7928980     1.6884400     0.0824910
  H       -2.2316880     0.9438100     0.0202110
  H        3.1428100    -0.1741490     0.1701570
units angstrom
no_reorient  #important for SAPT in psi4, default
symmetry c1  #important for SAPT in psi4, default
}

set PROPERTIES_ORIGIN ["COM"]
properties('MP2/aug-cc-pvtz', properties = ['dipole'])
--------------------------------------------------------------------------

    Molecular point group: c1
  Charge       = 0
  Multiplicity = 1
  Basis Set: AUG-CC-PVTZ
    Blend: AUG-CC-PVTZ
  Basis Set: (AUG-CC-PVTZ AUX)
    Blend: AUG-CC-PVTZ-JKFIT

    Orbital Energies [Eh]
    ---------------------

    Doubly Occupied:

       1A    -20.582376     2A    -20.563382     3A    -20.553169
       4A    -11.293044     5A    -11.284244     6A    -11.276898
       7A     -1.391191     8A     -1.368391     9A     -1.344579
      10A     -1.036920    11A     -0.917484    12A     -0.814902
      13A     -0.743003    14A     -0.697279    15A     -0.667082
      16A     -0.662867    17A     -0.611739    18A     -0.596016
      19A     -0.581059    20A     -0.544979    21A     -0.530493
      22A     -0.491746    23A     -0.471385    24A     -0.454367
      25A     -0.436179

  @DF-RHF Final Energy:  -342.96641947160481

   => Energetics <=

    Nuclear Repulsion Energy =            262.6948441222128281
    One-Electron Energy =                -991.4929801464113552
    Two-Electron Energy =                 385.8317165525937753
    Total Energy =                       -342.9664194716048087
  Basis Set: (AUG-CC-PVTZ AUX)
    Blend: AUG-CC-PVTZ-RI
    Molecular point group: c1

    Geometry (in Angstrom), charge = 0, multiplicity = 1:

       Center              X                  Y                   Z               Mass
    ------------   -----------------  -----------------  -----------------  -----------------
         O           -0.048266045250     1.251317775543     0.302466570586    15.994914619570
         O           -2.404650045250    -0.007164224457    -0.220640429414    15.994914619570
         O            2.343055954750     0.094075775543    -0.246941429414    15.994914619570
         C            0.005261954750    -0.061702224457    -0.259806429414    12.000000000000
         C           -1.282860945250    -0.733575624457     0.197160970586    12.000000000000
         C            1.273639954750    -0.752088224457     0.194010570586    12.000000000000
         H            0.003090954750    -0.003966224457    -1.358385429414     1.007825032230
         H           -1.238513045250    -0.841587224457     1.299000570586     1.007825032230
         H           -1.353406045250    -1.743142224457    -0.233372429414     1.007825032230
         H            1.350854954750    -1.756116224457    -0.245835429414     1.007825032230
         H            1.265600954750    -0.840433224457     1.288525570586     1.007825032230
         H            0.812581954750     1.659338775543     0.093679570586     1.007825032230
         H           -2.212004045250     0.914708775543     0.031399570586     1.007825032230
         H            3.162493954750    -0.203250224457     0.181345570586     1.007825032230

  Basis Set: AUG-CC-PVTZ
    Blend: AUG-CC-PVTZ
  Basis Set: (AUG-CC-PVTZ AUX)
    Blend: AUG-CC-PVTZ-JKFIT
	 Reference Energy          =    -342.9664194716048087 [Eh]
	 Singles Energy            =      -0.0000000000000000 [Eh]
	 Same-Spin Energy          =      -0.3283674590015597 [Eh]
	 Opposite-Spin Energy      =      -1.0459651088234985 [Eh]
	 Correlation Energy        =      -1.3743325678250582 [Eh]
	 Total Energy              =    -344.3407520394298444 [Eh]

	 ================> DF-SCS-MP2 Energies <==================
	-----------------------------------------------------------
	 SCS Same-Spin Scale       =       0.3333333333333333 [-]
	 SCS Opposite-Spin Scale   =       1.2000000000000000 [-]
	 SCS Same-Spin Energy      =      -0.1094558196671866 [Eh]
	 SCS Opposite-Spin Energy  =      -1.2551581305881980 [Eh]
	 SCS Correlation Energy    =      -1.3646139502553847 [Eh]
	 SCS Total Energy          =    -344.3310334218601838 [Eh]
	-----------------------------------------------------------

  Dipole Moment: [D]
     X:     3.1232      Y:    -1.2840      Z:     0.9444     Total:     3.5065

*** Psi4 exiting successfully. Buy a developer a beer!
