                               Psi4 1.3.2 release

  ==> Input File <==

--------------------------------------------------------------------------
#psi4
#
memory 32 gb

molecule  {
0 1
  O       -0.0679570     1.2803790     0.2912690
  O       -2.4243090     0.0219280    -0.2318400
  O        2.3232750     0.1233060    -0.2580880
  C       -0.0144270    -0.0326130    -0.2709570
  C       -1.2865220    -0.7147970     0.1919500
  C        1.2539810    -0.7230840     0.1827990
  H       -0.0165290     0.0250030    -1.3695790
  H       -1.2581130    -0.8122820     1.2878600
  H       -1.3731370    -1.7140640    -0.2443670
  H        1.3313060    -1.7269980    -0.2572240
  H        1.2460610    -0.8115580     1.2773110
  H        0.6164321     1.6046805     0.1254834
  H       -2.2316960     0.9438620     0.0200080
  H        3.1428520    -0.1742490     0.1698040
units angstrom
no_reorient  #important for SAPT in psi4, default
symmetry c1  #important for SAPT in psi4, default
}

set PROPERTIES_ORIGIN ["COM"]
properties('MP2/aug-cc-pvtz', properties = ['dipole'])
--------------------------------------------------------------------------

    Molecular point group: c1
  Charge       = 0
  Multiplicity = 1
  Basis Set: AUG-CC-PVTZ
    Blend: AUG-CC-PVTZ
  Basis Set: (AUG-CC-PVTZ AUX)
    Blend: AUG-CC-PVTZ-JKFIT

    Orbital Energies [Eh]
    ---------------------

    Doubly Occupied:

       1A    -20.581269     2A    -20.552705     3A    -20.545779
       4A    -11.294467     5A    -11.287796     6A    -11.278062
       7A     -1.433642     8A     -1.373636     9A     -1.351774
      10A     -1.051634    11A     -0.920623    12A     -0.834401
      13A     -0.757497    14A     -0.705135    15A     -0.676733
      16A     -0.664382    17A     -0.613889    18A     -0.601224
      19A     -0.580671    20A     -0.551641    21A     -0.537076
      22A     -0.497686    23A     -0.471222    24A     -0.460802
      25A     -0.441682

  @DF-RHF Final Energy:  -342.92142593326940

   => Energetics <=

    Nuclear Repulsion Energy =            263.9669750352096003
    One-Electron Energy =                -993.6459434295259143
    Two-Electron Energy =                 386.7575424610469668
    Total Energy =                       -342.9214259332694041
  Basis Set: (AUG-CC-PVTZ AUX)
    Blend: AUG-CC-PVTZ-RI
    Molecular point group: c1

    Geometry (in Angstrom), charge = 0, multiplicity = 1:

       Center              X                  Y                   Z               Mass
    ------------   -----------------  -----------------  -----------------  -----------------
         O           -0.048423203737     1.253543176649     0.301207750274    15.994914619570
         O           -2.404775203737    -0.004907823351    -0.221901249726    15.994914619570
         O            2.342808796263     0.096470176649    -0.248149249726    15.994914619570
         C            0.005106796263    -0.059448823351    -0.261018249726    12.000000000000
         C           -1.266988203737    -0.741632823351     0.201888750274    12.000000000000
         C            1.273514796263    -0.749919823351     0.192737750274    12.000000000000
         H            0.003004796263    -0.001832823351    -1.359640249726     1.007825032230
         H           -1.238579203737    -0.839117823351     1.297798750274     1.007825032230
         H           -1.353603203737    -1.740899823351    -0.234428249726     1.007825032230
         H            1.350839796263    -1.753833823351    -0.247285249726     1.007825032230
         H            1.265594796263    -0.838393823351     1.287249750274     1.007825032230
         H            0.635965896263     1.577844676649     0.135422150274     1.007825032230
         H           -2.212162203737     0.917026176649     0.029946750274     1.007825032230
         H            3.162385796263    -0.201084823351     0.179742750274     1.007825032230

  Basis Set: AUG-CC-PVTZ
    Blend: AUG-CC-PVTZ
  Basis Set: (AUG-CC-PVTZ AUX)
    Blend: AUG-CC-PVTZ-JKFIT
	 Reference Energy          =    -342.9214259332694041 [Eh]
	 Singles Energy            =      -0.0000000000000000 [Eh]
	 Same-Spin Energy          =      -0.3258165750303094 [Eh]
	 Opposite-Spin Energy      =      -1.0406878449842496 [Eh]
	 Correlation Energy        =      -1.3665044200145591 [Eh]
	 Total Energy              =    -344.2879303532839685 [Eh]

	 ================> DF-SCS-MP2 Energies <==================
	-----------------------------------------------------------
	 SCS Same-Spin Scale       =       0.3333333333333333 [-]
	 SCS Opposite-Spin Scale   =       1.2000000000000000 [-]
	 SCS Same-Spin Energy      =      -0.1086055250101031 [Eh]
	 SCS Opposite-Spin Energy  =      -1.2488254139810995 [Eh]
	 SCS Correlation Energy    =      -1.3574309389912025 [Eh]
	 SCS Total Energy          =    -344.2788568722606328 [Eh]
	-----------------------------------------------------------

  Dipole Moment: [D]
     X:     2.9887      Y:    -1.4428      Z:     0.9889     Total:     3.4629

*** Psi4 exiting successfully. Buy a developer a beer!
