                               Psi4 1.3.2 release

  ==> Input File <==

--------------------------------------------------------------------------
#psi4
#
memory 32 gb

molecule  {
0 1
  O       -0.0679570     1.2803790     0.2912690
  O       -2.4243090     0.0219280    -0.2318400
  O        2.3232750     0.1233060    -0.2580880
  C       -0.0144270    -0.0326130    -0.2709570
  C       -1.1262910    -0.8185477     0.2516310
  C        1.2539810    -0.7230840     0.1827990
  H       -0.0165290     0.0250030    -1.3695790
  H       -1.2581130    -0.8122820     1.2878600
  H       -1.3731370    -1.7140640    -0.2443670
  H        1.3313060    -1.7269980    -0.2572240
  H        1.2460610    -0.8115580     1.2773110
  H        0.7929870     1.6883420     0.0827150
  H       -2.2316960     0.9438620     0.0200080
  H        3.1428520    -0.1742490     0.1698040
units angstrom
no_reorient  #important for SAPT in psi4, default
symmetry c1  #important for SAPT in psi4, default
}

set PROPERTIES_ORIGIN ["COM"]
properties('MP2/aug-cc-pvtz', properties = ['dipole'])
--------------------------------------------------------------------------

    Molecular point group: c1
  Charge       = 0
  Multiplicity = 1
  Basis Set: AUG-CC-PVTZ
    Blend: AUG-CC-PVTZ
  Basis Set: (AUG-CC-PVTZ AUX)
    Blend: AUG-CC-PVTZ-JKFIT

    Orbital Energies [Eh]
    ---------------------

    Doubly Occupied:

       1A    -20.584342     2A    -20.567851     3A    -20.531339
       4A    -11.296035     5A    -11.290751     6A    -11.280368
       7A     -1.392449     8A     -1.361003     9A     -1.284489
      10A     -1.062574    11A     -0.926248    12A     -0.822419
      13A     -0.743132    14A     -0.705642    15A     -0.669256
      16A     -0.641421    17A     -0.608139    18A     -0.598973
      19A     -0.559233    20A     -0.550291    21A     -0.526764
      22A     -0.484303    23A     -0.473115    24A     -0.452731
      25A     -0.442600

  @DF-RHF Final Energy:  -342.93408840710106

   => Energetics <=

    Nuclear Repulsion Energy =            261.8775863102456469
    One-Electron Energy =                -989.9124145032046727
    Two-Electron Energy =                 385.1007397858579679
    Total Energy =                       -342.9340884071010578
  Basis Set: (AUG-CC-PVTZ AUX)
    Blend: AUG-CC-PVTZ-RI
    Molecular point group: c1

    Geometry (in Angstrom), charge = 0, multiplicity = 1:

       Center              X                  Y                   Z               Mass
    ------------   -----------------  -----------------  -----------------  -----------------
         O           -0.071245246762     1.266152907622     0.293895546512    15.994914619570
         O           -2.427597246762     0.007701907622    -0.229213453488    15.994914619570
         O            2.319986753238     0.109079907622    -0.255461453488    15.994914619570
         C           -0.017715246762    -0.046839092378    -0.268330453488    12.000000000000
         C           -1.129579246762    -0.832773792378     0.254257546512    12.000000000000
         C            1.250692753238    -0.737310092378     0.185425546512    12.000000000000
         H           -0.019817246762     0.010776907622    -1.366952453488     1.007825032230
         H           -1.261401246762    -0.826508092378     1.290486546512     1.007825032230
         H           -1.376425246762    -1.728290092378    -0.241740453488     1.007825032230
         H            1.328017753238    -1.741224092378    -0.254597453488     1.007825032230
         H            1.242772753238    -0.825784092378     1.279937546512     1.007825032230
         H            0.789698753238     1.674115907622     0.085341546512     1.007825032230
         H           -2.234984246762     0.929635907622     0.022634546512     1.007825032230
         H            3.139563753238    -0.188475092378     0.172430546512     1.007825032230

  Basis Set: AUG-CC-PVTZ
    Blend: AUG-CC-PVTZ
  Basis Set: (AUG-CC-PVTZ AUX)
    Blend: AUG-CC-PVTZ-JKFIT
	 Reference Energy          =    -342.9340884071010578 [Eh]
	 Singles Energy            =      -0.0000000000000000 [Eh]
	 Same-Spin Energy          =      -0.3301214441374243 [Eh]
	 Opposite-Spin Energy      =      -1.0517931464323924 [Eh]
	 Correlation Energy        =      -1.3819145905698167 [Eh]
	 Total Energy              =    -344.3160029976708643 [Eh]

	 ================> DF-SCS-MP2 Energies <==================
	-----------------------------------------------------------
	 SCS Same-Spin Scale       =       0.3333333333333333 [-]
	 SCS Opposite-Spin Scale   =       1.2000000000000000 [-]
	 SCS Same-Spin Energy      =      -0.1100404813791414 [Eh]
	 SCS Opposite-Spin Energy  =      -1.2621517757188709 [Eh]
	 SCS Correlation Energy    =      -1.3721922570980123 [Eh]
	 SCS Total Energy          =    -344.3062806641990505 [Eh]
	-----------------------------------------------------------

  Dipole Moment: [D]
     X:     3.6784      Y:    -1.6092      Z:     1.1116     Total:     4.1660

*** Psi4 exiting successfully. Buy a developer a beer!
