                               Psi4 1.4a3.dev225

  ==> Input File <==

--------------------------------------------------------------------------
#psi4
#
memory 32 gb

molecule  {
0 1
  O       -0.0679500     1.2804190     0.2912780
  O       -2.4243340     0.0219370    -0.2318290
  O        2.3233720     0.1231770    -0.2581300
  C       -0.0144220    -0.0326010    -0.2709950
  C       -1.2704991    -0.7252256     0.1979076
  C        1.2539560    -0.7229870     0.1828220
  H       -0.0165930     0.0251350    -1.3695740
  H       -1.2581970    -0.8124860     1.2878120
  H       -1.3730900    -1.7140410    -0.2445610
  H        1.3311710    -1.7270150    -0.2570240
  H        1.2459170    -0.8113320     1.2773370
  H        0.7928980     1.6884400     0.0824910
  H       -2.2316880     0.9438100     0.0202110
  H        3.1428100    -0.1741490     0.1701570
units angstrom
no_reorient  #important for SAPT in psi4, default
symmetry c1  #important for SAPT in psi4, default
}

set PROPERTIES_ORIGIN ["COM"]
properties('MP2/aug-cc-pvtz', properties = ['dipole'])
--------------------------------------------------------------------------

    Molecular point group: c1
  Charge       = 0
  Multiplicity = 1
  Basis Set: AUG-CC-PVTZ
    Blend: AUG-CC-PVTZ
  Basis Set: (AUG-CC-PVTZ AUX)
    Blend: AUG-CC-PVTZ-JKFIT

    Orbital Energies [Eh]
    ---------------------

    Doubly Occupied:

       1A    -20.582695     2A    -20.564135     3A    -20.549247
       4A    -11.293473     5A    -11.285286     6A    -11.276121
       7A     -1.390720     8A     -1.363144     9A     -1.335096
      10A     -1.041368    11A     -0.919423    12A     -0.815607
      13A     -0.742241    14A     -0.698380    15A     -0.666969
      16A     -0.657173    17A     -0.609827    18A     -0.594739
      19A     -0.574146    20A     -0.545960    21A     -0.529599
      22A     -0.495449    23A     -0.472144    24A     -0.454346
      25A     -0.440971

  @DF-RHF Final Energy:  -342.96584416138239

   => Energetics <=

    Nuclear Repulsion Energy =            262.5196252437547741
    One-Electron Energy =                -991.1744198989014194
    Two-Electron Energy =                 385.6889504937641959
    Total Energy =                       -342.9658441613823925
  Basis Set: (AUG-CC-PVTZ AUX)
    Blend: AUG-CC-PVTZ-RI
    Molecular point group: c1

    Geometry (in Angstrom), charge = 0, multiplicity = 1:

       Center              X                  Y                   Z               Mass
    ------------   -----------------  -----------------  -----------------  -----------------
         O           -0.052443782301     1.254023061637     0.300910606084    15.994914619570
         O           -2.408827782301    -0.004458938363    -0.222196393916    15.994914619570
         O            2.338878217699     0.096781061637    -0.248497393916    15.994914619570
         C            0.001084217699    -0.058996938363    -0.261362393916    12.000000000000
         C           -1.254992882301    -0.751621538363     0.207540206084    12.000000000000
         C            1.269462217699    -0.749382938363     0.192454606084    12.000000000000
         H           -0.001086782301    -0.001260938363    -1.359941393916     1.007825032230
         H           -1.242690782301    -0.838881938363     1.297444606084     1.007825032230
         H           -1.357583782301    -1.740436938363    -0.234928393916     1.007825032230
         H            1.346677217699    -1.753410938363    -0.247391393916     1.007825032230
         H            1.261423217699    -0.837727938363     1.286969606084     1.007825032230
         H            0.808404217699     1.662044061637     0.092123606084     1.007825032230
         H           -2.216181782301     0.917414061637     0.029843606084     1.007825032230
         H            3.158316217699    -0.200544938363     0.179789606084     1.007825032230

  Basis Set: AUG-CC-PVTZ
    Blend: AUG-CC-PVTZ
  Basis Set: (AUG-CC-PVTZ AUX)
    Blend: AUG-CC-PVTZ-JKFIT
	 Reference Energy          =    -342.9658441613823925 [Eh]
	 Singles Energy            =      -0.0000000000000000 [Eh]
	 Same-Spin Energy          =      -0.3284638685445938 [Eh]
	 Opposite-Spin Energy      =      -1.0466264373681506 [Eh]
	 Correlation Energy        =      -1.3750903059127444 [Eh]
	 Total Energy              =    -344.3409344672951420 [Eh]

	 ================> DF-SCS-MP2 Energies <==================
	-----------------------------------------------------------
	 SCS Same-Spin Scale       =       0.3333333333333333 [-]
	 SCS Opposite-Spin Scale   =       1.2000000000000000 [-]
	 SCS Same-Spin Energy      =      -0.1094879561815312 [Eh]
	 SCS Opposite-Spin Energy  =      -1.2559517248417806 [Eh]
	 SCS Correlation Energy    =      -1.3654396810233118 [Eh]
	 SCS Total Energy          =    -344.3312838424056963 [Eh]
	-----------------------------------------------------------

  Dipole Moment: [D]
     X:     3.2404      Y:    -1.3582      Z:     0.9860     Total:     3.6492

*** Psi4 exiting successfully. Buy a developer a beer!
