                               Psi4 1.4a3.dev225

  ==> Input File <==

--------------------------------------------------------------------------
#psi4
#
memory 32 gb

molecule  {
0 1
  O       -0.0679500     1.2804190     0.2912780
  O       -2.4243340     0.0219370    -0.2318290
  O        2.3233720     0.1231770    -0.2581300
  C       -0.0144220    -0.0326010    -0.2709950
  C       -1.2865220    -0.7148500     0.1919400
  C        1.2539560    -0.7229870     0.1828220
  H       -0.0165930     0.0251350    -1.3695740
  H       -1.2581970    -0.8124860     1.2878120
  H       -1.3730900    -1.7140410    -0.2445610
  H        1.3311710    -1.7270150    -0.2570240
  H        1.2459170    -0.8113320     1.2773370
  H        0.8370323     1.7093586     0.0717868
  H       -2.2316880     0.9438100     0.0202110
  H        3.1428100    -0.1741490     0.1701570
units angstrom
no_reorient  #important for SAPT in psi4, default
symmetry c1  #important for SAPT in psi4, default
}

set PROPERTIES_ORIGIN ["COM"]
properties('MP2/aug-cc-pvtz', properties = ['dipole'])
--------------------------------------------------------------------------

    Molecular point group: c1
  Charge       = 0
  Multiplicity = 1
  Basis Set: AUG-CC-PVTZ
    Blend: AUG-CC-PVTZ
  Basis Set: (AUG-CC-PVTZ AUX)
    Blend: AUG-CC-PVTZ-JKFIT

    Orbital Energies [Eh]
    ---------------------

    Doubly Occupied:

       1A    -20.582918     2A    -20.566828     3A    -20.550835
       4A    -11.293004     5A    -11.284048     6A    -11.276088
       7A     -1.387951     8A     -1.362669     9A     -1.335175
      10A     -1.036748    11A     -0.918026    12A     -0.812065
      13A     -0.739619    14A     -0.696087    15A     -0.664985
      16A     -0.657421    17A     -0.609850    18A     -0.593226
      19A     -0.577014    20A     -0.543809    21A     -0.527750
      22A     -0.492751    23A     -0.471982    24A     -0.452964
      25A     -0.437927

  @DF-RHF Final Energy:  -342.96134108316005

   => Energetics <=

    Nuclear Repulsion Energy =            262.3340628821641189
    One-Electron Energy =                -990.8473333517775927
    Two-Electron Energy =                 385.5519293864533665
    Total Energy =                       -342.9613410831600504
  Basis Set: (AUG-CC-PVTZ AUX)
    Blend: AUG-CC-PVTZ-RI
    Molecular point group: c1

    Geometry (in Angstrom), charge = 0, multiplicity = 1:

       Center              X                  Y                   Z               Mass
    ------------   -----------------  -----------------  -----------------  -----------------
         O           -0.050838139584     1.252441381142     0.301805788465    15.994914619570
         O           -2.407222139584    -0.006040618858    -0.221301211535    15.994914619570
         O            2.340483860416     0.095199381142    -0.247602211535    15.994914619570
         C            0.002689860416    -0.060578618858    -0.260467211535    12.000000000000
         C           -1.269410139584    -0.742827618858     0.202467788465    12.000000000000
         C            1.271067860416    -0.750964618858     0.193349788465    12.000000000000
         H            0.000518860416    -0.002842618858    -1.359046211535     1.007825032230
         H           -1.241085139584    -0.840463618858     1.298339788465     1.007825032230
         H           -1.355978139584    -1.742018618858    -0.234033211535     1.007825032230
         H            1.348282860416    -1.754992618858    -0.246496211535     1.007825032230
         H            1.263028860416    -0.839309618858     1.287864788465     1.007825032230
         H            0.854144160416     1.681380981142     0.082314588465     1.007825032230
         H           -2.214576139584     0.915832381142     0.030738788465     1.007825032230
         H            3.159921860416    -0.202126618858     0.180684788465     1.007825032230

  Basis Set: AUG-CC-PVTZ
    Blend: AUG-CC-PVTZ
  Basis Set: (AUG-CC-PVTZ AUX)
    Blend: AUG-CC-PVTZ-JKFIT
	 Reference Energy          =    -342.9613410831600504 [Eh]
	 Singles Energy            =      -0.0000000000000000 [Eh]
	 Same-Spin Energy          =      -0.3290711444857626 [Eh]
	 Opposite-Spin Energy      =      -1.0478860048890115 [Eh]
	 Correlation Energy        =      -1.3769571493747741 [Eh]
	 Total Energy              =    -344.3382982325348394 [Eh]

	 ================> DF-SCS-MP2 Energies <==================
	-----------------------------------------------------------
	 SCS Same-Spin Scale       =       0.3333333333333333 [-]
	 SCS Opposite-Spin Scale   =       1.2000000000000000 [-]
	 SCS Same-Spin Energy      =      -0.1096903814952542 [Eh]
	 SCS Opposite-Spin Energy  =      -1.2574632058668138 [Eh]
	 SCS Correlation Energy    =      -1.3671535873620679 [Eh]
	 SCS Total Energy          =    -344.3284946705221046 [Eh]
	-----------------------------------------------------------

  Dipole Moment: [D]
     X:     3.2350      Y:    -1.2979      Z:     0.9583     Total:     3.6150

*** Psi4 exiting successfully. Buy a developer a beer!
