                               Psi4 1.3.2 release

  ==> Input File <==

--------------------------------------------------------------------------
#psi4
#
memory 32 gb

molecule  {
0 1
  O       -0.0679570     1.2803790     0.2912690
  O       -2.3932884     0.0094845    -0.3251626
  O        2.3232750     0.1233060    -0.2580880
  C       -0.0144270    -0.0326130    -0.2709570
  C       -1.2865220    -0.7147970     0.1919500
  C        1.2539810    -0.7230840     0.1827990
  H       -0.0165290     0.0250030    -1.3695790
  H       -1.2581130    -0.8122820     1.2878600
  H       -1.3731370    -1.7140640    -0.2443670
  H        1.3313060    -1.7269980    -0.2572240
  H        1.2460610    -0.8115580     1.2773110
  H        0.7929870     1.6883420     0.0827150
  H       -2.2316960     0.9438620     0.0200080
  H        3.1428520    -0.1742490     0.1698040
units angstrom
no_reorient  #important for SAPT in psi4, default
symmetry c1  #important for SAPT in psi4, default
}

set PROPERTIES_ORIGIN ["COM"]
properties('MP2/aug-cc-pvtz', properties = ['dipole'])
--------------------------------------------------------------------------

    Molecular point group: c1
  Charge       = 0
  Multiplicity = 1
  Basis Set: AUG-CC-PVTZ
    Blend: AUG-CC-PVTZ
  Basis Set: (AUG-CC-PVTZ AUX)
    Blend: AUG-CC-PVTZ-JKFIT

    Orbital Energies [Eh]
    ---------------------

    Doubly Occupied:

       1A    -20.581630     2A    -20.563037     3A    -20.555448
       4A    -11.291922     5A    -11.282747     6A    -11.276170
       7A     -1.389846     8A     -1.363319     9A     -1.336740
      10A     -1.037282    11A     -0.916206    12A     -0.812874
      13A     -0.741433    14A     -0.697960    15A     -0.666124
      16A     -0.656668    17A     -0.607856    18A     -0.593440
      19A     -0.576007    20A     -0.544678    21A     -0.526748
      22A     -0.495522    23A     -0.471260    24A     -0.452336
      25A     -0.439531

  @DF-RHF Final Energy:  -342.96170302044283

   => Energetics <=

    Nuclear Repulsion Energy =            262.7235717332112586
    One-Electron Energy =                -991.6169827089340743
    Two-Electron Energy =                 385.9317079552800465
    Total Energy =                       -342.9617030204428261
  Basis Set: (AUG-CC-PVTZ AUX)
    Blend: AUG-CC-PVTZ-RI
    Molecular point group: c1

    Geometry (in Angstrom), charge = 0, multiplicity = 1:

       Center              X                  Y                   Z               Mass
    ------------   -----------------  -----------------  -----------------  -----------------
         O           -0.055746699083     1.254789454500     0.317892534587    15.994914619570
         O           -2.381078099083    -0.016105045500    -0.298539065413    15.994914619570
         O            2.335485300917     0.097716454500    -0.231464465413    15.994914619570
         C           -0.002216699083    -0.058202545500    -0.244333465413    12.000000000000
         C           -1.274311699083    -0.740386545500     0.218573534587    12.000000000000
         C            1.266191300917    -0.748673545500     0.209422534587    12.000000000000
         H           -0.004318699083    -0.000586545500    -1.342955465413     1.007825032230
         H           -1.245902699083    -0.837871545500     1.314483534587     1.007825032230
         H           -1.360926699083    -1.739653545500    -0.217743465413     1.007825032230
         H            1.343516300917    -1.752587545500    -0.230600465413     1.007825032230
         H            1.258271300917    -0.837147545500     1.303934534587     1.007825032230
         H            0.805197300917     1.662752454500     0.109338534587     1.007825032230
         H           -2.219485699083     0.918272454500     0.046631534587     1.007825032230
         H            3.155062300917    -0.199838545500     0.196427534587     1.007825032230

  Basis Set: AUG-CC-PVTZ
    Blend: AUG-CC-PVTZ
  Basis Set: (AUG-CC-PVTZ AUX)
    Blend: AUG-CC-PVTZ-JKFIT
	 Reference Energy          =    -342.9617030204428261 [Eh]
	 Singles Energy            =      -0.0000000000000000 [Eh]
	 Same-Spin Energy          =      -0.3290068780762316 [Eh]
	 Opposite-Spin Energy      =      -1.0476802149200743 [Eh]
	 Correlation Energy        =      -1.3766870929963060 [Eh]
	 Total Energy              =    -344.3383901134391181 [Eh]

	 ================> DF-SCS-MP2 Energies <==================
	-----------------------------------------------------------
	 SCS Same-Spin Scale       =       0.3333333333333333 [-]
	 SCS Opposite-Spin Scale   =       1.2000000000000000 [-]
	 SCS Same-Spin Energy      =      -0.1096689593587439 [Eh]
	 SCS Opposite-Spin Energy  =      -1.2572162579040891 [Eh]
	 SCS Correlation Energy    =      -1.3668852172628330 [Eh]
	 SCS Total Energy          =    -344.3285882377056737 [Eh]
	-----------------------------------------------------------

  Dipole Moment: [D]
     X:     3.0569      Y:    -1.3113      Z:     1.1557     Total:     3.5213

*** Psi4 exiting successfully. Buy a developer a beer!
