                               Psi4 1.3.2 release

  ==> Input File <==

--------------------------------------------------------------------------
#psi4
#
memory 32 gb

molecule  {
0 1
  O       -0.1118047     1.2687521     0.3120335
  O       -2.4243090     0.0219280    -0.2318400
  O        2.3232750     0.1233060    -0.2580880
  C       -0.0144270    -0.0326130    -0.2709570
  C       -1.2865220    -0.7147970     0.1919500
  C        1.2539810    -0.7230840     0.1827990
  H       -0.0165290     0.0250030    -1.3695790
  H       -1.2581130    -0.8122820     1.2878600
  H       -1.3731370    -1.7140640    -0.2443670
  H        1.3313060    -1.7269980    -0.2572240
  H        1.2460610    -0.8115580     1.2773110
  H        0.7929870     1.6883420     0.0827150
  H       -2.2316960     0.9438620     0.0200080
  H        3.1428520    -0.1742490     0.1698040
units angstrom
no_reorient  #important for SAPT in psi4, default
symmetry c1  #important for SAPT in psi4, default
}

set PROPERTIES_ORIGIN ["COM"]
properties('MP2/aug-cc-pvtz', properties = ['dipole'])
--------------------------------------------------------------------------

    Molecular point group: c1
  Charge       = 0
  Multiplicity = 1
  Basis Set: AUG-CC-PVTZ
    Blend: AUG-CC-PVTZ
  Basis Set: (AUG-CC-PVTZ AUX)
    Blend: AUG-CC-PVTZ-JKFIT

    Orbital Energies [Eh]
    ---------------------

    Doubly Occupied:

       1A    -20.583686     2A    -20.569370     3A    -20.549690
       4A    -11.293997     5A    -11.284204     6A    -11.274649
       7A     -1.389095     8A     -1.364432     9A     -1.335697
      10A     -1.036819    11A     -0.918159    12A     -0.811455
      13A     -0.741092    14A     -0.696621    15A     -0.667456
      16A     -0.655569    17A     -0.609199    18A     -0.593788
      19A     -0.574975    20A     -0.544535    21A     -0.532152
      22A     -0.490821    23A     -0.472801    24A     -0.454837
      25A     -0.437770

  @DF-RHF Final Energy:  -342.96041630828444

   => Energetics <=

    Nuclear Repulsion Energy =            262.5310332504620305
    One-Electron Energy =                -991.2171631205000040
    Two-Electron Energy =                 385.7257135617535937
    Total Energy =                       -342.9604163082844366
  Basis Set: (AUG-CC-PVTZ AUX)
    Blend: AUG-CC-PVTZ-RI
    Molecular point group: c1

    Geometry (in Angstrom), charge = 0, multiplicity = 1:

       Center              X                  Y                   Z               Mass
    ------------   -----------------  -----------------  -----------------  -----------------
         O           -0.086584658523     1.243020655269     0.318832308070    15.994914619570
         O           -2.399088958523    -0.003803444731    -0.225041191930    15.994914619570
         O            2.348495041477     0.097574555269    -0.251289191930    15.994914619570
         C            0.010793041477    -0.058344444731    -0.264158191930    12.000000000000
         C           -1.261301958523    -0.740528444731     0.198748808070    12.000000000000
         C            1.279201041477    -0.748815444731     0.189597808070    12.000000000000
         H            0.008691041477    -0.000728444731    -1.362780191930     1.007825032230
         H           -1.232892958523    -0.838013444731     1.294658808070     1.007825032230
         H           -1.347916958523    -1.739795444731    -0.237568191930     1.007825032230
         H            1.356526041477    -1.752729444731    -0.250425191930     1.007825032230
         H            1.271281041477    -0.837289444731     1.284109808070     1.007825032230
         H            0.818207041477     1.662610555269     0.089513808070     1.007825032230
         H           -2.206475958523     0.918130555269     0.026806808070     1.007825032230
         H            3.168072041477    -0.199980444731     0.176602808070     1.007825032230

  Basis Set: AUG-CC-PVTZ
    Blend: AUG-CC-PVTZ
  Basis Set: (AUG-CC-PVTZ AUX)
    Blend: AUG-CC-PVTZ-JKFIT
	 Reference Energy          =    -342.9604163082844366 [Eh]
	 Singles Energy            =      -0.0000000000000000 [Eh]
	 Same-Spin Energy          =      -0.3292862207461182 [Eh]
	 Opposite-Spin Energy      =      -1.0482396700241132 [Eh]
	 Correlation Energy        =      -1.3775258907702315 [Eh]
	 Total Energy              =    -344.3379421990546803 [Eh]

	 ================> DF-SCS-MP2 Energies <==================
	-----------------------------------------------------------
	 SCS Same-Spin Scale       =       0.3333333333333333 [-]
	 SCS Opposite-Spin Scale   =       1.2000000000000000 [-]
	 SCS Same-Spin Energy      =      -0.1097620735820394 [Eh]
	 SCS Opposite-Spin Energy  =      -1.2578876040289357 [Eh]
	 SCS Correlation Energy    =      -1.3676496776109752 [Eh]
	 SCS Total Energy          =    -344.3280659858954209 [Eh]
	-----------------------------------------------------------

  Dipole Moment: [D]
     X:     3.2853      Y:    -1.2837      Z:     0.9398     Total:     3.6503

*** Psi4 exiting successfully. Buy a developer a beer!
