                               Psi4 1.3.2 release

  ==> Input File <==

--------------------------------------------------------------------------
#psi4
#
memory 32 gb

molecule  {
0 1
  O       -0.0679570     1.2803790     0.2912690
  O       -2.3623049     0.0867437    -0.2740377
  O        2.3232750     0.1233060    -0.2580880
  C       -0.0144270    -0.0326130    -0.2709570
  C       -1.2865220    -0.7147970     0.1919500
  C        1.2539810    -0.7230840     0.1827990
  H       -0.0165290     0.0250030    -1.3695790
  H       -1.2581130    -0.8122820     1.2878600
  H       -1.3731370    -1.7140640    -0.2443670
  H        1.3313060    -1.7269980    -0.2572240
  H        1.2460610    -0.8115580     1.2773110
  H        0.7929870     1.6883420     0.0827150
  H       -2.2316960     0.9438620     0.0200080
  H        3.1428520    -0.1742490     0.1698040
units angstrom
no_reorient  #important for SAPT in psi4, default
symmetry c1  #important for SAPT in psi4, default
}

set PROPERTIES_ORIGIN ["COM"]
properties('MP2/aug-cc-pvtz', properties = ['dipole'])
--------------------------------------------------------------------------

    Molecular point group: c1
  Charge       = 0
  Multiplicity = 1
  Basis Set: AUG-CC-PVTZ
    Blend: AUG-CC-PVTZ
  Basis Set: (AUG-CC-PVTZ AUX)
    Blend: AUG-CC-PVTZ-JKFIT

    Orbital Energies [Eh]
    ---------------------

    Doubly Occupied:

       1A    -20.581081     2A    -20.561495     3A    -20.543837
       4A    -11.291315     5A    -11.282167     6A    -11.278214
       7A     -1.390928     8A     -1.370051     9A     -1.343837
      10A     -1.039189    11A     -0.922070    12A     -0.815786
      13A     -0.743242    14A     -0.698182    15A     -0.672007
      16A     -0.664437    17A     -0.608469    18A     -0.593158
      19A     -0.583250    20A     -0.543855    21A     -0.527643
      22A     -0.494676    23A     -0.470627    24A     -0.451925
      25A     -0.439225

  @DF-RHF Final Energy:  -342.96540282707008

   => Energetics <=

    Nuclear Repulsion Energy =            263.7242504435570254
    One-Electron Energy =                -993.5579685450738907
    Two-Electron Energy =                 386.8683152744467861
    Total Energy =                       -342.9654028270700792
  Basis Set: (AUG-CC-PVTZ AUX)
    Blend: AUG-CC-PVTZ-RI
    Molecular point group: c1

    Geometry (in Angstrom), charge = 0, multiplicity = 1:

       Center              X                  Y                   Z               Mass
    ------------   -----------------  -----------------  -----------------  -----------------
         O           -0.061130650590     1.241364251204     0.309008645342    15.994914619570
         O           -2.355478550590     0.047728951204    -0.256298054658    15.994914619570
         O            2.330101349410     0.084291251204    -0.240348354658    15.994914619570
         C           -0.007600650590    -0.071627748796    -0.253217354658    12.000000000000
         C           -1.279695650590    -0.753811748796     0.209689645342    12.000000000000
         C            1.260807349410    -0.762098748796     0.200538645342    12.000000000000
         H           -0.009702650590    -0.014011748796    -1.351839354658     1.007825032230
         H           -1.251286650590    -0.851296748796     1.305599645342     1.007825032230
         H           -1.366310650590    -1.753078748796    -0.226627354658     1.007825032230
         H            1.338132349410    -1.766012748796    -0.239484354658     1.007825032230
         H            1.252887349410    -0.850572748796     1.295050645342     1.007825032230
         H            0.799813349410     1.649327251204     0.100454645342     1.007825032230
         H           -2.224869650590     0.904847251204     0.037747645342     1.007825032230
         H            3.149678349410    -0.213263748796     0.187543645342     1.007825032230

  Basis Set: AUG-CC-PVTZ
    Blend: AUG-CC-PVTZ
  Basis Set: (AUG-CC-PVTZ AUX)
    Blend: AUG-CC-PVTZ-JKFIT
	 Reference Energy          =    -342.9654028270700792 [Eh]
	 Singles Energy            =      -0.0000000000000000 [Eh]
	 Same-Spin Energy          =      -0.3277060482308533 [Eh]
	 Opposite-Spin Energy      =      -1.0444228045278696 [Eh]
	 Correlation Energy        =      -1.3721288527587230 [Eh]
	 Total Energy              =    -344.3375316798288281 [Eh]

	 ================> DF-SCS-MP2 Energies <==================
	-----------------------------------------------------------
	 SCS Same-Spin Scale       =       0.3333333333333333 [-]
	 SCS Opposite-Spin Scale   =       1.2000000000000000 [-]
	 SCS Same-Spin Energy      =      -0.1092353494102844 [Eh]
	 SCS Opposite-Spin Energy  =      -1.2533073654334435 [Eh]
	 SCS Correlation Energy    =      -1.3625427148437279 [Eh]
	 SCS Total Energy          =    -344.3279455419138344 [Eh]
	-----------------------------------------------------------

  Dipole Moment: [D]
     X:     3.0187      Y:    -1.4538      Z:     1.0889     Total:     3.5230

*** Psi4 exiting successfully. Buy a developer a beer!
