                               Psi4 1.3.2 release

  ==> Input File <==

--------------------------------------------------------------------------
#psi4
#
memory 32 gb

molecule  {
0 1
  O       -0.1990909     1.2407579     0.3514073
  O       -2.4243090     0.0219280    -0.2318400
  O        2.3232750     0.1233060    -0.2580880
  C       -0.0144270    -0.0326130    -0.2709570
  C       -1.2865220    -0.7147970     0.1919500
  C        1.2539810    -0.7230840     0.1827990
  H       -0.0165290     0.0250030    -1.3695790
  H       -1.2581130    -0.8122820     1.2878600
  H       -1.3731370    -1.7140640    -0.2443670
  H        1.3313060    -1.7269980    -0.2572240
  H        1.2460610    -0.8115580     1.2773110
  H        0.7929870     1.6883420     0.0827150
  H       -2.2316960     0.9438620     0.0200080
  H        3.1428520    -0.1742490     0.1698040
units angstrom
no_reorient  #important for SAPT in psi4, default
symmetry c1  #important for SAPT in psi4, default
}

set PROPERTIES_ORIGIN ["COM"]
properties('MP2/aug-cc-pvtz', properties = ['dipole'])
--------------------------------------------------------------------------

    Molecular point group: c1
  Charge       = 0
  Multiplicity = 1
  Basis Set: AUG-CC-PVTZ
    Blend: AUG-CC-PVTZ
  Basis Set: (AUG-CC-PVTZ AUX)
    Blend: AUG-CC-PVTZ-JKFIT

    Orbital Energies [Eh]
    ---------------------

    Doubly Occupied:

       1A    -20.585966     2A    -20.579014     3A    -20.546628
       4A    -11.295596     5A    -11.283725     6A    -11.271387
       7A     -1.388037     8A     -1.363662     9A     -1.326816
      10A     -1.033348    11A     -0.917482    12A     -0.806984
      13A     -0.738206    14A     -0.694741    15A     -0.669720
      16A     -0.647649    17A     -0.606747    18A     -0.590798
      19A     -0.569978    20A     -0.541476    21A     -0.534080
      22A     -0.484014    23A     -0.474596    24A     -0.455999
      25A     -0.435336

  @DF-RHF Final Energy:  -342.93724781605795

   => Energetics <=

    Nuclear Repulsion Energy =            262.5138594056123793
    One-Electron Energy =                -991.2182455715260403
    Two-Electron Energy =                 385.7671383498557134
    Total Energy =                       -342.9372478160579476
  Basis Set: (AUG-CC-PVTZ AUX)
    Blend: AUG-CC-PVTZ-RI
    Molecular point group: c1

    Geometry (in Angstrom), charge = 0, multiplicity = 1:

       Center              X                  Y                   Z               Mass
    ------------   -----------------  -----------------  -----------------  -----------------
         O           -0.158703280035     1.219890961064     0.351364188021    15.994914619570
         O           -2.383921380035     0.001061061064    -0.231883111979    15.994914619570
         O            2.363662619965     0.102439061064    -0.258131111979    15.994914619570
         C            0.025960619965    -0.053479938936    -0.271000111979    12.000000000000
         C           -1.246134380035    -0.735663938936     0.191906888021    12.000000000000
         C            1.294368619965    -0.743950938936     0.182755888021    12.000000000000
         H            0.023858619965     0.004136061064    -1.369622111979     1.007825032230
         H           -1.217725380035    -0.833148938936     1.287816888021     1.007825032230
         H           -1.332749380035    -1.734930938936    -0.244410111979     1.007825032230
         H            1.371693619965    -1.747864938936    -0.257267111979     1.007825032230
         H            1.286448619965    -0.832424938936     1.277267888021     1.007825032230
         H            0.833374619965     1.667475061064     0.082671888021     1.007825032230
         H           -2.191308380035     0.922995061064     0.019964888021     1.007825032230
         H            3.183239619965    -0.195115938936     0.169760888021     1.007825032230

  Basis Set: AUG-CC-PVTZ
    Blend: AUG-CC-PVTZ
  Basis Set: (AUG-CC-PVTZ AUX)
    Blend: AUG-CC-PVTZ-JKFIT
	 Reference Energy          =    -342.9372478160579476 [Eh]
	 Singles Energy            =      -0.0000000000000000 [Eh]
	 Same-Spin Energy          =      -0.3312278107222695 [Eh]
	 Opposite-Spin Energy      =      -1.0527157169671137 [Eh]
	 Correlation Energy        =      -1.3839435276893832 [Eh]
	 Total Energy              =    -344.3211913437473299 [Eh]

	 ================> DF-SCS-MP2 Energies <==================
	-----------------------------------------------------------
	 SCS Same-Spin Scale       =       0.3333333333333333 [-]
	 SCS Opposite-Spin Scale   =       1.2000000000000000 [-]
	 SCS Same-Spin Energy      =      -0.1104092702407565 [Eh]
	 SCS Opposite-Spin Energy  =      -1.2632588603605364 [Eh]
	 SCS Correlation Energy    =      -1.3736681306012928 [Eh]
	 SCS Total Energy          =    -344.3109159466592359 [Eh]
	-----------------------------------------------------------

  Dipole Moment: [D]
     X:     3.4800      Y:    -1.2128      Z:     0.8939     Total:     3.7922

*** Psi4 exiting successfully. Buy a developer a beer!
