                               Psi4 1.3.2 release

  ==> Input File <==

--------------------------------------------------------------------------
#psi4
#
memory 32 gb

molecule  {
0 1
  O       -0.0679570     1.2803790     0.2912690
  O       -2.4243090     0.0219280    -0.2318400
  O        2.3232750     0.1233060    -0.2580880
  C       -0.1069258    -0.0473087    -0.2365931
  C       -1.2865220    -0.7147970     0.1919500
  C        1.2539810    -0.7230840     0.1827990
  H       -0.0165290     0.0250030    -1.3695790
  H       -1.2581130    -0.8122820     1.2878600
  H       -1.3731370    -1.7140640    -0.2443670
  H        1.3313060    -1.7269980    -0.2572240
  H        1.2460610    -0.8115580     1.2773110
  H        0.7929870     1.6883420     0.0827150
  H       -2.2316960     0.9438620     0.0200080
  H        3.1428520    -0.1742490     0.1698040
units angstrom
no_reorient  #important for SAPT in psi4, default
symmetry c1  #important for SAPT in psi4, default
}

set PROPERTIES_ORIGIN ["COM"]
properties('MP2/aug-cc-pvtz', properties = ['dipole'])
--------------------------------------------------------------------------

    Molecular point group: c1
  Charge       = 0
  Multiplicity = 1
  Basis Set: AUG-CC-PVTZ
    Blend: AUG-CC-PVTZ
  Basis Set: (AUG-CC-PVTZ AUX)
    Blend: AUG-CC-PVTZ-JKFIT

    Orbital Energies [Eh]
    ---------------------

    Doubly Occupied:

       1A    -20.583120     2A    -20.561824     3A    -20.552265
       4A    -11.295123     5A    -11.288935     6A    -11.274263
       7A     -1.389261     8A     -1.367405     9A     -1.340615
      10A     -1.046611    11A     -0.923004    12A     -0.813776
      13A     -0.741055    14A     -0.697356    15A     -0.668467
      16A     -0.662154    17A     -0.620503    18A     -0.593433
      19A     -0.581288    20A     -0.546666    21A     -0.520148
      22A     -0.502704    23A     -0.471362    24A     -0.447562
      25A     -0.434723

  @DF-RHF Final Energy:  -342.95531296408853

   => Energetics <=

    Nuclear Repulsion Energy =            262.8874744739241578
    One-Electron Energy =                -991.8383249856386783
    Two-Electron Energy =                 385.9955375476259860
    Total Energy =                       -342.9553129640885345
  Basis Set: (AUG-CC-PVTZ AUX)
    Blend: AUG-CC-PVTZ-RI
    Molecular point group: c1

    Geometry (in Angstrom), charge = 0, multiplicity = 1:

       Center              X                  Y                   Z               Mass
    ------------   -----------------  -----------------  -----------------  -----------------
         O           -0.038297445507     1.254543012625     0.297196078460    15.994914619570
         O           -2.394649445507    -0.003907987375    -0.225912921540    15.994914619570
         O            2.352934554493     0.097470012625    -0.252160921540    15.994914619570
         C           -0.077266245507    -0.073144687375    -0.230666021540    12.000000000000
         C           -1.256862445507    -0.740632987375     0.197877078460    12.000000000000
         C            1.283640554493    -0.748919987375     0.188726078460    12.000000000000
         H            0.013130554493    -0.000832987375    -1.363651921540     1.007825032230
         H           -1.228453445507    -0.838117987375     1.293787078460     1.007825032230
         H           -1.343477445507    -1.739899987375    -0.238439921540     1.007825032230
         H            1.360965554493    -1.752833987375    -0.251296921540     1.007825032230
         H            1.275720554493    -0.837393987375     1.283238078460     1.007825032230
         H            0.822646554493     1.662506012625     0.088642078460     1.007825032230
         H           -2.202036445507     0.918026012625     0.025935078460     1.007825032230
         H            3.172511554493    -0.200084987375     0.175731078460     1.007825032230

  Basis Set: AUG-CC-PVTZ
    Blend: AUG-CC-PVTZ
  Basis Set: (AUG-CC-PVTZ AUX)
    Blend: AUG-CC-PVTZ-JKFIT
	 Reference Energy          =    -342.9553129640885345 [Eh]
	 Singles Energy            =      -0.0000000000000000 [Eh]
	 Same-Spin Energy          =      -0.3288307127863132 [Eh]
	 Opposite-Spin Energy      =      -1.0466678762369579 [Eh]
	 Correlation Energy        =      -1.3754985890232712 [Eh]
	 Total Energy              =    -344.3308115531118005 [Eh]

	 ================> DF-SCS-MP2 Energies <==================
	-----------------------------------------------------------
	 SCS Same-Spin Scale       =       0.3333333333333333 [-]
	 SCS Opposite-Spin Scale   =       1.2000000000000000 [-]
	 SCS Same-Spin Energy      =      -0.1096102375954377 [Eh]
	 SCS Opposite-Spin Energy  =      -1.2560014514843494 [Eh]
	 SCS Correlation Energy    =      -1.3656116890797871 [Eh]
	 SCS Total Energy          =    -344.3209246531683334 [Eh]
	-----------------------------------------------------------

  Dipole Moment: [D]
     X:     3.0895      Y:    -1.3552      Z:     0.9918     Total:     3.5165

*** Psi4 exiting successfully. Buy a developer a beer!
