                               Psi4 1.4a3.dev225

  ==> Input File <==

--------------------------------------------------------------------------
#psi4
#
memory 32 gb

molecule  {
0 1
  O       -0.0679500     1.2804190     0.2912780
  O       -2.4243340     0.0219370    -0.2318290
  O        2.3233720     0.1231770    -0.2581300
  C       -0.0144220    -0.0326010    -0.2709950
  C       -1.2865220    -0.7148500     0.1919400
  C        1.2539560    -0.7229870     0.1828220
  H       -0.0165930     0.0251350    -1.3695740
  H       -1.2581970    -0.8124860     1.2878120
  H       -1.3730900    -1.7140410    -0.2445610
  H        1.3311710    -1.7270150    -0.2570240
  H        1.2459170    -0.8113320     1.2773370
  H        0.8105517     1.6968074     0.0782093
  H       -2.2316880     0.9438100     0.0202110
  H        3.1428100    -0.1741490     0.1701570
units angstrom
no_reorient  #important for SAPT in psi4, default
symmetry c1  #important for SAPT in psi4, default
}

set PROPERTIES_ORIGIN ["COM"]
properties('MP2/aug-cc-pvtz', properties = ['dipole'])
--------------------------------------------------------------------------

    Molecular point group: c1
  Charge       = 0
  Multiplicity = 1
  Basis Set: AUG-CC-PVTZ
    Blend: AUG-CC-PVTZ
  Basis Set: (AUG-CC-PVTZ AUX)
    Blend: AUG-CC-PVTZ-JKFIT

    Orbital Energies [Eh]
    ---------------------

    Doubly Occupied:

       1A    -20.582686     2A    -20.565051     3A    -20.551050
       4A    -11.293153     5A    -11.284474     6A    -11.276289
       7A     -1.389469     8A     -1.364107     9A     -1.338352
      10A     -1.038143    11A     -0.918289    12A     -0.813870
      13A     -0.741326    14A     -0.697090    15A     -0.666083
      16A     -0.659087    17A     -0.610381    18A     -0.594313
      19A     -0.577433    20A     -0.544775    21A     -0.529155
      22A     -0.493446    23A     -0.471868    24A     -0.453807
      25A     -0.438421

  @DF-RHF Final Energy:  -342.96488955511643

   => Energetics <=

    Nuclear Repulsion Energy =            262.4940992931983601
    One-Electron Energy =                -991.1337414658172520
    Two-Electron Energy =                 385.6747526175024632
    Total Energy =                       -342.9648895551164287
  Basis Set: (AUG-CC-PVTZ AUX)
    Blend: AUG-CC-PVTZ-RI
    Molecular point group: c1

    Geometry (in Angstrom), charge = 0, multiplicity = 1:

       Center              X                  Y                   Z               Mass
    ------------   -----------------  -----------------  -----------------  -----------------
         O           -0.050548203880     1.252578804049     0.301735468606    15.994914619570
         O           -2.406932203880    -0.005903195951    -0.221371531394    15.994914619570
         O            2.340773796120     0.095336804049    -0.247672531394    15.994914619570
         C            0.002979796120    -0.060441195951    -0.260537531394    12.000000000000
         C           -1.269120203880    -0.742690195951     0.202397468606    12.000000000000
         C            1.271357796120    -0.750827195951     0.193279468606    12.000000000000
         H            0.000808796120    -0.002705195951    -1.359116531394     1.007825032230
         H           -1.240795203880    -0.840326195951     1.298269468606     1.007825032230
         H           -1.355688203880    -1.741881195951    -0.234103531394     1.007825032230
         H            1.348572796120    -1.754855195951    -0.246566531394     1.007825032230
         H            1.263318796120    -0.839172195951     1.287794468606     1.007825032230
         H            0.827953496120     1.668967204049     0.088666768606     1.007825032230
         H           -2.214286203880     0.915969804049     0.030668468606     1.007825032230
         H            3.160211796120    -0.201989195951     0.180614468606     1.007825032230

  Basis Set: AUG-CC-PVTZ
    Blend: AUG-CC-PVTZ
  Basis Set: (AUG-CC-PVTZ AUX)
    Blend: AUG-CC-PVTZ-JKFIT
	 Reference Energy          =    -342.9648895551164287 [Eh]
	 Singles Energy            =      -0.0000000000000000 [Eh]
	 Same-Spin Energy          =      -0.3286704708851483 [Eh]
	 Opposite-Spin Energy      =      -1.0469090334190143 [Eh]
	 Correlation Energy        =      -1.3755795043041625 [Eh]
	 Total Energy              =    -344.3404690594205704 [Eh]

	 ================> DF-SCS-MP2 Energies <==================
	-----------------------------------------------------------
	 SCS Same-Spin Scale       =       0.3333333333333333 [-]
	 SCS Opposite-Spin Scale   =       1.2000000000000000 [-]
	 SCS Same-Spin Energy      =      -0.1095568236283828 [Eh]
	 SCS Opposite-Spin Energy  =      -1.2562908401028172 [Eh]
	 SCS Correlation Energy    =      -1.3658476637312000 [Eh]
	 SCS Total Energy          =    -344.3307372188476165 [Eh]
	-----------------------------------------------------------

  Dipole Moment: [D]
     X:     3.2036      Y:    -1.3121      Z:     0.9629     Total:     3.5933

*** Psi4 exiting successfully. Buy a developer a beer!
