                               Psi4 1.3.2 release

  ==> Input File <==

--------------------------------------------------------------------------
#psi4
#
memory 32 gb

molecule  {
0 1
  O       -0.0679570     1.2803790     0.2912690
  O       -2.4243090     0.0219280    -0.2318400
  O        2.3232750     0.1233060    -0.2580880
  C       -0.0144270    -0.0326130    -0.2709570
  C       -1.2865220    -0.7147970     0.1919500
  C        1.2539810    -0.7230840     0.1827990
  H       -0.0165290     0.0250030    -1.3695790
  H       -1.2581130    -0.8122820     1.2878600
  H       -1.3731370    -1.7140640    -0.2443670
  H        1.3313060    -1.7269980    -0.2572240
  H        1.2460610    -0.8115580     1.2773110
  H        0.7047096     1.6465113     0.1040992
  H       -2.2316960     0.9438620     0.0200080
  H        3.1428520    -0.1742490     0.1698040
units angstrom
no_reorient  #important for SAPT in psi4, default
symmetry c1  #important for SAPT in psi4, default
}

set PROPERTIES_ORIGIN ["COM"]
properties('MP2/aug-cc-pvtz', properties = ['dipole'])
--------------------------------------------------------------------------

    Molecular point group: c1
  Charge       = 0
  Multiplicity = 1
  Basis Set: AUG-CC-PVTZ
    Blend: AUG-CC-PVTZ
  Basis Set: (AUG-CC-PVTZ AUX)
    Blend: AUG-CC-PVTZ-JKFIT

    Orbital Energies [Eh]
    ---------------------

    Doubly Occupied:

       1A    -20.581851     2A    -20.555892     3A    -20.551936
       4A    -11.293828     5A    -11.286244     6A    -11.277186
       7A     -1.404618     8A     -1.370577     9A     -1.347849
      10A     -1.044768    11A     -0.919473    12A     -0.823357
      13A     -0.749699    14A     -0.701558    15A     -0.672217
      16A     -0.662768    17A     -0.612388    18A     -0.598285
      19A     -0.579148    20A     -0.548599    21A     -0.533876
      22A     -0.495878    23A     -0.471476    24A     -0.457449
      25A     -0.440255

  @DF-RHF Final Energy:  -342.96181437397229

   => Energetics <=

    Nuclear Repulsion Energy =            263.2227633492940981
    One-Electron Energy =                -992.4068032441277865
    Two-Electron Energy =                 386.2222255208613433
    Total Energy =                       -342.9618143739722882
  Basis Set: (AUG-CC-PVTZ AUX)
    Blend: AUG-CC-PVTZ-RI
    Molecular point group: c1

    Geometry (in Angstrom), charge = 0, multiplicity = 1:

       Center              X                  Y                   Z               Mass
    ------------   -----------------  -----------------  -----------------  -----------------
         O           -0.049389752801     1.253085171829     0.301441885569    15.994914619570
         O           -2.405741752801    -0.005365828171    -0.221667114431    15.994914619570
         O            2.341842247199     0.096012171829    -0.247915114431    15.994914619570
         C            0.004140247199    -0.059906828171    -0.260784114431    12.000000000000
         C           -1.267954752801    -0.742090828171     0.202122885569    12.000000000000
         C            1.272548247199    -0.750377828171     0.192971885569    12.000000000000
         H            0.002038247199    -0.002290828171    -1.359406114431     1.007825032230
         H           -1.239545752801    -0.839575828171     1.298032885569     1.007825032230
         H           -1.354569752801    -1.741357828171    -0.234194114431     1.007825032230
         H            1.349873247199    -1.754291828171    -0.247051114431     1.007825032230
         H            1.264628247199    -0.838851828171     1.287483885569     1.007825032230
         H            0.723276847199     1.619217471829     0.114272085569     1.007825032230
         H           -2.213128752801     0.916568171829     0.030180885569     1.007825032230
         H            3.161419247199    -0.201542828171     0.179976885569     1.007825032230

  Basis Set: AUG-CC-PVTZ
    Blend: AUG-CC-PVTZ
  Basis Set: (AUG-CC-PVTZ AUX)
    Blend: AUG-CC-PVTZ-JKFIT
	 Reference Energy          =    -342.9618143739722882 [Eh]
	 Singles Energy            =      -0.0000000000000000 [Eh]
	 Same-Spin Energy          =      -0.3270682757444313 [Eh]
	 Opposite-Spin Energy      =      -1.0432809861751386 [Eh]
	 Correlation Energy        =      -1.3703492619195698 [Eh]
	 Total Energy              =    -344.3321636358918454 [Eh]

	 ================> DF-SCS-MP2 Energies <==================
	-----------------------------------------------------------
	 SCS Same-Spin Scale       =       0.3333333333333333 [-]
	 SCS Opposite-Spin Scale   =       1.2000000000000000 [-]
	 SCS Same-Spin Energy      =      -0.1090227585814771 [Eh]
	 SCS Opposite-Spin Energy  =      -1.2519371834101662 [Eh]
	 SCS Correlation Energy    =      -1.3609599419916434 [Eh]
	 SCS Total Energy          =    -344.3227743159639545 [Eh]
	-----------------------------------------------------------

  Dipole Moment: [D]
     X:     3.0828      Y:    -1.3782      Z:     0.9787     Total:     3.5159

*** Psi4 exiting successfully. Buy a developer a beer!
