                               Psi4 1.3.2 release

  ==> Input File <==

--------------------------------------------------------------------------
#psi4
#
memory 32 gb

molecule  {
0 1
  O       -0.0679570     1.2803790     0.2912690
  O       -2.4243090     0.0219280    -0.2318400
  O        2.3232750     0.1233060    -0.2580880
  C       -0.0069366    -0.2163376    -0.3496283
  C       -1.2865220    -0.7147970     0.1919500
  C        1.2539810    -0.7230840     0.1827990
  H       -0.0165290     0.0250030    -1.3695790
  H       -1.2581130    -0.8122820     1.2878600
  H       -1.3731370    -1.7140640    -0.2443670
  H        1.3313060    -1.7269980    -0.2572240
  H        1.2460610    -0.8115580     1.2773110
  H        0.7929870     1.6883420     0.0827150
  H       -2.2316960     0.9438620     0.0200080
  H        3.1428520    -0.1742490     0.1698040
units angstrom
no_reorient  #important for SAPT in psi4, default
symmetry c1  #important for SAPT in psi4, default
}

set PROPERTIES_ORIGIN ["COM"]
properties('MP2/aug-cc-pvtz', properties = ['dipole'])
--------------------------------------------------------------------------

    Molecular point group: c1
  Charge       = 0
  Multiplicity = 1
  Basis Set: AUG-CC-PVTZ
    Blend: AUG-CC-PVTZ
  Basis Set: (AUG-CC-PVTZ AUX)
    Blend: AUG-CC-PVTZ-JKFIT

    Orbital Energies [Eh]
    ---------------------

    Doubly Occupied:

       1A    -20.586661     2A    -20.555923     3A    -20.537814
       4A    -11.300910     5A    -11.293467     6A    -11.283386
       7A     -1.385101     8A     -1.358724     9A     -1.293653
      10A     -1.066517    11A     -0.933943    12A     -0.818782
      13A     -0.735267    14A     -0.700003    15A     -0.658059
      16A     -0.654948    17A     -0.618172    18A     -0.598520
      19A     -0.573436    20A     -0.538628    21A     -0.509941
      22A     -0.482309    23A     -0.467790    24A     -0.456434
      25A     -0.451305

  @DF-RHF Final Energy:  -342.93318809773632

   => Energetics <=

    Nuclear Repulsion Energy =            261.2334325504071444
    One-Electron Energy =                -988.6138549695515394
    Two-Electron Energy =                 384.4472343214081320
    Total Energy =                       -342.9331880977363198
  Basis Set: (AUG-CC-PVTZ AUX)
    Blend: AUG-CC-PVTZ-RI
    Molecular point group: c1

    Geometry (in Angstrom), charge = 0, multiplicity = 1:

       Center              X                  Y                   Z               Mass
    ------------   -----------------  -----------------  -----------------  -----------------
         O           -0.051332806946     1.276578920553     0.311932216836    15.994914619570
         O           -2.407684806946     0.018127920553    -0.211176783164    15.994914619570
         O            2.339899193054     0.119505920553    -0.237424783164    15.994914619570
         C            0.009687593054    -0.220137679447    -0.328965083164    12.000000000000
         C           -1.269897806946    -0.718597079447     0.212613216836    12.000000000000
         C            1.270605193054    -0.726884079447     0.203462216836    12.000000000000
         H            0.000095193054     0.021202920553    -1.348915783164     1.007825032230
         H           -1.241488806946    -0.816082079447     1.308523216836     1.007825032230
         H           -1.356512806946    -1.717864079447    -0.223703783164     1.007825032230
         H            1.347930193054    -1.730798079447    -0.236560783164     1.007825032230
         H            1.262685193054    -0.815358079447     1.297974216836     1.007825032230
         H            0.809611193054     1.684541920553     0.103378216836     1.007825032230
         H           -2.215071806946     0.940061920553     0.040671216836     1.007825032230
         H            3.159476193054    -0.178049079447     0.190467216836     1.007825032230

  Basis Set: AUG-CC-PVTZ
    Blend: AUG-CC-PVTZ
  Basis Set: (AUG-CC-PVTZ AUX)
    Blend: AUG-CC-PVTZ-JKFIT
	 Reference Energy          =    -342.9331880977363198 [Eh]
	 Singles Energy            =      -0.0000000000000000 [Eh]
	 Same-Spin Energy          =      -0.3303303984070762 [Eh]
	 Opposite-Spin Energy      =      -1.0515810194154258 [Eh]
	 Correlation Energy        =      -1.3819114178225020 [Eh]
	 Total Energy              =    -344.3150995155588134 [Eh]

	 ================> DF-SCS-MP2 Energies <==================
	-----------------------------------------------------------
	 SCS Same-Spin Scale       =       0.3333333333333333 [-]
	 SCS Opposite-Spin Scale   =       1.2000000000000000 [-]
	 SCS Same-Spin Energy      =      -0.1101101328023587 [Eh]
	 SCS Opposite-Spin Energy  =      -1.2618972232985108 [Eh]
	 SCS Correlation Energy    =      -1.3720073561008697 [Eh]
	 SCS Total Energy          =    -344.3051954538372001 [Eh]
	-----------------------------------------------------------

  Dipole Moment: [D]
     X:     3.1667      Y:    -1.8653      Z:     0.7856     Total:     3.7583

*** Psi4 exiting successfully. Buy a developer a beer!
