                               Psi4 1.4a3.dev225

  ==> Input File <==

--------------------------------------------------------------------------
#psi4
#
memory 32 gb

molecule  {
0 1
  O       -0.0679500     1.2804190     0.2912780
  O       -2.4243340     0.0219370    -0.2318290
  O        2.3233720     0.1231770    -0.2581300
  C       -0.0144220    -0.0326010    -0.2709950
  C       -1.2865220    -0.7148500     0.1919400
  C        1.2539560    -0.7229870     0.1828220
  H       -0.0165930     0.0251350    -1.3695740
  H       -1.2581970    -0.8124860     1.2878120
  H       -1.3730900    -1.7140410    -0.2445610
  H        1.3311710    -1.7270150    -0.2570240
  H        1.2459170    -0.8113320     1.2773370
  H        0.7928980     1.6884400     0.0824910
  H       -2.2277360     0.9627216     0.0253814
  H        3.1428100    -0.1741490     0.1701570
units angstrom
no_reorient  #important for SAPT in psi4, default
symmetry c1  #important for SAPT in psi4, default
}

set PROPERTIES_ORIGIN ["COM"]
properties('MP2/aug-cc-pvtz', properties = ['dipole'])
--------------------------------------------------------------------------

    Molecular point group: c1
  Charge       = 0
  Multiplicity = 1
  Basis Set: AUG-CC-PVTZ
    Blend: AUG-CC-PVTZ
  Basis Set: (AUG-CC-PVTZ AUX)
    Blend: AUG-CC-PVTZ-JKFIT

    Orbital Energies [Eh]
    ---------------------

    Doubly Occupied:

       1A    -20.582500     2A    -20.563900     3A    -20.552552
       4A    -11.293192     5A    -11.284661     6A    -11.276156
       7A     -1.390631     8A     -1.363886     9A     -1.337472
      10A     -1.038696    11A     -0.917445    12A     -0.814458
      13A     -0.741991    14A     -0.697593    15A     -0.666926
      16A     -0.657170    17A     -0.610061    18A     -0.594704
      19A     -0.577129    20A     -0.545414    21A     -0.529647
      22A     -0.492786    23A     -0.471666    24A     -0.454325
      25A     -0.438160

  @DF-RHF Final Energy:  -342.96492894557525

   => Energetics <=

    Nuclear Repulsion Energy =            262.5064613036196306
    One-Electron Energy =                -991.1565384077007366
    Two-Electron Energy =                 385.6851481585058536
    Total Energy =                       -342.9649289455752523
  Basis Set: (AUG-CC-PVTZ AUX)
    Blend: AUG-CC-PVTZ-RI
    Molecular point group: c1

    Geometry (in Angstrom), charge = 0, multiplicity = 1:

       Center              X                  Y                   Z               Mass
    ------------   -----------------  -----------------  -----------------  -----------------
         O           -0.050398184166     1.252463355756     0.301631977701    15.994914619570
         O           -2.406782184166    -0.006018644244    -0.221475022299    15.994914619570
         O            2.340923815834     0.095221355756    -0.247776022299    15.994914619570
         C            0.003129815834    -0.060556644244    -0.260641022299    12.000000000000
         C           -1.268970184166    -0.742805644244     0.202293977701    12.000000000000
         C            1.271507815834    -0.750942644244     0.193175977701    12.000000000000
         H            0.000958815834    -0.002820644244    -1.359220022299     1.007825032230
         H           -1.240645184166    -0.840441644244     1.298165977701     1.007825032230
         H           -1.355538184166    -1.741996644244    -0.234207022299     1.007825032230
         H            1.348722815834    -1.754970644244    -0.246670022299     1.007825032230
         H            1.263468815834    -0.839287644244     1.287690977701     1.007825032230
         H            0.810449815834     1.660484355756     0.092844977701     1.007825032230
         H           -2.210184184166     0.934765955756     0.035735377701     1.007825032230
         H            3.160361815834    -0.202104644244     0.180510977701     1.007825032230

  Basis Set: AUG-CC-PVTZ
    Blend: AUG-CC-PVTZ
  Basis Set: (AUG-CC-PVTZ AUX)
    Blend: AUG-CC-PVTZ-JKFIT
	 Reference Energy          =    -342.9649289455752523 [Eh]
	 Singles Energy            =      -0.0000000000000000 [Eh]
	 Same-Spin Energy          =      -0.3286515635703491 [Eh]
	 Opposite-Spin Energy      =      -1.0468848720704407 [Eh]
	 Correlation Energy        =      -1.3755364356407898 [Eh]
	 Total Energy              =    -344.3404653812160632 [Eh]

	 ================> DF-SCS-MP2 Energies <==================
	-----------------------------------------------------------
	 SCS Same-Spin Scale       =       0.3333333333333333 [-]
	 SCS Opposite-Spin Scale   =       1.2000000000000000 [-]
	 SCS Same-Spin Energy      =      -0.1095505211901164 [Eh]
	 SCS Opposite-Spin Energy  =      -1.2562618464845288 [Eh]
	 SCS Correlation Energy    =      -1.3658123676746452 [Eh]
	 SCS Total Energy          =    -344.3307413132499164 [Eh]
	-----------------------------------------------------------

  Dipole Moment: [D]
     X:     3.1861      Y:    -1.3014      Z:     0.9692     Total:     3.5755

*** Psi4 exiting successfully. Buy a developer a beer!
