                               Psi4 1.3.2 release

  ==> Input File <==

--------------------------------------------------------------------------
#psi4
#
memory 32 gb

molecule  {
0 1
  O       -0.0679570     1.2803790     0.2912690
  O       -2.4243090     0.0219280    -0.2318400
  O        2.3232750     0.1233060    -0.2580880
  C       -0.0144270    -0.0326130    -0.2709570
  C       -1.3078226    -0.7560367     0.1745464
  C        1.2539810    -0.7230840     0.1827990
  H       -0.0165290     0.0250030    -1.3695790
  H       -1.2581130    -0.8122820     1.2878600
  H       -1.3731370    -1.7140640    -0.2443670
  H        1.3313060    -1.7269980    -0.2572240
  H        1.2460610    -0.8115580     1.2773110
  H        0.7929870     1.6883420     0.0827150
  H       -2.2316960     0.9438620     0.0200080
  H        3.1428520    -0.1742490     0.1698040
units angstrom
no_reorient  #important for SAPT in psi4, default
symmetry c1  #important for SAPT in psi4, default
}

set PROPERTIES_ORIGIN ["COM"]
properties('MP2/aug-cc-pvtz', properties = ['dipole'])
--------------------------------------------------------------------------

    Molecular point group: c1
  Charge       = 0
  Multiplicity = 1
  Basis Set: AUG-CC-PVTZ
    Blend: AUG-CC-PVTZ
  Basis Set: (AUG-CC-PVTZ AUX)
    Blend: AUG-CC-PVTZ-JKFIT

    Orbital Energies [Eh]
    ---------------------

    Doubly Occupied:

       1A    -20.581791     2A    -20.564004     3A    -20.549988
       4A    -11.292369     5A    -11.285520     6A    -11.276688
       7A     -1.389709     8A     -1.363721     9A     -1.339552
      10A     -1.035381    11A     -0.918778    12A     -0.816461
      13A     -0.741561    14A     -0.695717    15A     -0.665502
      16A     -0.660615    17A     -0.609358    18A     -0.598187
      19A     -0.582850    20A     -0.544493    21A     -0.530753
      22A     -0.494274    23A     -0.471077    24A     -0.453565
      25A     -0.432060

  @DF-RHF Final Energy:  -342.96425947266772

   => Energetics <=

    Nuclear Repulsion Energy =            262.0517635516329165
    One-Electron Energy =                -990.2441011280521934
    Two-Electron Energy =                 385.2280781037515567
    Total Energy =                       -342.9642594726677203
  Basis Set: (AUG-CC-PVTZ AUX)
    Blend: AUG-CC-PVTZ-RI
    Molecular point group: c1

    Geometry (in Angstrom), charge = 0, multiplicity = 1:

       Center              X                  Y                   Z               Mass
    ------------   -----------------  -----------------  -----------------  -----------------
         O           -0.047579390665     1.258003492697     0.303944888065    15.994914619570
         O           -2.403931390665    -0.000447507303    -0.219164111935    15.994914619570
         O            2.343652609335     0.100930492697    -0.245412111935    15.994914619570
         C            0.005950609335    -0.054988507303    -0.258281111935    12.000000000000
         C           -1.287444990665    -0.778412207303     0.187222288065    12.000000000000
         C            1.274358609335    -0.745459507303     0.195474888065    12.000000000000
         H            0.003848609335     0.002627492697    -1.356903111935     1.007825032230
         H           -1.237735390665    -0.834657507303     1.300535888065     1.007825032230
         H           -1.352759390665    -1.736439507303    -0.231691111935     1.007825032230
         H            1.351683609335    -1.749373507303    -0.244548111935     1.007825032230
         H            1.266438609335    -0.833933507303     1.289986888065     1.007825032230
         H            0.813364609335     1.665966492697     0.095390888065     1.007825032230
         H           -2.211318390665     0.921486492697     0.032683888065     1.007825032230
         H            3.163229609335    -0.196624507303     0.182479888065     1.007825032230

  Basis Set: AUG-CC-PVTZ
    Blend: AUG-CC-PVTZ
  Basis Set: (AUG-CC-PVTZ AUX)
    Blend: AUG-CC-PVTZ-JKFIT
	 Reference Energy          =    -342.9642594726677203 [Eh]
	 Singles Energy            =      -0.0000000000000000 [Eh]
	 Same-Spin Energy          =      -0.3281558615213256 [Eh]
	 Opposite-Spin Energy      =      -1.0459724032042126 [Eh]
	 Correlation Energy        =      -1.3741282647255382 [Eh]
	 Total Energy              =    -344.3383877373932478 [Eh]

	 ================> DF-SCS-MP2 Energies <==================
	-----------------------------------------------------------
	 SCS Same-Spin Scale       =       0.3333333333333333 [-]
	 SCS Opposite-Spin Scale   =       1.2000000000000000 [-]
	 SCS Same-Spin Energy      =      -0.1093852871737752 [Eh]
	 SCS Opposite-Spin Energy  =      -1.2551668838450551 [Eh]
	 SCS Correlation Energy    =      -1.3645521710188304 [Eh]
	 SCS Total Energy          =    -344.3288116436865494 [Eh]
	-----------------------------------------------------------

  Dipole Moment: [D]
     X:     3.1491      Y:    -1.3673      Z:     0.9417     Total:     3.5599

*** Psi4 exiting successfully. Buy a developer a beer!
