                               Psi4 1.3.2 release

  ==> Input File <==

--------------------------------------------------------------------------
#psi4
#
memory 32 gb

molecule  {
0 1
  O       -0.0679570     1.2803790     0.2912690
  O       -2.4243090     0.0219280    -0.2318400
  O        2.3232750     0.1233060    -0.2580880
  C       -0.0181722     0.0592493    -0.2316214
  C       -1.2865220    -0.7147970     0.1919500
  C        1.2539810    -0.7230840     0.1827990
  H       -0.0165290     0.0250030    -1.3695790
  H       -1.2581130    -0.8122820     1.2878600
  H       -1.3731370    -1.7140640    -0.2443670
  H        1.3313060    -1.7269980    -0.2572240
  H        1.2460610    -0.8115580     1.2773110
  H        0.7929870     1.6883420     0.0827150
  H       -2.2316960     0.9438620     0.0200080
  H        3.1428520    -0.1742490     0.1698040
units angstrom
no_reorient  #important for SAPT in psi4, default
symmetry c1  #important for SAPT in psi4, default
}

set PROPERTIES_ORIGIN ["COM"]
properties('MP2/aug-cc-pvtz', properties = ['dipole'])
--------------------------------------------------------------------------

    Molecular point group: c1
  Charge       = 0
  Multiplicity = 1
  Basis Set: AUG-CC-PVTZ
    Blend: AUG-CC-PVTZ
  Basis Set: (AUG-CC-PVTZ AUX)
    Blend: AUG-CC-PVTZ-JKFIT

    Orbital Energies [Eh]
    ---------------------

    Doubly Occupied:

       1A    -20.580607     2A    -20.575394     3A    -20.549137
       4A    -11.289933     5A    -11.285950     6A    -11.274237
       7A     -1.420279     8A     -1.371527     9A     -1.346735
      10A     -1.024603    11A     -0.911929    12A     -0.820382
      13A     -0.749735    14A     -0.697890    15A     -0.673634
      16A     -0.668507    17A     -0.612183    18A     -0.601887
      19A     -0.580868    20A     -0.551901    21A     -0.539869
      22A     -0.489990    23A     -0.469992    24A     -0.438068
      25A     -0.426083

  @DF-RHF Final Energy:  -342.95789912937823

   => Energetics <=

    Nuclear Repulsion Energy =            263.3320211627628851
    One-Electron Energy =                -992.6771962862360397
    Two-Electron Energy =                 386.3872759940949209
    Total Energy =                       -342.9578991293782337
  Basis Set: (AUG-CC-PVTZ AUX)
    Blend: AUG-CC-PVTZ-RI
    Molecular point group: c1

    Geometry (in Angstrom), charge = 0, multiplicity = 1:

       Center              X                  Y                   Z               Mass
    ------------   -----------------  -----------------  -----------------  -----------------
         O           -0.049868047682     1.240651291877     0.296547929396    15.994914619570
         O           -2.406220047682    -0.017799708123    -0.226561070604    15.994914619570
         O            2.341363952318     0.083578291877    -0.252809070604    15.994914619570
         C           -0.000083247682     0.019521591877    -0.226342470604    12.000000000000
         C           -1.268433047682    -0.754524708123     0.197228929396    12.000000000000
         C            1.272069952318    -0.762811708123     0.188077929396    12.000000000000
         H            0.001559952318    -0.014724708123    -1.364300070604     1.007825032230
         H           -1.240024047682    -0.852009708123     1.293138929396     1.007825032230
         H           -1.355048047682    -1.753791708123    -0.239088070604     1.007825032230
         H            1.349394952318    -1.766725708123    -0.251945070604     1.007825032230
         H            1.264149952318    -0.851285708123     1.282589929396     1.007825032230
         H            0.811075952318     1.648614291877     0.087993929396     1.007825032230
         H           -2.213607047682     0.904134291877     0.025286929396     1.007825032230
         H            3.160940952318    -0.213976708123     0.175082929396     1.007825032230

  Basis Set: AUG-CC-PVTZ
    Blend: AUG-CC-PVTZ
  Basis Set: (AUG-CC-PVTZ AUX)
    Blend: AUG-CC-PVTZ-JKFIT
	 Reference Energy          =    -342.9578991293782337 [Eh]
	 Singles Energy            =      -0.0000000000000000 [Eh]
	 Same-Spin Energy          =      -0.3283853279426547 [Eh]
	 Opposite-Spin Energy      =      -1.0452367677204462 [Eh]
	 Correlation Energy        =      -1.3736220956631009 [Eh]
	 Total Energy              =    -344.3315212250413424 [Eh]

	 ================> DF-SCS-MP2 Energies <==================
	-----------------------------------------------------------
	 SCS Same-Spin Scale       =       0.3333333333333333 [-]
	 SCS Opposite-Spin Scale   =       1.2000000000000000 [-]
	 SCS Same-Spin Energy      =      -0.1094617759808849 [Eh]
	 SCS Opposite-Spin Energy  =      -1.2542841212645353 [Eh]
	 SCS Correlation Energy    =      -1.3637458972454202 [Eh]
	 SCS Total Energy          =    -344.3216450266236279 [Eh]
	-----------------------------------------------------------

  Dipole Moment: [D]
     X:     3.1784      Y:    -1.0050      Z:     1.0968     Total:     3.5093

*** Psi4 exiting successfully. Buy a developer a beer!
