                               Psi4 1.3.2 release

  ==> Input File <==

--------------------------------------------------------------------------
#psi4
#
memory 32 gb

molecule  {
0 1
  O       -0.0662528     1.2379933     0.3815652
  O       -2.4243090     0.0219280    -0.2318400
  O        2.3232750     0.1233060    -0.2580880
  C       -0.0144270    -0.0326130    -0.2709570
  C       -1.2865220    -0.7147970     0.1919500
  C        1.2539810    -0.7230840     0.1827990
  H       -0.0165290     0.0250030    -1.3695790
  H       -1.2581130    -0.8122820     1.2878600
  H       -1.3731370    -1.7140640    -0.2443670
  H        1.3313060    -1.7269980    -0.2572240
  H        1.2460610    -0.8115580     1.2773110
  H        0.7929870     1.6883420     0.0827150
  H       -2.2316960     0.9438620     0.0200080
  H        3.1428520    -0.1742490     0.1698040
units angstrom
no_reorient  #important for SAPT in psi4, default
symmetry c1  #important for SAPT in psi4, default
}

set PROPERTIES_ORIGIN ["COM"]
properties('MP2/aug-cc-pvtz', properties = ['dipole'])
--------------------------------------------------------------------------

    Molecular point group: c1
  Charge       = 0
  Multiplicity = 1
  Basis Set: AUG-CC-PVTZ
    Blend: AUG-CC-PVTZ
  Basis Set: (AUG-CC-PVTZ AUX)
    Blend: AUG-CC-PVTZ-JKFIT

    Orbital Energies [Eh]
    ---------------------

    Doubly Occupied:

       1A    -20.581846     2A    -20.568532     3A    -20.551041
       4A    -11.291310     5A    -11.284564     6A    -11.275052
       7A     -1.389048     8A     -1.363730     9A     -1.337444
      10A     -1.036222    11A     -0.917614    12A     -0.811485
      13A     -0.741654    14A     -0.697478    15A     -0.665160
      16A     -0.655165    17A     -0.610958    18A     -0.594943
      19A     -0.574601    20A     -0.540566    21A     -0.533208
      22A     -0.491753    23A     -0.471403    24A     -0.453589
      25A     -0.439853

  @DF-RHF Final Energy:  -342.96060765485930

   => Energetics <=

    Nuclear Repulsion Energy =            262.7555199890776976
    One-Electron Energy =                -991.6758188407409307
    Two-Electron Energy =                 385.9596911968039308
    Total Energy =                       -342.9606076548593023
  Basis Set: (AUG-CC-PVTZ AUX)
    Blend: AUG-CC-PVTZ-RI
    Molecular point group: c1

    Geometry (in Angstrom), charge = 0, multiplicity = 1:

       Center              X                  Y                   Z               Mass
    ------------   -----------------  -----------------  -----------------  -----------------
         O           -0.048948236783     1.217606761030     0.376281599658    15.994914619570
         O           -2.407004436783     0.001541461030    -0.237123600342    15.994914619570
         O            2.340579563217     0.102919461030    -0.263371600342    15.994914619570
         C            0.002877563217    -0.052999538970    -0.276240600342    12.000000000000
         C           -1.269217436783    -0.735183538970     0.186666399658    12.000000000000
         C            1.271285563217    -0.743470538970     0.177515399658    12.000000000000
         H            0.000775563217     0.004616461030    -1.374862600342     1.007825032230
         H           -1.240808436783    -0.832668538970     1.282576399658     1.007825032230
         H           -1.355832436783    -1.734450538970    -0.249650600342     1.007825032230
         H            1.348610563217    -1.747384538970    -0.262507600342     1.007825032230
         H            1.263365563217    -0.831944538970     1.272027399658     1.007825032230
         H            0.810291563217     1.667955461030     0.077431399658     1.007825032230
         H           -2.214391436783     0.923475461030     0.014724399658     1.007825032230
         H            3.160156563217    -0.194635538970     0.164520399658     1.007825032230

  Basis Set: AUG-CC-PVTZ
    Blend: AUG-CC-PVTZ
  Basis Set: (AUG-CC-PVTZ AUX)
    Blend: AUG-CC-PVTZ-JKFIT
	 Reference Energy          =    -342.9606076548593023 [Eh]
	 Singles Energy            =      -0.0000000000000000 [Eh]
	 Same-Spin Energy          =      -0.3291981165970492 [Eh]
	 Opposite-Spin Energy      =      -1.0480587251081284 [Eh]
	 Correlation Energy        =      -1.3772568417051776 [Eh]
	 Total Energy              =    -344.3378644965644639 [Eh]

	 ================> DF-SCS-MP2 Energies <==================
	-----------------------------------------------------------
	 SCS Same-Spin Scale       =       0.3333333333333333 [-]
	 SCS Opposite-Spin Scale   =       1.2000000000000000 [-]
	 SCS Same-Spin Energy      =      -0.1097327055323497 [Eh]
	 SCS Opposite-Spin Energy  =      -1.2576704701297541 [Eh]
	 SCS Correlation Energy    =      -1.3674031756621039 [Eh]
	 SCS Total Energy          =    -344.3280108305214071 [Eh]
	-----------------------------------------------------------

  Dipole Moment: [D]
     X:     3.1490      Y:    -1.1988      Z:     0.7941     Total:     3.4617

*** Psi4 exiting successfully. Buy a developer a beer!
