                               Psi4 1.4a3.dev225

  ==> Input File <==

--------------------------------------------------------------------------
#psi4
#
memory 32 gb

molecule  {
0 1
  O       -0.0679500     1.2804190     0.2912780
  O       -2.4243340     0.0219370    -0.2318290
  O        2.3233720     0.1231770    -0.2581300
  C       -0.0144220    -0.0326010    -0.2709950
  C       -1.2865220    -0.7148500     0.1919400
  C        1.2539560    -0.7229870     0.1828220
  H       -0.0165930     0.0251350    -1.3695740
  H       -1.2581970    -0.8124860     1.2878120
  H       -1.3730900    -1.7140410    -0.2445610
  H        1.3311710    -1.7270150    -0.2570240
  H        1.2459170    -0.8113320     1.2773370
  H        0.7487637     1.6675214     0.0931952
  H       -2.2316880     0.9438100     0.0202110
  H        3.1428100    -0.1741490     0.1701570
units angstrom
no_reorient  #important for SAPT in psi4, default
symmetry c1  #important for SAPT in psi4, default
}

set PROPERTIES_ORIGIN ["COM"]
properties('MP2/aug-cc-pvtz', properties = ['dipole'])
--------------------------------------------------------------------------

    Molecular point group: c1
  Charge       = 0
  Multiplicity = 1
  Basis Set: AUG-CC-PVTZ
    Blend: AUG-CC-PVTZ
  Basis Set: (AUG-CC-PVTZ AUX)
    Blend: AUG-CC-PVTZ-JKFIT

    Orbital Energies [Eh]
    ---------------------

    Doubly Occupied:

       1A    -20.582181     2A    -20.560113     3A    -20.551564
       4A    -11.293531     5A    -11.285495     6A    -11.276799
       7A     -1.396016     8A     -1.368016     9A     -1.344634
      10A     -1.041800    11A     -0.918954    12A     -0.818924
      13A     -0.745953    14A     -0.699648    15A     -0.669546
      16A     -0.661662    17A     -0.611576    18A     -0.596709
      19A     -0.578418    20A     -0.547016    21A     -0.532057
      22A     -0.494922    23A     -0.471623    24A     -0.455884
      25A     -0.439522

  @DF-RHF Final Energy:  -342.96726898029482

   => Energetics <=

    Nuclear Repulsion Energy =            262.8992108502937981
    One-Electron Energy =                -991.8478365542968049
    Two-Electron Energy =                 385.9813567237081884
    Total Energy =                       -342.9672689802948184
  Basis Set: (AUG-CC-PVTZ AUX)
    Blend: AUG-CC-PVTZ-RI
    Molecular point group: c1

    Geometry (in Angstrom), charge = 0, multiplicity = 1:

       Center              X                  Y                   Z               Mass
    ------------   -----------------  -----------------  -----------------  -----------------
         O           -0.049871687966     1.252899456037     0.301571388205    15.994914619570
         O           -2.406255687966    -0.005582543963    -0.221535611795    15.994914619570
         O            2.341450312034     0.095657456037    -0.247836611795    15.994914619570
         C            0.003656312034    -0.060120543963    -0.260701611795    12.000000000000
         C           -1.268443687966    -0.742369543963     0.202233388205    12.000000000000
         C            1.272034312034    -0.750506543963     0.193115388205    12.000000000000
         H            0.001485312034    -0.002384543963    -1.359280611795     1.007825032230
         H           -1.240118687966    -0.840005543963     1.298105388205     1.007825032230
         H           -1.355011687966    -1.741560543963    -0.234267611795     1.007825032230
         H            1.349249312034    -1.754534543963    -0.246730611795     1.007825032230
         H            1.263995312034    -0.838851543963     1.287630388205     1.007825032230
         H            0.766842012034     1.640001856037     0.103488588205     1.007825032230
         H           -2.213609687966     0.916290456037     0.030504388205     1.007825032230
         H            3.160888312034    -0.201668543963     0.180450388205     1.007825032230

  Basis Set: AUG-CC-PVTZ
    Blend: AUG-CC-PVTZ
  Basis Set: (AUG-CC-PVTZ AUX)
    Blend: AUG-CC-PVTZ-JKFIT
	 Reference Energy          =    -342.9672689802948184 [Eh]
	 Singles Energy            =      -0.0000000000000000 [Eh]
	 Same-Spin Energy          =      -0.3277313373238998 [Eh]
	 Opposite-Spin Energy      =      -1.0447339590268827 [Eh]
	 Correlation Energy        =      -1.3724652963507826 [Eh]
	 Total Energy              =    -344.3397342766456291 [Eh]

	 ================> DF-SCS-MP2 Energies <==================
	-----------------------------------------------------------
	 SCS Same-Spin Scale       =       0.3333333333333333 [-]
	 SCS Opposite-Spin Scale   =       1.2000000000000000 [-]
	 SCS Same-Spin Energy      =      -0.1092437791079666 [Eh]
	 SCS Opposite-Spin Energy  =      -1.2536807508322592 [Eh]
	 SCS Correlation Energy    =      -1.3629245299402257 [Eh]
	 SCS Total Energy          =    -344.3301935102350626 [Eh]
	-----------------------------------------------------------

  Dipole Moment: [D]
     X:     3.1320      Y:    -1.3488      Z:     0.9729     Total:     3.5461

*** Psi4 exiting successfully. Buy a developer a beer!
