                               Psi4 1.3.2 release

  ==> Input File <==

--------------------------------------------------------------------------
#psi4
#
memory 32 gb

molecule  {
0 1
  O       -0.0679570     1.2803790     0.2912690
  O       -2.4243090     0.0219280    -0.2318400
  O        2.3232750     0.1233060    -0.2580880
  C       -0.0106818    -0.1244753    -0.3102926
  C       -1.2865220    -0.7147970     0.1919500
  C        1.2539810    -0.7230840     0.1827990
  H       -0.0165290     0.0250030    -1.3695790
  H       -1.2581130    -0.8122820     1.2878600
  H       -1.3731370    -1.7140640    -0.2443670
  H        1.3313060    -1.7269980    -0.2572240
  H        1.2460610    -0.8115580     1.2773110
  H        0.7929870     1.6883420     0.0827150
  H       -2.2316960     0.9438620     0.0200080
  H        3.1428520    -0.1742490     0.1698040
units angstrom
no_reorient  #important for SAPT in psi4, default
symmetry c1  #important for SAPT in psi4, default
}

set PROPERTIES_ORIGIN ["COM"]
properties('MP2/aug-cc-pvtz', properties = ['dipole'])
--------------------------------------------------------------------------

    Molecular point group: c1
  Charge       = 0
  Multiplicity = 1
  Basis Set: AUG-CC-PVTZ
    Blend: AUG-CC-PVTZ
  Basis Set: (AUG-CC-PVTZ AUX)
    Blend: AUG-CC-PVTZ-JKFIT

    Orbital Energies [Eh]
    ---------------------

    Doubly Occupied:

       1A    -20.584535     2A    -20.553463     3A    -20.551618
       4A    -11.296762     5A    -11.287311     6A    -11.279374
       7A     -1.385106     8A     -1.359322     9A     -1.319247
      10A     -1.053170    11A     -0.925896    12A     -0.815643
      13A     -0.737786    14A     -0.698814    15A     -0.661659
      16A     -0.655238    17A     -0.613039    18A     -0.595696
      19A     -0.575468    20A     -0.540741    21A     -0.514435
      22A     -0.493046    23A     -0.472569    24A     -0.460373
      25A     -0.447535

  @DF-RHF Final Energy:  -342.95625186681661

   => Energetics <=

    Nuclear Repulsion Energy =            261.9255646854990687
    One-Electron Energy =                -990.0079389431849677
    Two-Electron Energy =                 385.1261223908692273
    Total Energy =                       -342.9562518668166149
  Basis Set: (AUG-CC-PVTZ AUX)
    Blend: AUG-CC-PVTZ-RI
    Molecular point group: c1

    Geometry (in Angstrom), charge = 0, multiplicity = 1:

       Center              X                  Y                   Z               Mass
    ------------   -----------------  -----------------  -----------------  -----------------
         O           -0.050844553858     1.264603044328     0.306804112331    15.994914619570
         O           -2.407196553858     0.006152044328    -0.216304887669    15.994914619570
         O            2.340387446142     0.107530044328    -0.242552887669    15.994914619570
         C            0.006430646142    -0.140251255672    -0.294757487669    12.000000000000
         C           -1.269409553858    -0.730572955672     0.207485112331    12.000000000000
         C            1.271093446142    -0.738859955672     0.198334112331    12.000000000000
         H            0.000583446142     0.009227044328    -1.354043887669     1.007825032230
         H           -1.241000553858    -0.828057955672     1.303395112331     1.007825032230
         H           -1.356024553858    -1.729839955672    -0.228831887669     1.007825032230
         H            1.348418446142    -1.742773955672    -0.241688887669     1.007825032230
         H            1.263173446142    -0.827333955672     1.292846112331     1.007825032230
         H            0.810099446142     1.672566044328     0.098250112331     1.007825032230
         H           -2.214583553858     0.928086044328     0.035543112331     1.007825032230
         H            3.159964446142    -0.190024955672     0.185339112331     1.007825032230

  Basis Set: AUG-CC-PVTZ
    Blend: AUG-CC-PVTZ
  Basis Set: (AUG-CC-PVTZ AUX)
    Blend: AUG-CC-PVTZ-JKFIT
	 Reference Energy          =    -342.9562518668166149 [Eh]
	 Singles Energy            =      -0.0000000000000000 [Eh]
	 Same-Spin Energy          =      -0.3290953896672003 [Eh]
	 Opposite-Spin Energy      =      -1.0484899092497457 [Eh]
	 Correlation Energy        =      -1.3775852989169461 [Eh]
	 Total Energy              =    -344.3338371657335415 [Eh]

	 ================> DF-SCS-MP2 Energies <==================
	-----------------------------------------------------------
	 SCS Same-Spin Scale       =       0.3333333333333333 [-]
	 SCS Opposite-Spin Scale   =       1.2000000000000000 [-]
	 SCS Same-Spin Energy      =      -0.1096984632224001 [Eh]
	 SCS Opposite-Spin Energy  =      -1.2581878910996949 [Eh]
	 SCS Correlation Energy    =      -1.3678863543220949 [Eh]
	 SCS Total Energy          =    -344.3241382211386963 [Eh]
	-----------------------------------------------------------

  Dipole Moment: [D]
     X:     3.1784      Y:    -1.6035      Z:     0.8655     Total:     3.6637

*** Psi4 exiting successfully. Buy a developer a beer!
