                               Psi4 1.3.2 release

  ==> Input File <==

--------------------------------------------------------------------------
#psi4
#
memory 32 gb

molecule  {
0 1
  O       -0.0679570     1.2803790     0.2912690
  O       -2.3757455     0.0019350    -0.3709072
  O        2.3232750     0.1233060    -0.2580880
  C       -0.0144270    -0.0326130    -0.2709570
  C       -1.2865220    -0.7147970     0.1919500
  C        1.2539810    -0.7230840     0.1827990
  H       -0.0165290     0.0250030    -1.3695790
  H       -1.2581130    -0.8122820     1.2878600
  H       -1.3731370    -1.7140640    -0.2443670
  H        1.3313060    -1.7269980    -0.2572240
  H        1.2460610    -0.8115580     1.2773110
  H        0.7929870     1.6883420     0.0827150
  H       -2.2316960     0.9438620     0.0200080
  H        3.1428520    -0.1742490     0.1698040
units angstrom
no_reorient  #important for SAPT in psi4, default
symmetry c1  #important for SAPT in psi4, default
}

set PROPERTIES_ORIGIN ["COM"]
properties('MP2/aug-cc-pvtz', properties = ['dipole'])
--------------------------------------------------------------------------

    Molecular point group: c1
  Charge       = 0
  Multiplicity = 1
  Basis Set: AUG-CC-PVTZ
    Blend: AUG-CC-PVTZ
  Basis Set: (AUG-CC-PVTZ AUX)
    Blend: AUG-CC-PVTZ-JKFIT

    Orbital Energies [Eh]
    ---------------------

    Doubly Occupied:

       1A    -20.581146     2A    -20.562673     3A    -20.557792
       4A    -11.291202     5A    -11.281743     6A    -11.276001
       7A     -1.389331     8A     -1.362402     9A     -1.334672
      10A     -1.036263    11A     -0.914953    12A     -0.811785
      13A     -0.740725    14A     -0.697999    15A     -0.665716
      16A     -0.654499    17A     -0.606753    18A     -0.592635
      19A     -0.574569    20A     -0.544278    21A     -0.525211
      22A     -0.495934    23A     -0.470935    24A     -0.451342
      25A     -0.439465

  @DF-RHF Final Energy:  -342.95727174420904

   => Energetics <=

    Nuclear Repulsion Energy =            262.7844152453631068
    One-Electron Energy =                -991.7633240062398272
    Two-Electron Energy =                 386.0216370166676825
    Total Energy =                       -342.9572717442090379
  Basis Set: (AUG-CC-PVTZ AUX)
    Blend: AUG-CC-PVTZ-RI
    Molecular point group: c1

    Geometry (in Angstrom), charge = 0, multiplicity = 1:

       Center              X                  Y                   Z               Mass
    ------------   -----------------  -----------------  -----------------  -----------------
         O           -0.058795099777     1.256101318618     0.325841498007    15.994914619570
         O           -2.366583599777    -0.022342681382    -0.336334701993    15.994914619570
         O            2.332436900223     0.099028318618    -0.223515501993    15.994914619570
         C           -0.005265099777    -0.056890681382    -0.236384501993    12.000000000000
         C           -1.277360099777    -0.739074681382     0.226522498007    12.000000000000
         C            1.263142900223    -0.747361681382     0.217371498007    12.000000000000
         H           -0.007367099777     0.000725318618    -1.335006501993     1.007825032230
         H           -1.248951099777    -0.836559681382     1.322432498007     1.007825032230
         H           -1.363975099777    -1.738341681382    -0.209794501993     1.007825032230
         H            1.340467900223    -1.751275681382    -0.222651501993     1.007825032230
         H            1.255222900223    -0.835835681382     1.311883498007     1.007825032230
         H            0.802148900223     1.664064318618     0.117287498007     1.007825032230
         H           -2.222534099777     0.919584318618     0.054580498007     1.007825032230
         H            3.152013900223    -0.198526681382     0.204376498007     1.007825032230

  Basis Set: AUG-CC-PVTZ
    Blend: AUG-CC-PVTZ
  Basis Set: (AUG-CC-PVTZ AUX)
    Blend: AUG-CC-PVTZ-JKFIT
	 Reference Energy          =    -342.9572717442090379 [Eh]
	 Singles Energy            =      -0.0000000000000000 [Eh]
	 Same-Spin Energy          =      -0.3293911180598627 [Eh]
	 Opposite-Spin Energy      =      -1.0486014587387156 [Eh]
	 Correlation Energy        =      -1.3779925767985781 [Eh]
	 Total Energy              =    -344.3352643210076280 [Eh]

	 ================> DF-SCS-MP2 Energies <==================
	-----------------------------------------------------------
	 SCS Same-Spin Scale       =       0.3333333333333333 [-]
	 SCS Opposite-Spin Scale   =       1.2000000000000000 [-]
	 SCS Same-Spin Energy      =      -0.1097970393532876 [Eh]
	 SCS Opposite-Spin Energy  =      -1.2583217504864586 [Eh]
	 SCS Correlation Energy    =      -1.3681187898397460 [Eh]
	 SCS Total Energy          =    -344.3253905340487790 [Eh]
	-----------------------------------------------------------

  Dipole Moment: [D]
     X:     2.9887      Y:    -1.3038      Z:     1.2443     Total:     3.4901

*** Psi4 exiting successfully. Buy a developer a beer!
