                               Psi4 1.3.2 release

  ==> Input File <==

--------------------------------------------------------------------------
#psi4
#
memory 32 gb

molecule  {
0 1
  O       -0.0679570     1.2803790     0.2912690
  O       -2.4389551     0.0051505    -0.2209597
  O        2.3232750     0.1233060    -0.2580880
  C       -0.0144270    -0.0326130    -0.2709570
  C       -1.2865220    -0.7147970     0.1919500
  C        1.2539810    -0.7230840     0.1827990
  H       -0.0165290     0.0250030    -1.3695790
  H       -1.2581130    -0.8122820     1.2878600
  H       -1.3731370    -1.7140640    -0.2443670
  H        1.3313060    -1.7269980    -0.2572240
  H        1.2460610    -0.8115580     1.2773110
  H        0.7929870     1.6883420     0.0827150
  H       -2.2316960     0.9438620     0.0200080
  H        3.1428520    -0.1742490     0.1698040
units angstrom
no_reorient  #important for SAPT in psi4, default
symmetry c1  #important for SAPT in psi4, default
}

set PROPERTIES_ORIGIN ["COM"]
properties('MP2/aug-cc-pvtz', properties = ['dipole'])
--------------------------------------------------------------------------

    Molecular point group: c1
  Charge       = 0
  Multiplicity = 1
  Basis Set: AUG-CC-PVTZ
    Blend: AUG-CC-PVTZ
  Basis Set: (AUG-CC-PVTZ AUX)
    Blend: AUG-CC-PVTZ-JKFIT

    Orbital Energies [Eh]
    ---------------------

    Doubly Occupied:

       1A    -20.582878     2A    -20.564292     3A    -20.553007
       4A    -11.293711     5A    -11.285408     6A    -11.276001
       7A     -1.390985     8A     -1.364379     9A     -1.338977
      10A     -1.039150    11A     -0.917674    12A     -0.814916
      13A     -0.742417    14A     -0.697863    15A     -0.667266
      16A     -0.657215    17A     -0.611171    18A     -0.595439
      19A     -0.576183    20A     -0.545792    21A     -0.530481
      22A     -0.493657    23A     -0.472093    24A     -0.454910
      25A     -0.438415

  @DF-RHF Final Energy:  -342.96514686566559

   => Energetics <=

    Nuclear Repulsion Energy =            262.3412587364407500
    One-Electron Energy =                -990.8042493884697706
    Two-Electron Energy =                 385.4978437863634326
    Total Energy =                       -342.9651468656655879
  Basis Set: (AUG-CC-PVTZ AUX)
    Blend: AUG-CC-PVTZ-RI
    Molecular point group: c1

    Geometry (in Angstrom), charge = 0, multiplicity = 1:

       Center              X                  Y                   Z               Mass
    ------------   -----------------  -----------------  -----------------  -----------------
         O           -0.047811272217     1.255542566505     0.299785369143    15.994914619570
         O           -2.418809372217    -0.019685933495    -0.212443330857    15.994914619570
         O            2.343420727783     0.098469566505    -0.249571630857    15.994914619570
         C            0.005718727783    -0.057449433495    -0.262440630857    12.000000000000
         C           -1.266376272217    -0.739633433495     0.200466369143    12.000000000000
         C            1.274126727783    -0.747920433495     0.191315369143    12.000000000000
         H            0.003616727783     0.000166566505    -1.361062630857     1.007825032230
         H           -1.237967272217    -0.837118433495     1.296376369143     1.007825032230
         H           -1.352991272217    -1.738900433495    -0.235850630857     1.007825032230
         H            1.351451727783    -1.751834433495    -0.248707630857     1.007825032230
         H            1.266206727783    -0.836394433495     1.285827369143     1.007825032230
         H            0.813132727783     1.663505566505     0.091231369143     1.007825032230
         H           -2.211550272217     0.919025566505     0.028524369143     1.007825032230
         H            3.162997727783    -0.199085433495     0.178320369143     1.007825032230

  Basis Set: AUG-CC-PVTZ
    Blend: AUG-CC-PVTZ
  Basis Set: (AUG-CC-PVTZ AUX)
    Blend: AUG-CC-PVTZ-JKFIT
	 Reference Energy          =    -342.9651468656655879 [Eh]
	 Singles Energy            =      -0.0000000000000000 [Eh]
	 Same-Spin Energy          =      -0.3286150518884980 [Eh]
	 Opposite-Spin Energy      =      -1.0468318123574865 [Eh]
	 Correlation Energy        =      -1.3754468642459845 [Eh]
	 Total Energy              =    -344.3405937299115749 [Eh]

	 ================> DF-SCS-MP2 Energies <==================
	-----------------------------------------------------------
	 SCS Same-Spin Scale       =       0.3333333333333333 [-]
	 SCS Opposite-Spin Scale   =       1.2000000000000000 [-]
	 SCS Same-Spin Energy      =      -0.1095383506294993 [Eh]
	 SCS Opposite-Spin Energy  =      -1.2561981748289837 [Eh]
	 SCS Correlation Energy    =      -1.3657365254584830 [Eh]
	 SCS Total Energy          =    -344.3308833911240754 [Eh]
	-----------------------------------------------------------

  Dipole Moment: [D]
     X:     3.2207      Y:    -1.2899      Z:     0.9348     Total:     3.5931

*** Psi4 exiting successfully. Buy a developer a beer!
