                               Psi4 1.4a3.dev225

  ==> Input File <==

--------------------------------------------------------------------------
#psi4
#
memory 32 gb

molecule  {
0 1
  O       -0.0679500     1.2804190     0.2912780
  O       -2.4243340     0.0219370    -0.2318290
  O        2.3233720     0.1231770    -0.2581300
  C       -0.0125495    -0.0785317    -0.2906639
  C       -1.2865220    -0.7148500     0.1919400
  C        1.2539560    -0.7229870     0.1828220
  H       -0.0165930     0.0251350    -1.3695740
  H       -1.2581970    -0.8124860     1.2878120
  H       -1.3730900    -1.7140410    -0.2445610
  H        1.3311710    -1.7270150    -0.2570240
  H        1.2459170    -0.8113320     1.2773370
  H        0.7928980     1.6884400     0.0824910
  H       -2.2316880     0.9438100     0.0202110
  H        3.1428100    -0.1741490     0.1701570
units angstrom
no_reorient  #important for SAPT in psi4, default
symmetry c1  #important for SAPT in psi4, default
}

set PROPERTIES_ORIGIN ["COM"]
properties('MP2/aug-cc-pvtz', properties = ['dipole'])
--------------------------------------------------------------------------

    Molecular point group: c1
  Charge       = 0
  Multiplicity = 1
  Basis Set: AUG-CC-PVTZ
    Blend: AUG-CC-PVTZ
  Basis Set: (AUG-CC-PVTZ AUX)
    Blend: AUG-CC-PVTZ-JKFIT

    Orbital Energies [Eh]
    ---------------------

    Doubly Occupied:

       1A    -20.583523     2A    -20.557840     3A    -20.552306
       4A    -11.294951     5A    -11.285575     6A    -11.277787
       7A     -1.386486     8A     -1.361216     9A     -1.331321
      10A     -1.046229    11A     -0.922091    12A     -0.814936
      13A     -0.739854    14A     -0.698242    15A     -0.664134
      16A     -0.657088    17A     -0.611483    18A     -0.594794
      19A     -0.576387    20A     -0.542679    21A     -0.522076
      22A     -0.494565    23A     -0.472361    24A     -0.458872
      25A     -0.443545

  @DF-RHF Final Energy:  -342.96331575235718

   => Energetics <=

    Nuclear Repulsion Energy =            262.2623746959161508
    One-Electron Energy =                -990.6707018937562452
    Two-Electron Energy =                 385.4450114454829190
    Total Energy =                       -342.9633157523571754
  Basis Set: (AUG-CC-PVTZ AUX)
    Blend: AUG-CC-PVTZ-RI
    Molecular point group: c1

    Geometry (in Angstrom), charge = 0, multiplicity = 1:

       Center              X                  Y                   Z               Mass
    ------------   -----------------  -----------------  -----------------  -----------------
         O           -0.050599027283     1.258658298037     0.304252777474    15.994914619570
         O           -2.406983027283     0.000176298037    -0.218854222526    15.994914619570
         O            2.340722972717     0.101416298037    -0.245155222526    15.994914619570
         C            0.004801472717    -0.100292401963    -0.277689122526    12.000000000000
         C           -1.269171027283    -0.736610701963     0.204914777474    12.000000000000
         C            1.271306972717    -0.744747701963     0.195796777474    12.000000000000
         H            0.000757972717     0.003374298037    -1.356599222526     1.007825032230
         H           -1.240846027283    -0.834246701963     1.300786777474     1.007825032230
         H           -1.355739027283    -1.735801701963    -0.231586222526     1.007825032230
         H            1.348521972717    -1.748775701963    -0.244049222526     1.007825032230
         H            1.263267972717    -0.833092701963     1.290311777474     1.007825032230
         H            0.810248972717     1.666679298037     0.095465777474     1.007825032230
         H           -2.214337027283     0.922049298037     0.033185777474     1.007825032230
         H            3.160160972717    -0.195909701963     0.183131777474     1.007825032230

  Basis Set: AUG-CC-PVTZ
    Blend: AUG-CC-PVTZ
  Basis Set: (AUG-CC-PVTZ AUX)
    Blend: AUG-CC-PVTZ-JKFIT
	 Reference Energy          =    -342.9633157523571754 [Eh]
	 Singles Energy            =      -0.0000000000000000 [Eh]
	 Same-Spin Energy          =      -0.3286716541724030 [Eh]
	 Opposite-Spin Energy      =      -1.0472496952738450 [Eh]
	 Correlation Energy        =      -1.3759213494462479 [Eh]
	 Total Energy              =    -344.3392371018034055 [Eh]

	 ================> DF-SCS-MP2 Energies <==================
	-----------------------------------------------------------
	 SCS Same-Spin Scale       =       0.3333333333333333 [-]
	 SCS Opposite-Spin Scale   =       1.2000000000000000 [-]
	 SCS Same-Spin Energy      =      -0.1095572180574677 [Eh]
	 SCS Opposite-Spin Energy  =      -1.2566996343286141 [Eh]
	 SCS Correlation Energy    =      -1.3662568523860816 [Eh]
	 SCS Total Energy          =    -344.3295726047432481 [Eh]
	-----------------------------------------------------------

  Dipole Moment: [D]
     X:     3.1814      Y:    -1.4657      Z:     0.9129     Total:     3.6198

*** Psi4 exiting successfully. Buy a developer a beer!
