                               Psi4 1.4a3.dev225

  ==> Input File <==

--------------------------------------------------------------------------
#psi4
#
memory 32 gb

molecule  {
0 1
  O       -0.0679500     1.2804190     0.2912780
  O       -2.4243340     0.0219370    -0.2318290
  O        2.3233720     0.1231770    -0.2581300
  C       -0.0151710    -0.0142287    -0.2631275
  C       -1.2865220    -0.7148500     0.1919400
  C        1.2539560    -0.7229870     0.1828220
  H       -0.0165930     0.0251350    -1.3695740
  H       -1.2581970    -0.8124860     1.2878120
  H       -1.3730900    -1.7140410    -0.2445610
  H        1.3311710    -1.7270150    -0.2570240
  H        1.2459170    -0.8113320     1.2773370
  H        0.7928980     1.6884400     0.0824910
  H       -2.2316880     0.9438100     0.0202110
  H        3.1428100    -0.1741490     0.1701570
units angstrom
no_reorient  #important for SAPT in psi4, default
symmetry c1  #important for SAPT in psi4, default
}

set PROPERTIES_ORIGIN ["COM"]
properties('MP2/aug-cc-pvtz', properties = ['dipole'])
--------------------------------------------------------------------------

    Molecular point group: c1
  Charge       = 0
  Multiplicity = 1
  Basis Set: AUG-CC-PVTZ
    Blend: AUG-CC-PVTZ
  Basis Set: (AUG-CC-PVTZ AUX)
    Blend: AUG-CC-PVTZ-JKFIT

    Orbital Energies [Eh]
    ---------------------

    Doubly Occupied:

       1A    -20.582147     2A    -20.566071     3A    -20.550767
       4A    -11.292597     5A    -11.284699     6A    -11.275944
       7A     -1.394208     8A     -1.367049     9A     -1.342659
      10A     -1.036253    11A     -0.917083    12A     -0.815648
      13A     -0.743822    14A     -0.697676    15A     -0.668204
      16A     -0.661425    17A     -0.610678    18A     -0.595618
      19A     -0.578366    20A     -0.546693    21A     -0.532727
      22A     -0.493316    23A     -0.471505    24A     -0.451817
      25A     -0.436574

  @DF-RHF Final Energy:  -342.96652754897451

   => Energetics <=

    Nuclear Repulsion Energy =            262.7446856497365957
    One-Electron Energy =                -991.5953365101172494
    Two-Electron Energy =                 385.8841233114061993
    Total Energy =                       -342.9665275489745113
  Basis Set: (AUG-CC-PVTZ AUX)
    Blend: AUG-CC-PVTZ-RI
    Molecular point group: c1

    Geometry (in Angstrom), charge = 0, multiplicity = 1:

       Center              X                  Y                   Z               Mass
    ------------   -----------------  -----------------  -----------------  -----------------
         O           -0.050257268372     1.250275264203     0.300662920502    15.994914619570
         O           -2.406641268372    -0.008206735797    -0.222444079498    15.994914619570
         O            2.341064731628     0.093033264203    -0.248745079498    15.994914619570
         C            0.002521731628    -0.044372435797    -0.253742579498    12.000000000000
         C           -1.268829268372    -0.744993735797     0.201324920502    12.000000000000
         C            1.271648731628    -0.753130735797     0.192206920502    12.000000000000
         H            0.001099731628    -0.005008735797    -1.360189079498     1.007825032230
         H           -1.240504268372    -0.842629735797     1.297196920502     1.007825032230
         H           -1.355397268372    -1.744184735797    -0.235176079498     1.007825032230
         H            1.348863731628    -1.757158735797    -0.247639079498     1.007825032230
         H            1.263609731628    -0.841475735797     1.286721920502     1.007825032230
         H            0.810590731628     1.658296264203     0.091875920502     1.007825032230
         H           -2.213995268372     0.913666264203     0.029595920502     1.007825032230
         H            3.160502731628    -0.204292735797     0.179541920502     1.007825032230

  Basis Set: AUG-CC-PVTZ
    Blend: AUG-CC-PVTZ
  Basis Set: (AUG-CC-PVTZ AUX)
    Blend: AUG-CC-PVTZ-JKFIT
	 Reference Energy          =    -342.9665275489745113 [Eh]
	 Singles Energy            =      -0.0000000000000000 [Eh]
	 Same-Spin Energy          =      -0.3283413093934313 [Eh]
	 Opposite-Spin Energy      =      -1.0459630141733089 [Eh]
	 Correlation Energy        =      -1.3743043235667403 [Eh]
	 Total Energy              =    -344.3408318725412300 [Eh]

	 ================> DF-SCS-MP2 Energies <==================
	-----------------------------------------------------------
	 SCS Same-Spin Scale       =       0.3333333333333333 [-]
	 SCS Opposite-Spin Scale   =       1.2000000000000000 [-]
	 SCS Same-Spin Energy      =      -0.1094471031311438 [Eh]
	 SCS Opposite-Spin Energy  =      -1.2551556170079707 [Eh]
	 SCS Correlation Energy    =      -1.3646027201391144 [Eh]
	 SCS Total Energy          =    -344.3311302691136007 [Eh]
	-----------------------------------------------------------

  Dipole Moment: [D]
     X:     3.1828      Y:    -1.2623      Z:     0.9892     Total:     3.5640

*** Psi4 exiting successfully. Buy a developer a beer!
