                               Psi4 1.3.2 release

  ==> Input File <==

--------------------------------------------------------------------------
#psi4
#
memory 32 gb

molecule  {
0 1
  O       -0.1555338     1.2555397     0.3320878
  O       -2.4243090     0.0219280    -0.2318400
  O        2.3232750     0.1233060    -0.2580880
  C       -0.0144270    -0.0326130    -0.2709570
  C       -1.2865220    -0.7147970     0.1919500
  C        1.2539810    -0.7230840     0.1827990
  H       -0.0165290     0.0250030    -1.3695790
  H       -1.2581130    -0.8122820     1.2878600
  H       -1.3731370    -1.7140640    -0.2443670
  H        1.3313060    -1.7269980    -0.2572240
  H        1.2460610    -0.8115580     1.2773110
  H        0.7929870     1.6883420     0.0827150
  H       -2.2316960     0.9438620     0.0200080
  H        3.1428520    -0.1742490     0.1698040
units angstrom
no_reorient  #important for SAPT in psi4, default
symmetry c1  #important for SAPT in psi4, default
}

set PROPERTIES_ORIGIN ["COM"]
properties('MP2/aug-cc-pvtz', properties = ['dipole'])
--------------------------------------------------------------------------

    Molecular point group: c1
  Charge       = 0
  Multiplicity = 1
  Basis Set: AUG-CC-PVTZ
    Blend: AUG-CC-PVTZ
  Basis Set: (AUG-CC-PVTZ AUX)
    Blend: AUG-CC-PVTZ-JKFIT

    Orbital Energies [Eh]
    ---------------------

    Doubly Occupied:

       1A    -20.584830     2A    -20.574445     3A    -20.548168
       4A    -11.294777     5A    -11.283868     6A    -11.272969
       7A     -1.388268     8A     -1.363901     9A     -1.331134
      10A     -1.034909    11A     -0.917828    12A     -0.808786
      13A     -0.739613    14A     -0.695616    15A     -0.668517
      16A     -0.651243    17A     -0.607840    18A     -0.592377
      19A     -0.572276    20A     -0.542997    21A     -0.533824
      22A     -0.487497    23A     -0.473763    24A     -0.455388
      25A     -0.436645

  @DF-RHF Final Energy:  -342.95037188896072

   => Energetics <=

    Nuclear Repulsion Energy =            262.5001502391073132
    One-Electron Energy =                -991.1780850887039378
    Two-Electron Energy =                 385.7275629606358507
    Total Energy =                       -342.9503718889607171
  Basis Set: (AUG-CC-PVTZ AUX)
    Blend: AUG-CC-PVTZ-RI
    Molecular point group: c1

    Geometry (in Angstrom), charge = 0, multiplicity = 1:

       Center              X                  Y                   Z               Mass
    ------------   -----------------  -----------------  -----------------  -----------------
         O           -0.122715025201     1.232104152147     0.335401805556    15.994914619570
         O           -2.391490225201    -0.001507547853    -0.228525994444    15.994914619570
         O            2.356093774799     0.099870452147    -0.254773994444    15.994914619570
         C            0.018391774799    -0.056048547853    -0.267642994444    12.000000000000
         C           -1.253703225201    -0.738232547853     0.195264005556    12.000000000000
         C            1.286799774799    -0.746519547853     0.186113005556    12.000000000000
         H            0.016289774799     0.001567452147    -1.366264994444     1.007825032230
         H           -1.225294225201    -0.835717547853     1.291174005556     1.007825032230
         H           -1.340318225201    -1.737499547853    -0.241052994444     1.007825032230
         H            1.364124774799    -1.750433547853    -0.253909994444     1.007825032230
         H            1.278879774799    -0.834993547853     1.280625005556     1.007825032230
         H            0.825805774799     1.664906452147     0.086029005556     1.007825032230
         H           -2.198877225201     0.920426452147     0.023322005556     1.007825032230
         H            3.175670774799    -0.197684547853     0.173118005556     1.007825032230

  Basis Set: AUG-CC-PVTZ
    Blend: AUG-CC-PVTZ
  Basis Set: (AUG-CC-PVTZ AUX)
    Blend: AUG-CC-PVTZ-JKFIT
	 Reference Energy          =    -342.9503718889607171 [Eh]
	 Singles Energy            =      -0.0000000000000000 [Eh]
	 Same-Spin Energy          =      -0.3302290400512227 [Eh]
	 Opposite-Spin Energy      =      -1.0503910696105749 [Eh]
	 Correlation Energy        =      -1.3806201096617976 [Eh]
	 Total Energy              =    -344.3309919986224941 [Eh]

	 ================> DF-SCS-MP2 Energies <==================
	-----------------------------------------------------------
	 SCS Same-Spin Scale       =       0.3333333333333333 [-]
	 SCS Opposite-Spin Scale   =       1.2000000000000000 [-]
	 SCS Same-Spin Energy      =      -0.1100763466837409 [Eh]
	 SCS Opposite-Spin Energy  =      -1.2604692835326898 [Eh]
	 SCS Correlation Energy    =      -1.3705456302164307 [Eh]
	 SCS Total Energy          =    -344.3209175191771578 [Eh]
	-----------------------------------------------------------

  Dipole Moment: [D]
     X:     3.3843      Y:    -1.2472      Z:     0.9160     Total:     3.7213

*** Psi4 exiting successfully. Buy a developer a beer!
