                               Psi4 1.4a3.dev225

  ==> Input File <==

--------------------------------------------------------------------------
#psi4
#
memory 32 gb

molecule  {
0 1
  O       -0.0679500     1.2804190     0.2912780
  O       -2.4243340     0.0219370    -0.2318290
  O        2.3233720     0.1231770    -0.2581300
  C       -0.0144220    -0.0326010    -0.2709950
  C       -1.2865220    -0.7148500     0.1919400
  C        1.2539560    -0.7229870     0.1828220
  H       -0.0165930     0.0251350    -1.3695740
  H       -1.2581970    -0.8124860     1.2878120
  H       -1.3730900    -1.7140410    -0.2445610
  H        1.3311710    -1.7270150    -0.2570240
  H        1.2459170    -0.8113320     1.2773370
  H        0.7752443     1.6800726     0.0867727
  H       -2.2316880     0.9438100     0.0202110
  H        3.1428100    -0.1741490     0.1701570
units angstrom
no_reorient  #important for SAPT in psi4, default
symmetry c1  #important for SAPT in psi4, default
}

set PROPERTIES_ORIGIN ["COM"]
properties('MP2/aug-cc-pvtz', properties = ['dipole'])
--------------------------------------------------------------------------

    Molecular point group: c1
  Charge       = 0
  Multiplicity = 1
  Basis Set: AUG-CC-PVTZ
    Blend: AUG-CC-PVTZ
  Basis Set: (AUG-CC-PVTZ AUX)
    Blend: AUG-CC-PVTZ-JKFIT

    Orbital Energies [Eh]
    ---------------------

    Doubly Occupied:

       1A    -20.582391     2A    -20.562368     3A    -20.551342
       4A    -11.293364     5A    -11.285053     6A    -11.276574
       7A     -1.392564     8A     -1.366299     9A     -1.342183
      10A     -1.040161    11A     -0.918660    12A     -0.816603
      13A     -0.743866    14A     -0.698523    15A     -0.667954
      16A     -0.660758    17A     -0.611072    18A     -0.595707
      19A     -0.577993    20A     -0.546060    21A     -0.530872
      22A     -0.494311    23A     -0.471724    24A     -0.454975
      25A     -0.439058

  @DF-RHF Final Energy:  -342.96743196878634

   => Energetics <=

    Nuclear Repulsion Energy =            262.7197611797421928
    One-Electron Energy =                -991.5335146772199550
    Two-Electron Energy =                 385.8463215286914760
    Total Energy =                       -342.9674319687863431
  Basis Set: (AUG-CC-PVTZ AUX)
    Blend: AUG-CC-PVTZ-RI
    Molecular point group: c1

    Geometry (in Angstrom), charge = 0, multiplicity = 1:

       Center              X                  Y                   Z               Mass
    ------------   -----------------  -----------------  -----------------  -----------------
         O           -0.050161623671     1.252762033131     0.301641708064    15.994914619570
         O           -2.406545623671    -0.005719966869    -0.221465291936    15.994914619570
         O            2.341160376329     0.095520033131    -0.247766291936    15.994914619570
         C            0.003366376329    -0.060257966869    -0.260631291936    12.000000000000
         C           -1.268733623671    -0.742506966869     0.202303708064    12.000000000000
         C            1.271744376329    -0.750643966869     0.193185708064    12.000000000000
         H            0.001195376329    -0.002521966869    -1.359210291936     1.007825032230
         H           -1.240408623671    -0.840142966869     1.298175708064     1.007825032230
         H           -1.355301623671    -1.741697966869    -0.234197291936     1.007825032230
         H            1.348959376329    -1.754671966869    -0.246660291936     1.007825032230
         H            1.263705376329    -0.838988966869     1.287700708064     1.007825032230
         H            0.793032676329     1.652415633131     0.097136408064     1.007825032230
         H           -2.213899623671     0.916153033131     0.030574708064     1.007825032230
         H            3.160598376329    -0.201805966869     0.180520708064     1.007825032230

  Basis Set: AUG-CC-PVTZ
    Blend: AUG-CC-PVTZ
  Basis Set: (AUG-CC-PVTZ AUX)
    Blend: AUG-CC-PVTZ-JKFIT
	 Reference Energy          =    -342.9674319687863431 [Eh]
	 Singles Energy            =      -0.0000000000000000 [Eh]
	 Same-Spin Energy          =      -0.3281337666616261 [Eh]
	 Opposite-Spin Energy      =      -1.0456472761502931 [Eh]
	 Correlation Energy        =      -1.3737810428119190 [Eh]
	 Total Energy              =    -344.3412130115982563 [Eh]

	 ================> DF-SCS-MP2 Energies <==================
	-----------------------------------------------------------
	 SCS Same-Spin Scale       =       0.3333333333333333 [-]
	 SCS Opposite-Spin Scale   =       1.2000000000000000 [-]
	 SCS Same-Spin Energy      =      -0.1093779222205420 [Eh]
	 SCS Opposite-Spin Energy  =      -1.2547767313803517 [Eh]
	 SCS Correlation Energy    =      -1.3641546536008937 [Eh]
	 SCS Total Energy          =    -344.3315866223872490 [Eh]
	-----------------------------------------------------------

  Dipole Moment: [D]
     X:     3.1624      Y:    -1.3325      Z:     0.9688     Total:     3.5658

*** Psi4 exiting successfully. Buy a developer a beer!
