                               Psi4 1.3.2 release

  ==> Input File <==

--------------------------------------------------------------------------
#psi4
#
memory 32 gb

molecule  {
0 1
  O       -0.0679570     1.2803790     0.2912690
  O       -2.4243090     0.0219280    -0.2318400
  O        2.3232750     0.1233060    -0.2580880
  C       -0.0606719    -0.0407656    -0.2541073
  C       -1.2865220    -0.7147970     0.1919500
  C        1.2539810    -0.7230840     0.1827990
  H       -0.0165290     0.0250030    -1.3695790
  H       -1.2581130    -0.8122820     1.2878600
  H       -1.3731370    -1.7140640    -0.2443670
  H        1.3313060    -1.7269980    -0.2572240
  H        1.2460610    -0.8115580     1.2773110
  H        0.7929870     1.6883420     0.0827150
  H       -2.2316960     0.9438620     0.0200080
  H        3.1428520    -0.1742490     0.1698040
units angstrom
no_reorient  #important for SAPT in psi4, default
symmetry c1  #important for SAPT in psi4, default
}

set PROPERTIES_ORIGIN ["COM"]
properties('MP2/aug-cc-pvtz', properties = ['dipole'])
--------------------------------------------------------------------------

    Molecular point group: c1
  Charge       = 0
  Multiplicity = 1
  Basis Set: AUG-CC-PVTZ
    Blend: AUG-CC-PVTZ
  Basis Set: (AUG-CC-PVTZ AUX)
    Blend: AUG-CC-PVTZ-JKFIT

    Orbital Energies [Eh]
    ---------------------

    Doubly Occupied:

       1A    -20.582856     2A    -20.562707     3A    -20.551679
       4A    -11.294182     5A    -11.286653     6A    -11.275463
       7A     -1.389875     8A     -1.366171     9A     -1.340470
      10A     -1.041785    11A     -0.921237    12A     -0.814350
      13A     -0.741883    14A     -0.697391    15A     -0.667004
      16A     -0.661451    17A     -0.615003    18A     -0.594362
      19A     -0.579562    20A     -0.545740    21A     -0.525125
      22A     -0.498773    23A     -0.471717    24A     -0.447937
      25A     -0.440994

  @DF-RHF Final Energy:  -342.96402660376111

   => Energetics <=

    Nuclear Repulsion Energy =            262.7321817426325765
    One-Electron Energy =                -991.5636760711652187
    Two-Electron Energy =                 385.8674677247715863
    Total Energy =                       -342.9640266037611127
  Basis Set: (AUG-CC-PVTZ AUX)
    Blend: AUG-CC-PVTZ-RI
    Molecular point group: c1

    Geometry (in Angstrom), charge = 0, multiplicity = 1:

       Center              X                  Y                   Z               Mass
    ------------   -----------------  -----------------  -----------------  -----------------
         O           -0.044327459793     1.253690003765     0.299479364328    15.994914619570
         O           -2.400679459793    -0.004760996235    -0.223629635672    15.994914619570
         O            2.346904540207     0.096617003765    -0.249877635672    15.994914619570
         C           -0.037042359793    -0.067454596235    -0.245896935672    12.000000000000
         C           -1.262892459793    -0.741485996235     0.200160364328    12.000000000000
         C            1.277610540207    -0.749772996235     0.191009364328    12.000000000000
         H            0.007100540207    -0.001685996235    -1.361368635672     1.007825032230
         H           -1.234483459793    -0.838970996235     1.296070364328     1.007825032230
         H           -1.349507459793    -1.740752996235    -0.236156635672     1.007825032230
         H            1.354935540207    -1.753686996235    -0.249013635672     1.007825032230
         H            1.269690540207    -0.838246996235     1.285521364328     1.007825032230
         H            0.816616540207     1.661653003765     0.090925364328     1.007825032230
         H           -2.208066459793     0.917173003765     0.028218364328     1.007825032230
         H            3.166481540207    -0.200937996235     0.178014364328     1.007825032230

  Basis Set: AUG-CC-PVTZ
    Blend: AUG-CC-PVTZ
  Basis Set: (AUG-CC-PVTZ AUX)
    Blend: AUG-CC-PVTZ-JKFIT
	 Reference Energy          =    -342.9640266037611127 [Eh]
	 Singles Energy            =      -0.0000000000000000 [Eh]
	 Same-Spin Energy          =      -0.3284804023877044 [Eh]
	 Opposite-Spin Energy      =      -1.0462300781573732 [Eh]
	 Correlation Energy        =      -1.3747104805450776 [Eh]
	 Total Energy              =    -344.3387370843062172 [Eh]

	 ================> DF-SCS-MP2 Energies <==================
	-----------------------------------------------------------
	 SCS Same-Spin Scale       =       0.3333333333333333 [-]
	 SCS Opposite-Spin Scale   =       1.2000000000000000 [-]
	 SCS Same-Spin Energy      =      -0.1094934674625681 [Eh]
	 SCS Opposite-Spin Energy  =      -1.2554760937888478 [Eh]
	 SCS Correlation Energy    =      -1.3649695612514159 [Eh]
	 SCS Total Energy          =    -344.3289961650125406 [Eh]
	-----------------------------------------------------------

  Dipole Moment: [D]
     X:     3.1396      Y:    -1.3392      Z:     0.9764     Total:     3.5502

*** Psi4 exiting successfully. Buy a developer a beer!
