                               Psi4 1.4a3.dev225

  ==> Input File <==

--------------------------------------------------------------------------
#psi4
#
memory 32 gb

molecule  {
0 1
  O       -0.0679500     1.2804190     0.2912780
  O       -2.4243340     0.0219370    -0.2318290
  O        2.3233720     0.1231770    -0.2581300
  C       -0.0144220    -0.0326010    -0.2709950
  C       -1.2865220    -0.7148500     0.1919400
  C        1.2539560    -0.7229870     0.1828220
  H       -0.0165930     0.0251350    -1.3695740
  H       -1.2581970    -0.8124860     1.2878120
  H       -1.3730900    -1.7140410    -0.2445610
  H        1.3311710    -1.7270150    -0.2570240
  H        1.2459170    -0.8113320     1.2773370
  H        0.7928980     1.6884400     0.0824910
  H       -2.2415680     0.8965310     0.0072849
  H        3.1428100    -0.1741490     0.1701570
units angstrom
no_reorient  #important for SAPT in psi4, default
symmetry c1  #important for SAPT in psi4, default
}

set PROPERTIES_ORIGIN ["COM"]
properties('MP2/aug-cc-pvtz', properties = ['dipole'])
--------------------------------------------------------------------------

    Molecular point group: c1
  Charge       = 0
  Multiplicity = 1
  Basis Set: AUG-CC-PVTZ
    Blend: AUG-CC-PVTZ
  Basis Set: (AUG-CC-PVTZ AUX)
    Blend: AUG-CC-PVTZ-JKFIT

    Orbital Energies [Eh]
    ---------------------

    Doubly Occupied:

       1A    -20.582636     2A    -20.563409     3A    -20.547413
       4A    -11.293431     5A    -11.285033     6A    -11.277129
       7A     -1.391769     8A     -1.370373     9A     -1.346384
      10A     -1.040324    11A     -0.921310    12A     -0.817174
      13A     -0.744164    14A     -0.698400    15A     -0.668275
      16A     -0.665902    17A     -0.612242    18A     -0.595828
      19A     -0.579162    20A     -0.545442    21A     -0.530982
      22A     -0.496455    23A     -0.472084    24A     -0.454578
      25A     -0.440217

  @DF-RHF Final Energy:  -342.96716742789704

   => Energetics <=

    Nuclear Repulsion Energy =            262.8675999805691958
    One-Electron Energy =                -991.7893053885071595
    Two-Electron Energy =                 385.9545379800408682
    Total Energy =                       -342.9671674278970386
  Basis Set: (AUG-CC-PVTZ AUX)
    Blend: AUG-CC-PVTZ-RI
    Molecular point group: c1

    Geometry (in Angstrom), charge = 0, multiplicity = 1:

       Center              X                  Y                   Z               Mass
    ------------   -----------------  -----------------  -----------------  -----------------
         O           -0.050246737799     1.253188075673     0.301830116016    15.994914619570
         O           -2.406630737799    -0.005293924327    -0.221276883984    15.994914619570
         O            2.341075262201     0.095946075673    -0.247577883984    15.994914619570
         C            0.003281262201    -0.059831924327    -0.260442883984    12.000000000000
         C           -1.268818737799    -0.742080924327     0.202492116016    12.000000000000
         C            1.271659262201    -0.750217924327     0.193374116016    12.000000000000
         H            0.001110262201    -0.002095924327    -1.359021883984     1.007825032230
         H           -1.240493737799    -0.839716924327     1.298364116016     1.007825032230
         H           -1.355386737799    -1.741271924327    -0.234008883984     1.007825032230
         H            1.348874262201    -1.754245924327    -0.246471883984     1.007825032230
         H            1.263620262201    -0.838562924327     1.287889116016     1.007825032230
         H            0.810601262201     1.661209075673     0.093043116016     1.007825032230
         H           -2.223864737799     0.869300075673     0.017837016016     1.007825032230
         H            3.160513262201    -0.201379924327     0.180709116016     1.007825032230

  Basis Set: AUG-CC-PVTZ
    Blend: AUG-CC-PVTZ
  Basis Set: (AUG-CC-PVTZ AUX)
    Blend: AUG-CC-PVTZ-JKFIT
	 Reference Energy          =    -342.9671674278970386 [Eh]
	 Singles Energy            =      -0.0000000000000000 [Eh]
	 Same-Spin Energy          =      -0.3277778219388926 [Eh]
	 Opposite-Spin Energy      =      -1.0447921625665193 [Eh]
	 Correlation Energy        =      -1.3725699845054118 [Eh]
	 Total Energy              =    -344.3397374124024282 [Eh]

	 ================> DF-SCS-MP2 Energies <==================
	-----------------------------------------------------------
	 SCS Same-Spin Scale       =       0.3333333333333333 [-]
	 SCS Opposite-Spin Scale   =       1.2000000000000000 [-]
	 SCS Same-Spin Energy      =      -0.1092592739796309 [Eh]
	 SCS Opposite-Spin Energy  =      -1.2537505950798231 [Eh]
	 SCS Correlation Energy    =      -1.3630098690594539 [Eh]
	 SCS Total Energy          =    -344.3301772969564922 [Eh]
	-----------------------------------------------------------

  Dipole Moment: [D]
     X:     3.1772      Y:    -1.3741      Z:     0.9580     Total:     3.5917

*** Psi4 exiting successfully. Buy a developer a beer!
