                               Psi4 1.3.2 release

  ==> Input File <==

--------------------------------------------------------------------------
#psi4
#
memory 32 gb

molecule  {
0 1
  O       -0.0679570     1.2803790     0.2912690
  O       -2.4243090     0.0219280    -0.2318400
  O        2.3232750     0.1233060    -0.2580880
  C       -0.0144270    -0.0326130    -0.2709570
  C       -1.2064065    -0.7666723     0.2217905
  C        1.2539810    -0.7230840     0.1827990
  H       -0.0165290     0.0250030    -1.3695790
  H       -1.2581130    -0.8122820     1.2878600
  H       -1.3731370    -1.7140640    -0.2443670
  H        1.3313060    -1.7269980    -0.2572240
  H        1.2460610    -0.8115580     1.2773110
  H        0.7929870     1.6883420     0.0827150
  H       -2.2316960     0.9438620     0.0200080
  H        3.1428520    -0.1742490     0.1698040
units angstrom
no_reorient  #important for SAPT in psi4, default
symmetry c1  #important for SAPT in psi4, default
}

set PROPERTIES_ORIGIN ["COM"]
properties('MP2/aug-cc-pvtz', properties = ['dipole'])
--------------------------------------------------------------------------

    Molecular point group: c1
  Charge       = 0
  Multiplicity = 1
  Basis Set: AUG-CC-PVTZ
    Blend: AUG-CC-PVTZ
  Basis Set: (AUG-CC-PVTZ AUX)
    Blend: AUG-CC-PVTZ-JKFIT

    Orbital Energies [Eh]
    ---------------------

    Doubly Occupied:

       1A    -20.583352     2A    -20.565723     3A    -20.541483
       4A    -11.294438     5A    -11.287508     6A    -11.276469
       7A     -1.391169     8A     -1.360682     9A     -1.311374
      10A     -1.050587    11A     -0.922833    12A     -0.818193
      13A     -0.741975    14A     -0.701260    15A     -0.667521
      16A     -0.647665    17A     -0.606875    18A     -0.597197
      19A     -0.562363    20A     -0.548837    21A     -0.528249
      22A     -0.494890    23A     -0.473160    24A     -0.454104
      25A     -0.445929

  @DF-RHF Final Energy:  -342.95667550063274

   => Energetics <=

    Nuclear Repulsion Energy =            262.2144404726633979
    One-Electron Energy =                -990.5945561991295563
    Two-Electron Energy =                 385.4234402258333603
    Total Energy =                       -342.9566755006327412
  Basis Set: (AUG-CC-PVTZ AUX)
    Blend: AUG-CC-PVTZ-RI
    Molecular point group: c1

    Geometry (in Angstrom), charge = 0, multiplicity = 1:

       Center              X                  Y                   Z               Mass
    ------------   -----------------  -----------------  -----------------  -----------------
         O           -0.060800773766     1.259390031344     0.297785783688    15.994914619570
         O           -2.417152773766     0.000939031344    -0.225323216312    15.994914619570
         O            2.330431226234     0.102317031344    -0.251571216312    15.994914619570
         C           -0.007270773766    -0.053601968656    -0.264440216312    12.000000000000
         C           -1.199250273766    -0.787661268656     0.228307283688    12.000000000000
         C            1.261137226234    -0.744072968656     0.189315783688    12.000000000000
         H           -0.009372773766     0.004014031344    -1.363062216312     1.007825032230
         H           -1.250956773766    -0.833270968656     1.294376783688     1.007825032230
         H           -1.365980773766    -1.735052968656    -0.237850216312     1.007825032230
         H            1.338462226234    -1.747986968656    -0.250707216312     1.007825032230
         H            1.253217226234    -0.832546968656     1.283827783688     1.007825032230
         H            0.800143226234     1.667353031344     0.089231783688     1.007825032230
         H           -2.224539773766     0.922873031344     0.026524783688     1.007825032230
         H            3.150008226234    -0.195237968656     0.176320783688     1.007825032230

  Basis Set: AUG-CC-PVTZ
    Blend: AUG-CC-PVTZ
  Basis Set: (AUG-CC-PVTZ AUX)
    Blend: AUG-CC-PVTZ-JKFIT
	 Reference Energy          =    -342.9566755006327412 [Eh]
	 Singles Energy            =      -0.0000000000000000 [Eh]
	 Same-Spin Energy          =      -0.3289668217784836 [Eh]
	 Opposite-Spin Energy      =      -1.0485025745865382 [Eh]
	 Correlation Energy        =      -1.3774693963650217 [Eh]
	 Total Energy              =    -344.3341448969977705 [Eh]

	 ================> DF-SCS-MP2 Energies <==================
	-----------------------------------------------------------
	 SCS Same-Spin Scale       =       0.3333333333333333 [-]
	 SCS Opposite-Spin Scale   =       1.2000000000000000 [-]
	 SCS Same-Spin Energy      =      -0.1096556072594945 [Eh]
	 SCS Opposite-Spin Energy  =      -1.2582030895038459 [Eh]
	 SCS Correlation Energy    =      -1.3678586967633404 [Eh]
	 SCS Total Energy          =    -344.3245341973960763 [Eh]
	-----------------------------------------------------------

  Dipole Moment: [D]
     X:     3.4518      Y:    -1.4856      Z:     1.0526     Total:     3.9026

*** Psi4 exiting successfully. Buy a developer a beer!
