                               Psi4 1.3.2 release

  ==> Input File <==

--------------------------------------------------------------------------
#psi4
#
memory 32 gb

molecule  {
0 1
  O        0.0637634     1.3056147     0.2249708
  O       -2.4243090     0.0219280    -0.2318400
  O        2.3232750     0.1233060    -0.2580880
  C       -0.0144270    -0.0326130    -0.2709570
  C       -1.2865220    -0.7147970     0.1919500
  C        1.2539810    -0.7230840     0.1827990
  H       -0.0165290     0.0250030    -1.3695790
  H       -1.2581130    -0.8122820     1.2878600
  H       -1.3731370    -1.7140640    -0.2443670
  H        1.3313060    -1.7269980    -0.2572240
  H        1.2460610    -0.8115580     1.2773110
  H        0.7929870     1.6883420     0.0827150
  H       -2.2316960     0.9438620     0.0200080
  H        3.1428520    -0.1742490     0.1698040
units angstrom
no_reorient  #important for SAPT in psi4, default
symmetry c1  #important for SAPT in psi4, default
}

set PROPERTIES_ORIGIN ["COM"]
properties('MP2/aug-cc-pvtz', properties = ['dipole'])
--------------------------------------------------------------------------

    Molecular point group: c1
  Charge       = 0
  Multiplicity = 1
  Basis Set: AUG-CC-PVTZ
    Blend: AUG-CC-PVTZ
  Basis Set: (AUG-CC-PVTZ AUX)
    Blend: AUG-CC-PVTZ-JKFIT

    Orbital Energies [Eh]
    ---------------------

    Doubly Occupied:

       1A    -20.579054     2A    -20.555605     3A    -20.543649
       4A    -11.291353     5A    -11.288028     6A    -11.282206
       7A     -1.405895     8A     -1.367266     9A     -1.352437
      10A     -1.048711    11A     -0.919314    12A     -0.834018
      13A     -0.745858    14A     -0.703063    15A     -0.678136
      16A     -0.660809    17A     -0.615699    18A     -0.597394
      19A     -0.584287    20A     -0.545359    21A     -0.523587
      22A     -0.500492    23A     -0.468918    24A     -0.453503
      25A     -0.440574

  @DF-RHF Final Energy:  -342.94886079148864

   => Energetics <=

    Nuclear Repulsion Energy =            263.1211503001679262
    One-Electron Energy =                -992.1695950122859813
    Two-Electron Energy =                 386.0995839206293567
    Total Energy =                       -342.9488607914886416
  Basis Set: (AUG-CC-PVTZ AUX)
    Blend: AUG-CC-PVTZ-RI
    Molecular point group: c1

    Geometry (in Angstrom), charge = 0, multiplicity = 1:

       Center              X                  Y                   Z               Mass
    ------------   -----------------  -----------------  -----------------  -----------------
         O            0.058475263361     1.273477702287     0.246898349333    15.994914619570
         O           -2.429597136639    -0.010208997713    -0.209912450667    15.994914619570
         O            2.317986863361     0.091169002287    -0.236160450667    15.994914619570
         C           -0.019715136639    -0.064749997713    -0.249029450667    12.000000000000
         C           -1.291810136639    -0.746933997713     0.213877549333    12.000000000000
         C            1.248692863361    -0.755220997713     0.204726549333    12.000000000000
         H           -0.021817136639    -0.007133997713    -1.347651450667     1.007825032230
         H           -1.263401136639    -0.844418997713     1.309787549333     1.007825032230
         H           -1.378425136639    -1.746200997713    -0.222439450667     1.007825032230
         H            1.326017863361    -1.759134997713    -0.235296450667     1.007825032230
         H            1.240772863361    -0.843694997713     1.299238549333     1.007825032230
         H            0.787698863361     1.656205002287     0.104642549333     1.007825032230
         H           -2.236984136639     0.911725002287     0.041935549333     1.007825032230
         H            3.137563863361    -0.206385997713     0.191731549333     1.007825032230

  Basis Set: AUG-CC-PVTZ
    Blend: AUG-CC-PVTZ
  Basis Set: (AUG-CC-PVTZ AUX)
    Blend: AUG-CC-PVTZ-JKFIT
	 Reference Energy          =    -342.9488607914886416 [Eh]
	 Singles Energy            =      -0.0000000000000000 [Eh]
	 Same-Spin Energy          =      -0.3262092214908464 [Eh]
	 Opposite-Spin Energy      =      -1.0416018534967437 [Eh]
	 Correlation Energy        =      -1.3678110749875900 [Eh]
	 Total Energy              =    -344.3166718664762129 [Eh]

	 ================> DF-SCS-MP2 Energies <==================
	-----------------------------------------------------------
	 SCS Same-Spin Scale       =       0.3333333333333333 [-]
	 SCS Opposite-Spin Scale   =       1.2000000000000000 [-]
	 SCS Same-Spin Energy      =      -0.1087364071636154 [Eh]
	 SCS Opposite-Spin Energy  =      -1.2499222241960923 [Eh]
	 SCS Correlation Energy    =      -1.3586586313597078 [Eh]
	 SCS Total Energy          =    -344.3075194228483724 [Eh]
	-----------------------------------------------------------

  Dipole Moment: [D]
     X:     2.8606      Y:    -1.4526      Z:     1.0535     Total:     3.3768

*** Psi4 exiting successfully. Buy a developer a beer!
