                               Psi4 1.3.2 release

  ==> Input File <==

--------------------------------------------------------------------------
#psi4
#
memory 32 gb

molecule  {
0 1
  O       -0.0679570     1.2803790     0.2912690
  O       -2.5068346    -0.0819220    -0.1647392
  O        2.3232750     0.1233060    -0.2580880
  C       -0.0144270    -0.0326130    -0.2709570
  C       -1.2865220    -0.7147970     0.1919500
  C        1.2539810    -0.7230840     0.1827990
  H       -0.0165290     0.0250030    -1.3695790
  H       -1.2581130    -0.8122820     1.2878600
  H       -1.3731370    -1.7140640    -0.2443670
  H        1.3313060    -1.7269980    -0.2572240
  H        1.2460610    -0.8115580     1.2773110
  H        0.7929870     1.6883420     0.0827150
  H       -2.2316960     0.9438620     0.0200080
  H        3.1428520    -0.1742490     0.1698040
units angstrom
no_reorient  #important for SAPT in psi4, default
symmetry c1  #important for SAPT in psi4, default
}

set PROPERTIES_ORIGIN ["COM"]
properties('MP2/aug-cc-pvtz', properties = ['dipole'])
--------------------------------------------------------------------------

    Molecular point group: c1
  Charge       = 0
  Multiplicity = 1
  Basis Set: AUG-CC-PVTZ
    Blend: AUG-CC-PVTZ
  Basis Set: (AUG-CC-PVTZ AUX)
    Blend: AUG-CC-PVTZ-JKFIT

    Orbital Energies [Eh]
    ---------------------

    Doubly Occupied:

       1A    -20.584457     2A    -20.566823     3A    -20.561622
       4A    -11.295774     5A    -11.288612     6A    -11.274225
       7A     -1.392108     8A     -1.362695     9A     -1.330610
      10A     -1.039574    11A     -0.914473    12A     -0.813178
      13A     -0.741822    14A     -0.698594    15A     -0.669133
      16A     -0.644022    17A     -0.612427    18A     -0.597561
      19A     -0.568452    20A     -0.547384    21A     -0.531539
      22A     -0.491534    23A     -0.473435    24A     -0.457038
      25A     -0.436154

  @DF-RHF Final Energy:  -342.94933011518930

   => Energetics <=

    Nuclear Repulsion Energy =            261.0936892177237496
    One-Electron Energy =                -988.2995457799291898
    Two-Electron Energy =                 384.2565264470161424
    Total Energy =                       -342.9493301151892979
  Basis Set: (AUG-CC-PVTZ AUX)
    Blend: AUG-CC-PVTZ-RI
    Molecular point group: c1

    Geometry (in Angstrom), charge = 0, multiplicity = 1:

       Center              X                  Y                   Z               Mass
    ------------   -----------------  -----------------  -----------------  -----------------
         O           -0.036015963864     1.270673010698     0.290016025921    15.994914619570
         O           -2.474893563864    -0.091627989302    -0.165992174079    15.994914619570
         O            2.355216036136     0.113600010698    -0.259340974079    15.994914619570
         C            0.017514036136    -0.042318989302    -0.272209974079    12.000000000000
         C           -1.254580963864    -0.724502989302     0.190697025921    12.000000000000
         C            1.285922036136    -0.732789989302     0.181546025921    12.000000000000
         H            0.015412036136     0.015297010698    -1.370831974079     1.007825032230
         H           -1.226171963864    -0.821987989302     1.286607025921     1.007825032230
         H           -1.341195963864    -1.723769989302    -0.245619974079     1.007825032230
         H            1.363247036136    -1.736703989302    -0.258476974079     1.007825032230
         H            1.278002036136    -0.821263989302     1.276058025921     1.007825032230
         H            0.824928036136     1.678636010698     0.081462025921     1.007825032230
         H           -2.199754963864     0.934156010698     0.018755025921     1.007825032230
         H            3.174793036136    -0.183954989302     0.168551025921     1.007825032230

  Basis Set: AUG-CC-PVTZ
    Blend: AUG-CC-PVTZ
  Basis Set: (AUG-CC-PVTZ AUX)
    Blend: AUG-CC-PVTZ-JKFIT
	 Reference Energy          =    -342.9493301151892979 [Eh]
	 Singles Energy            =      -0.0000000000000000 [Eh]
	 Same-Spin Energy          =      -0.3298613924411754 [Eh]
	 Opposite-Spin Energy      =      -1.0501850661559637 [Eh]
	 Correlation Energy        =      -1.3800464585971390 [Eh]
	 Total Energy              =    -344.3293765737864192 [Eh]

	 ================> DF-SCS-MP2 Energies <==================
	-----------------------------------------------------------
	 SCS Same-Spin Scale       =       0.3333333333333333 [-]
	 SCS Opposite-Spin Scale   =       1.2000000000000000 [-]
	 SCS Same-Spin Energy      =      -0.1099537974803918 [Eh]
	 SCS Opposite-Spin Energy  =      -1.2602220793871564 [Eh]
	 SCS Correlation Energy    =      -1.3701758768675480 [Eh]
	 SCS Total Energy          =    -344.3195059920568610 [Eh]
	-----------------------------------------------------------

  Dipole Moment: [D]
     X:     3.3876      Y:    -1.1319      Z:     0.7858     Total:     3.6571

*** Psi4 exiting successfully. Buy a developer a beer!
