                               Psi4 1.3.2 release

  ==> Input File <==

--------------------------------------------------------------------------
#psi4
#
memory 32 gb

molecule  {
0 1
  O       -0.0679570     1.2803790     0.2912690
  O       -2.4243090     0.0219280    -0.2318400
  O        2.3232750     0.1233060    -0.2580880
  C        0.0778110    -0.0115206    -0.3025818
  C       -1.2865220    -0.7147970     0.1919500
  C        1.2539810    -0.7230840     0.1827990
  H       -0.0165290     0.0250030    -1.3695790
  H       -1.2581130    -0.8122820     1.2878600
  H       -1.3731370    -1.7140640    -0.2443670
  H        1.3313060    -1.7269980    -0.2572240
  H        1.2460610    -0.8115580     1.2773110
  H        0.7929870     1.6883420     0.0827150
  H       -2.2316960     0.9438620     0.0200080
  H        3.1428520    -0.1742490     0.1698040
units angstrom
no_reorient  #important for SAPT in psi4, default
symmetry c1  #important for SAPT in psi4, default
}

set PROPERTIES_ORIGIN ["COM"]
properties('MP2/aug-cc-pvtz', properties = ['dipole'])
--------------------------------------------------------------------------

    Molecular point group: c1
  Charge       = 0
  Multiplicity = 1
  Basis Set: AUG-CC-PVTZ
    Blend: AUG-CC-PVTZ
  Basis Set: (AUG-CC-PVTZ AUX)
    Blend: AUG-CC-PVTZ-JKFIT

    Orbital Energies [Eh]
    ---------------------

    Doubly Occupied:

       1A    -20.581790     2A    -20.566389     3A    -20.550449
       4A    -11.291626     5A    -11.282452     6A    -11.277474
       7A     -1.393707     8A     -1.364046     9A     -1.340138
      10A     -1.038966    11A     -0.910968    12A     -0.817308
      13A     -0.743740    14A     -0.699816    15A     -0.668083
      16A     -0.656707    17A     -0.608500    18A     -0.592988
      19A     -0.574453    20A     -0.547231    21A     -0.538269
      22A     -0.485252    23A     -0.471245    24A     -0.466085
      25A     -0.424950

  @DF-RHF Final Energy:  -342.95504403430436

   => Energetics <=

    Nuclear Repulsion Energy =            262.4361665299286415
    One-Electron Energy =                -990.9971570981384730
    Two-Electron Energy =                 385.6059465339054668
    Total Energy =                       -342.9550440343043647
  Basis Set: (AUG-CC-PVTZ AUX)
    Blend: AUG-CC-PVTZ-RI
    Molecular point group: c1

    Geometry (in Angstrom), charge = 0, multiplicity = 1:

       Center              X                  Y                   Z               Mass
    ------------   -----------------  -----------------  -----------------  -----------------
         O           -0.062381156138     1.249877400552     0.305798873116    15.994914619570
         O           -2.418733156138    -0.008573599448    -0.217310126884    15.994914619570
         O            2.328850843862     0.092804400552    -0.243558126884    15.994914619570
         C            0.083386843862    -0.042022199448    -0.288051926884    12.000000000000
         C           -1.280946156138    -0.745298599448     0.206479873116    12.000000000000
         C            1.259556843862    -0.753585599448     0.197328873116    12.000000000000
         H           -0.010953156138    -0.005498599448    -1.355049126884     1.007825032230
         H           -1.252537156138    -0.842783599448     1.302389873116     1.007825032230
         H           -1.367561156138    -1.744565599448    -0.229837126884     1.007825032230
         H            1.336881843862    -1.757499599448    -0.242694126884     1.007825032230
         H            1.251636843862    -0.842059599448     1.291840873116     1.007825032230
         H            0.798562843862     1.657840400552     0.097244873116     1.007825032230
         H           -2.226120156138     0.913360400552     0.034537873116     1.007825032230
         H            3.148427843862    -0.204750599448     0.184333873116     1.007825032230

  Basis Set: AUG-CC-PVTZ
    Blend: AUG-CC-PVTZ
  Basis Set: (AUG-CC-PVTZ AUX)
    Blend: AUG-CC-PVTZ-JKFIT
	 Reference Energy          =    -342.9550440343043647 [Eh]
	 Singles Energy            =      -0.0000000000000000 [Eh]
	 Same-Spin Energy          =      -0.3290282343458397 [Eh]
	 Opposite-Spin Energy      =      -1.0477337224269614 [Eh]
	 Correlation Energy        =      -1.3767619567728011 [Eh]
	 Total Energy              =    -344.3318059910771467 [Eh]

	 ================> DF-SCS-MP2 Energies <==================
	-----------------------------------------------------------
	 SCS Same-Spin Scale       =       0.3333333333333333 [-]
	 SCS Opposite-Spin Scale   =       1.2000000000000000 [-]
	 SCS Same-Spin Energy      =      -0.1096760781152799 [Eh]
	 SCS Opposite-Spin Energy  =      -1.2572804669123536 [Eh]
	 SCS Correlation Energy    =      -1.3669565450276335 [Eh]
	 SCS Total Energy          =    -344.3220005793319842 [Eh]
	-----------------------------------------------------------

  Dipole Moment: [D]
     X:     3.2502      Y:    -1.2853      Z:     0.9542     Total:     3.6230

*** Psi4 exiting successfully. Buy a developer a beer!
