                               Psi4 1.3.2 release

  ==> Input File <==

--------------------------------------------------------------------------
#psi4
#
memory 32 gb

molecule  {
0 1
  O       -0.0679570     1.2803790     0.2912690
  O       -2.4243090     0.0219280    -0.2318400
  O        2.3232750     0.1233060    -0.2580880
  C       -0.0144270    -0.0326130    -0.2709570
  C       -1.2865220    -0.7147970     0.1919500
  C        1.2539810    -0.7230840     0.1827990
  H       -0.0165290     0.0250030    -1.3695790
  H       -1.2581130    -0.8122820     1.2878600
  H       -1.3731370    -1.7140640    -0.2443670
  H        1.3313060    -1.7269980    -0.2572240
  H        1.2460610    -0.8115580     1.2773110
  H        0.7929870     1.6883420     0.0827150
  H       -2.1921828     1.1329901     0.0716728
  H        3.1428520    -0.1742490     0.1698040
units angstrom
no_reorient  #important for SAPT in psi4, default
symmetry c1  #important for SAPT in psi4, default
}

set PROPERTIES_ORIGIN ["COM"]
properties('MP2/aug-cc-pvtz', properties = ['dipole'])
--------------------------------------------------------------------------

    Molecular point group: c1
  Charge       = 0
  Multiplicity = 1
  Basis Set: AUG-CC-PVTZ
    Blend: AUG-CC-PVTZ
  Basis Set: (AUG-CC-PVTZ AUX)
    Blend: AUG-CC-PVTZ-JKFIT

    Orbital Energies [Eh]
    ---------------------

    Doubly Occupied:

       1A    -20.582265     2A    -20.565386     3A    -20.561134
       4A    -11.292744     5A    -11.283939     6A    -11.273885
       7A     -1.390093     8A     -1.360241     9A     -1.312808
      10A     -1.035738    11A     -0.910502    12A     -0.809384
      13A     -0.738359    14A     -0.696385    15A     -0.667047
      16A     -0.635814    17A     -0.602165    18A     -0.591642
      19A     -0.571829    20A     -0.545505    21A     -0.526036
      22A     -0.481232    23A     -0.469326    24A     -0.453903
      25A     -0.433277

  @DF-RHF Final Energy:  -342.93125453155488

   => Energetics <=

    Nuclear Repulsion Energy =            261.7491730851094758
    One-Electron Energy =                -989.7795757651387021
    Two-Electron Energy =                 385.0991481484743986
    Total Energy =                       -342.9312545315548846
  Basis Set: (AUG-CC-PVTZ AUX)
    Blend: AUG-CC-PVTZ-RI
    Molecular point group: c1

    Geometry (in Angstrom), charge = 0, multiplicity = 1:

       Center              X                  Y                   Z               Mass
    ------------   -----------------  -----------------  -----------------  -----------------
         O           -0.050788930222     1.250556407286     0.301110343720    15.994914619570
         O           -2.407140930222    -0.007894592714    -0.221998656280    15.994914619570
         O            2.340443069778     0.093483407286    -0.248246656280    15.994914619570
         C            0.002741069778    -0.062435592714    -0.261115656280    12.000000000000
         C           -1.269353930222    -0.744619592714     0.201791343720    12.000000000000
         C            1.271149069778    -0.752906592714     0.192640343720    12.000000000000
         H            0.000639069778    -0.004819592714    -1.359737656280     1.007825032230
         H           -1.240944930222    -0.842104592714     1.297701343720     1.007825032230
         H           -1.355968930222    -1.743886592714    -0.234525656280     1.007825032230
         H            1.348474069778    -1.756820592714    -0.247382656280     1.007825032230
         H            1.263229069778    -0.841380592714     1.287152343720     1.007825032230
         H            0.810155069778     1.658519407286     0.092556343720     1.007825032230
         H           -2.175014730222     1.103167507286     0.081514143720     1.007825032230
         H            3.160020069778    -0.204071592714     0.179645343720     1.007825032230

  Basis Set: AUG-CC-PVTZ
    Blend: AUG-CC-PVTZ
  Basis Set: (AUG-CC-PVTZ AUX)
    Blend: AUG-CC-PVTZ-JKFIT
	 Reference Energy          =    -342.9312545315548846 [Eh]
	 Singles Energy            =      -0.0000000000000000 [Eh]
	 Same-Spin Energy          =      -0.3308335576548586 [Eh]
	 Opposite-Spin Energy      =      -1.0528774309729032 [Eh]
	 Correlation Energy        =      -1.3837109886277619 [Eh]
	 Total Energy              =    -344.3149655201826249 [Eh]

	 ================> DF-SCS-MP2 Energies <==================
	-----------------------------------------------------------
	 SCS Same-Spin Scale       =       0.3333333333333333 [-]
	 SCS Opposite-Spin Scale   =       1.2000000000000000 [-]
	 SCS Same-Spin Energy      =      -0.1102778525516195 [Eh]
	 SCS Opposite-Spin Energy  =      -1.2634529171674838 [Eh]
	 SCS Correlation Energy    =      -1.3737307697191032 [Eh]
	 SCS Total Energy          =    -344.3049853012739732 [Eh]
	-----------------------------------------------------------

  Dipole Moment: [D]
     X:     3.2368      Y:    -1.1237      Z:     1.0004     Total:     3.5694

*** Psi4 exiting successfully. Buy a developer a beer!
