                               Psi4 1.3.2 release

  ==> Input File <==

--------------------------------------------------------------------------
#psi4
#
memory 32 gb

molecule  {
0 1
  O       -0.0675551     1.2703747     0.3141173
  O       -2.4243090     0.0219280    -0.2318400
  O        2.3232750     0.1233060    -0.2580880
  C       -0.0144270    -0.0326130    -0.2709570
  C       -1.2865220    -0.7147970     0.1919500
  C        1.2539810    -0.7230840     0.1827990
  H       -0.0165290     0.0250030    -1.3695790
  H       -1.2581130    -0.8122820     1.2878600
  H       -1.3731370    -1.7140640    -0.2443670
  H        1.3313060    -1.7269980    -0.2572240
  H        1.2460610    -0.8115580     1.2773110
  H        0.7929870     1.6883420     0.0827150
  H       -2.2316960     0.9438620     0.0200080
  H        3.1428520    -0.1742490     0.1698040
units angstrom
no_reorient  #important for SAPT in psi4, default
symmetry c1  #important for SAPT in psi4, default
}

set PROPERTIES_ORIGIN ["COM"]
properties('MP2/aug-cc-pvtz', properties = ['dipole'])
--------------------------------------------------------------------------

    Molecular point group: c1
  Charge       = 0
  Multiplicity = 1
  Basis Set: AUG-CC-PVTZ
    Blend: AUG-CC-PVTZ
  Basis Set: (AUG-CC-PVTZ AUX)
    Blend: AUG-CC-PVTZ-JKFIT

    Orbital Energies [Eh]
    ---------------------

    Doubly Occupied:

       1A    -20.582364     2A    -20.564898     3A    -20.551150
       4A    -11.292773     5A    -11.284723     6A    -11.276088
       7A     -1.390389     8A     -1.364810     9A     -1.339683
      10A     -1.038447    11A     -0.918259    12A     -0.814193
      13A     -0.742450    14A     -0.697790    15A     -0.666243
      16A     -0.659102    17A     -0.610807    18A     -0.595063
      19A     -0.576913    20A     -0.544247    21A     -0.530812
      22A     -0.493436    23A     -0.471644    24A     -0.454194
      25A     -0.439144

  @DF-RHF Final Energy:  -342.96557988319307

   => Energetics <=

    Nuclear Repulsion Energy =            262.6445741160400189
    One-Electron Energy =                -991.4210632814338169
    Two-Electron Energy =                 385.8109092822006687
    Total Energy =                       -342.9655798831930724
  Basis Set: (AUG-CC-PVTZ AUX)
    Blend: AUG-CC-PVTZ-RI
    Molecular point group: c1

    Geometry (in Angstrom), charge = 0, multiplicity = 1:

       Center              X                  Y                   Z               Mass
    ------------   -----------------  -----------------  -----------------  -----------------
         O           -0.050024238267     1.244361298753     0.320554009594    15.994914619570
         O           -2.406778138267    -0.004085401247    -0.225403290406    15.994914619570
         O            2.340805861733     0.097292598753    -0.251651290406    15.994914619570
         C            0.003103861733    -0.058626401247    -0.264520290406    12.000000000000
         C           -1.268991138267    -0.740810401247     0.198386709594    12.000000000000
         C            1.271511861733    -0.749097401247     0.189235709594    12.000000000000
         H            0.001001861733    -0.001010401247    -1.363142290406     1.007825032230
         H           -1.240582138267    -0.838295401247     1.294296709594     1.007825032230
         H           -1.355606138267    -1.740077401247    -0.237930290406     1.007825032230
         H            1.348836861733    -1.753011401247    -0.250787290406     1.007825032230
         H            1.263591861733    -0.837571401247     1.283747709594     1.007825032230
         H            0.810517861733     1.662328598753     0.089151709594     1.007825032230
         H           -2.214165138267     0.917848598753     0.026444709594     1.007825032230
         H            3.160382861733    -0.200262401247     0.176240709594     1.007825032230

  Basis Set: AUG-CC-PVTZ
    Blend: AUG-CC-PVTZ
  Basis Set: (AUG-CC-PVTZ AUX)
    Blend: AUG-CC-PVTZ-JKFIT
	 Reference Energy          =    -342.9655798831930724 [Eh]
	 Singles Energy            =      -0.0000000000000000 [Eh]
	 Same-Spin Energy          =      -0.3285777951434238 [Eh]
	 Opposite-Spin Energy      =      -1.0466568320960212 [Eh]
	 Correlation Energy        =      -1.3752346272394451 [Eh]
	 Total Energy              =    -344.3408145104324944 [Eh]

	 ================> DF-SCS-MP2 Energies <==================
	-----------------------------------------------------------
	 SCS Same-Spin Scale       =       0.3333333333333333 [-]
	 SCS Opposite-Spin Scale   =       1.2000000000000000 [-]
	 SCS Same-Spin Energy      =      -0.1095259317144746 [Eh]
	 SCS Opposite-Spin Energy  =      -1.2559881985152255 [Eh]
	 SCS Correlation Energy    =      -1.3655141302297000 [Eh]
	 SCS Total Energy          =    -344.3310940134227849 [Eh]
	-----------------------------------------------------------

  Dipole Moment: [D]
     X:     3.1751      Y:    -1.2925      Z:     0.9209     Total:     3.5496

*** Psi4 exiting successfully. Buy a developer a beer!
