                               Psi4 1.3.2 release

  ==> Input File <==

--------------------------------------------------------------------------
#psi4
#
memory 32 gb

molecule  {
0 1
  O       -0.0653054     1.2144650     0.4255481
  O       -2.4243090     0.0219280    -0.2318400
  O        2.3232750     0.1233060    -0.2580880
  C       -0.0144270    -0.0326130    -0.2709570
  C       -1.2865220    -0.7147970     0.1919500
  C        1.2539810    -0.7230840     0.1827990
  H       -0.0165290     0.0250030    -1.3695790
  H       -1.2581130    -0.8122820     1.2878600
  H       -1.3731370    -1.7140640    -0.2443670
  H        1.3313060    -1.7269980    -0.2572240
  H        1.2460610    -0.8115580     1.2773110
  H        0.7929870     1.6883420     0.0827150
  H       -2.2316960     0.9438620     0.0200080
  H        3.1428520    -0.1742490     0.1698040
units angstrom
no_reorient  #important for SAPT in psi4, default
symmetry c1  #important for SAPT in psi4, default
}

set PROPERTIES_ORIGIN ["COM"]
properties('MP2/aug-cc-pvtz', properties = ['dipole'])
--------------------------------------------------------------------------

    Molecular point group: c1
  Charge       = 0
  Multiplicity = 1
  Basis Set: AUG-CC-PVTZ
    Blend: AUG-CC-PVTZ
  Basis Set: (AUG-CC-PVTZ AUX)
    Blend: AUG-CC-PVTZ-JKFIT

    Orbital Energies [Eh]
    ---------------------

    Doubly Occupied:

       1A    -20.581507     2A    -20.571056     3A    -20.550995
       4A    -11.290343     5A    -11.284440     6A    -11.274342
       7A     -1.388205     8A     -1.363067     9A     -1.335795
      10A     -1.034598    11A     -0.917194    12A     -0.809998
      13A     -0.740776    14A     -0.697055    15A     -0.664971
      16A     -0.651932    17A     -0.610962    18A     -0.594648
      19A     -0.573166    20A     -0.538309    21A     -0.534588
      22A     -0.490271    23A     -0.471463    24A     -0.453067
      25A     -0.439914

  @DF-RHF Final Energy:  -342.95531054810897

   => Energetics <=

    Nuclear Repulsion Energy =            262.8316850489094918
    One-Electron Energy =                -991.8486684259230515
    Two-Electron Energy =                 386.0616728289045341
    Total Energy =                       -342.9553105481089688
  Basis Set: (AUG-CC-PVTZ AUX)
    Blend: AUG-CC-PVTZ-RI
    Molecular point group: c1

    Geometry (in Angstrom), charge = 0, multiplicity = 1:

       Center              X                  Y                   Z               Mass
    ------------   -----------------  -----------------  -----------------  -----------------
         O           -0.048165464912     1.198166934774     0.412621663931    15.994914619570
         O           -2.407169064912     0.005629934774    -0.244766436069    15.994914619570
         O            2.340414935088     0.107007934774    -0.271014436069    15.994914619570
         C            0.002712935088    -0.048911065226    -0.283883436069    12.000000000000
         C           -1.269382064912    -0.731095065226     0.179023563931    12.000000000000
         C            1.271120935088    -0.739382065226     0.169872563931    12.000000000000
         H            0.000610935088     0.008704934774    -1.382505436069     1.007825032230
         H           -1.240973064912    -0.828580065226     1.274933563931     1.007825032230
         H           -1.355997064912    -1.730362065226    -0.257293436069     1.007825032230
         H            1.348445935088    -1.743296065226    -0.270150436069     1.007825032230
         H            1.263200935088    -0.827856065226     1.264384563931     1.007825032230
         H            0.810126935088     1.672043934774     0.069788563931     1.007825032230
         H           -2.214556064912     0.927563934774     0.007081563931     1.007825032230
         H            3.159991935088    -0.190547065226     0.156877563931     1.007825032230

  Basis Set: AUG-CC-PVTZ
    Blend: AUG-CC-PVTZ
  Basis Set: (AUG-CC-PVTZ AUX)
    Blend: AUG-CC-PVTZ-JKFIT
	 Reference Energy          =    -342.9553105481089688 [Eh]
	 Singles Energy            =      -0.0000000000000000 [Eh]
	 Same-Spin Energy          =      -0.3296880981843201 [Eh]
	 Opposite-Spin Energy      =      -1.0491959424207502 [Eh]
	 Correlation Energy        =      -1.3788840406050702 [Eh]
	 Total Energy              =    -344.3341945887140128 [Eh]

	 ================> DF-SCS-MP2 Energies <==================
	-----------------------------------------------------------
	 SCS Same-Spin Scale       =       0.3333333333333333 [-]
	 SCS Opposite-Spin Scale   =       1.2000000000000000 [-]
	 SCS Same-Spin Energy      =      -0.1098960327281067 [Eh]
	 SCS Opposite-Spin Energy  =      -1.2590351309049002 [Eh]
	 SCS Correlation Energy    =      -1.3689311636330068 [Eh]
	 SCS Total Energy          =    -344.3242417117419905 [Eh]
	-----------------------------------------------------------

  Dipole Moment: [D]
     X:     3.1306      Y:    -1.1340      Z:     0.7153     Total:     3.4057

*** Psi4 exiting successfully. Buy a developer a beer!
