                               Psi4 1.3.2 release

  ==> Input File <==

--------------------------------------------------------------------------
#psi4
#
memory 32 gb

molecule  {
0 1
  O       -0.0898924     1.2747647     0.3017385
  O       -2.4243090     0.0219280    -0.2318400
  O        2.3232750     0.1233060    -0.2580880
  C       -0.0144270    -0.0326130    -0.2709570
  C       -1.2865220    -0.7147970     0.1919500
  C        1.2539810    -0.7230840     0.1827990
  H       -0.0165290     0.0250030    -1.3695790
  H       -1.2581130    -0.8122820     1.2878600
  H       -1.3731370    -1.7140640    -0.2443670
  H        1.3313060    -1.7269980    -0.2572240
  H        1.2460610    -0.8115580     1.2773110
  H        0.7929870     1.6883420     0.0827150
  H       -2.2316960     0.9438620     0.0200080
  H        3.1428520    -0.1742490     0.1698040
units angstrom
no_reorient  #important for SAPT in psi4, default
symmetry c1  #important for SAPT in psi4, default
}

set PROPERTIES_ORIGIN ["COM"]
properties('MP2/aug-cc-pvtz', properties = ['dipole'])
--------------------------------------------------------------------------

    Molecular point group: c1
  Charge       = 0
  Multiplicity = 1
  Basis Set: AUG-CC-PVTZ
    Blend: AUG-CC-PVTZ
  Basis Set: (AUG-CC-PVTZ AUX)
    Blend: AUG-CC-PVTZ-JKFIT

    Orbital Energies [Eh]
    ---------------------

    Doubly Occupied:

       1A    -20.583112     2A    -20.566632     3A    -20.550443
       4A    -11.293623     5A    -11.284452     6A    -11.275523
       7A     -1.389827     8A     -1.364784     9A     -1.338024
      10A     -1.037918    11A     -0.918318    12A     -0.813176
      13A     -0.741835    14A     -0.697185    15A     -0.667071
      16A     -0.657856    17A     -0.609950    18A     -0.594421
      19A     -0.576361    20A     -0.545065    21A     -0.531125
      22A     -0.492386    23A     -0.472303    24A     -0.454595
      25A     -0.438268

  @DF-RHF Final Energy:  -342.96401993268802

   => Energetics <=

    Nuclear Repulsion Energy =            262.5635012067679668
    One-Electron Energy =                -991.2665324380926677
    Two-Electron Energy =                 385.7390112986367399
    Total Energy =                       -342.9640199326880179
  Basis Set: (AUG-CC-PVTZ AUX)
    Blend: AUG-CC-PVTZ-RI
    Molecular point group: c1

    Geometry (in Angstrom), charge = 0, multiplicity = 1:

       Center              X                  Y                   Z               Mass
    ------------   -----------------  -----------------  -----------------  -----------------
         O           -0.068480022622     1.247988455720     0.310326253179    15.994914619570
         O           -2.402896622622    -0.004848244280    -0.223252246821    15.994914619570
         O            2.344687377378     0.096529755720    -0.249500246821    15.994914619570
         C            0.006985377378    -0.059389244280    -0.262369246821    12.000000000000
         C           -1.265109622622    -0.741573244280     0.200537753179    12.000000000000
         C            1.275393377378    -0.749860244280     0.191386753179    12.000000000000
         H            0.004883377378    -0.001773244280    -1.360991246821     1.007825032230
         H           -1.236700622622    -0.839058244280     1.296447753179     1.007825032230
         H           -1.351724622622    -1.740840244280    -0.235779246821     1.007825032230
         H            1.352718377378    -1.753774244280    -0.248636246821     1.007825032230
         H            1.267473377378    -0.838334244280     1.285898753179     1.007825032230
         H            0.814399377378     1.661565755720     0.091302753179     1.007825032230
         H           -2.210283622622     0.917085755720     0.028595753179     1.007825032230
         H            3.164264377378    -0.201025244280     0.178391753179     1.007825032230

  Basis Set: AUG-CC-PVTZ
    Blend: AUG-CC-PVTZ
  Basis Set: (AUG-CC-PVTZ AUX)
    Blend: AUG-CC-PVTZ-JKFIT
	 Reference Energy          =    -342.9640199326880179 [Eh]
	 Singles Energy            =      -0.0000000000000000 [Eh]
	 Same-Spin Energy          =      -0.3288367608218746 [Eh]
	 Opposite-Spin Energy      =      -1.0472320557143036 [Eh]
	 Correlation Energy        =      -1.3760688165361783 [Eh]
	 Total Energy              =    -344.3400887492242077 [Eh]

	 ================> DF-SCS-MP2 Energies <==================
	-----------------------------------------------------------
	 SCS Same-Spin Scale       =       0.3333333333333333 [-]
	 SCS Opposite-Spin Scale   =       1.2000000000000000 [-]
	 SCS Same-Spin Energy      =      -0.1096122536072915 [Eh]
	 SCS Opposite-Spin Energy  =      -1.2566784668571642 [Eh]
	 SCS Correlation Energy    =      -1.3662907204644559 [Eh]
	 SCS Total Energy          =    -344.3303106531524804 [Eh]
	-----------------------------------------------------------

  Dipole Moment: [D]
     X:     3.2347      Y:    -1.3028      Z:     0.9524     Total:     3.6149

*** Psi4 exiting successfully. Buy a developer a beer!
