                               Psi4 1.3.2 release

  ==> Input File <==

--------------------------------------------------------------------------
#psi4
#
memory 32 gb

molecule  {
0 1
  O       -0.0679570     1.2803790     0.2912690
  O       -2.4243090     0.0219280    -0.2318400
  O        2.3232750     0.1233060    -0.2580880
  C       -0.0144270    -0.0326130    -0.2709570
  C       -1.2970006    -0.7355322     0.1833114
  C        1.2539810    -0.7230840     0.1827990
  H       -0.0165290     0.0250030    -1.3695790
  H       -1.2581130    -0.8122820     1.2878600
  H       -1.3731370    -1.7140640    -0.2443670
  H        1.3313060    -1.7269980    -0.2572240
  H        1.2460610    -0.8115580     1.2773110
  H        0.7929870     1.6883420     0.0827150
  H       -2.2316960     0.9438620     0.0200080
  H        3.1428520    -0.1742490     0.1698040
units angstrom
no_reorient  #important for SAPT in psi4, default
symmetry c1  #important for SAPT in psi4, default
}

set PROPERTIES_ORIGIN ["COM"]
properties('MP2/aug-cc-pvtz', properties = ['dipole'])
--------------------------------------------------------------------------

    Molecular point group: c1
  Charge       = 0
  Multiplicity = 1
  Basis Set: AUG-CC-PVTZ
    Blend: AUG-CC-PVTZ
  Basis Set: (AUG-CC-PVTZ AUX)
    Blend: AUG-CC-PVTZ-JKFIT

    Orbital Energies [Eh]
    ---------------------

    Doubly Occupied:

       1A    -20.582163     2A    -20.563871     3A    -20.550545
       4A    -11.292810     5A    -11.285123     6A    -11.276457
       7A     -1.390253     8A     -1.364423     9A     -1.339919
      10A     -1.037216    11A     -0.918487    12A     -0.815793
      13A     -0.742071    14A     -0.696764    15A     -0.666207
      16A     -0.660296    17A     -0.609896    18A     -0.595644
      19A     -0.580974    20A     -0.544969    21A     -0.530448
      22A     -0.494421    23A     -0.471453    24A     -0.453957
      25A     -0.435518

  @DF-RHF Final Energy:  -342.96615898171058

   => Energetics <=

    Nuclear Repulsion Energy =            262.3295111615163364
    One-Electron Energy =                -990.7919886957101880
    Two-Electron Energy =                 385.4963185524832170
    Total Energy =                       -342.9661589817105778
  Basis Set: (AUG-CC-PVTZ AUX)
    Blend: AUG-CC-PVTZ-RI
    Molecular point group: c1

    Geometry (in Angstrom), charge = 0, multiplicity = 1:

       Center              X                  Y                   Z               Mass
    ------------   -----------------  -----------------  -----------------  -----------------
         O           -0.048990229850     1.255330368313     0.302802215226    15.994914619570
         O           -2.405342229850    -0.003120631687    -0.220306784774    15.994914619570
         O            2.342241770150     0.098257368313    -0.246554784774    15.994914619570
         C            0.004539770150    -0.057661631687    -0.259423784774    12.000000000000
         C           -1.278033829850    -0.760580831687     0.194844615226    12.000000000000
         C            1.272947770150    -0.748132631687     0.194332215226    12.000000000000
         H            0.002437770150    -0.000045631687    -1.358045784774     1.007825032230
         H           -1.239146229850    -0.837330631687     1.299393215226     1.007825032230
         H           -1.354170229850    -1.739112631687    -0.232833784774     1.007825032230
         H            1.350272770150    -1.752046631687    -0.245690784774     1.007825032230
         H            1.265027770150    -0.836606631687     1.288844215226     1.007825032230
         H            0.811953770150     1.663293368313     0.094248215226     1.007825032230
         H           -2.212729229850     0.918813368313     0.031541215226     1.007825032230
         H            3.161818770150    -0.199297631687     0.181337215226     1.007825032230

  Basis Set: AUG-CC-PVTZ
    Blend: AUG-CC-PVTZ
  Basis Set: (AUG-CC-PVTZ AUX)
    Blend: AUG-CC-PVTZ-JKFIT
	 Reference Energy          =    -342.9661589817105778 [Eh]
	 Singles Energy            =      -0.0000000000000000 [Eh]
	 Same-Spin Energy          =      -0.3282616756471333 [Eh]
	 Opposite-Spin Energy      =      -1.0460794319328646 [Eh]
	 Correlation Energy        =      -1.3743411075799978 [Eh]
	 Total Energy              =    -344.3405000892905719 [Eh]

	 ================> DF-SCS-MP2 Energies <==================
	-----------------------------------------------------------
	 SCS Same-Spin Scale       =       0.3333333333333333 [-]
	 SCS Opposite-Spin Scale   =       1.2000000000000000 [-]
	 SCS Same-Spin Energy      =      -0.1094205585490444 [Eh]
	 SCS Opposite-Spin Energy  =      -1.2552953183194375 [Eh]
	 SCS Correlation Energy    =      -1.3647158768684819 [Eh]
	 SCS Total Energy          =    -344.3308748585790795 [Eh]
	-----------------------------------------------------------

  Dipole Moment: [D]
     X:     3.1667      Y:    -1.3463      Z:     0.9538     Total:     3.5707

*** Psi4 exiting successfully. Buy a developer a beer!
