                               Psi4 1.3.2 release

  ==> Input File <==

--------------------------------------------------------------------------
#psi4
#
memory 32 gb

molecule  {
0 1
  O       -0.0694004     1.3163679     0.1982337
  O       -2.4243090     0.0219280    -0.2318400
  O        2.3232750     0.1233060    -0.2580880
  C       -0.0144270    -0.0326130    -0.2709570
  C       -1.2865220    -0.7147970     0.1919500
  C        1.2539810    -0.7230840     0.1827990
  H       -0.0165290     0.0250030    -1.3695790
  H       -1.2581130    -0.8122820     1.2878600
  H       -1.3731370    -1.7140640    -0.2443670
  H        1.3313060    -1.7269980    -0.2572240
  H        1.2460610    -0.8115580     1.2773110
  H        0.7929870     1.6883420     0.0827150
  H       -2.2316960     0.9438620     0.0200080
  H        3.1428520    -0.1742490     0.1698040
units angstrom
no_reorient  #important for SAPT in psi4, default
symmetry c1  #important for SAPT in psi4, default
}

set PROPERTIES_ORIGIN ["COM"]
properties('MP2/aug-cc-pvtz', properties = ['dipole'])
--------------------------------------------------------------------------

    Molecular point group: c1
  Charge       = 0
  Multiplicity = 1
  Basis Set: AUG-CC-PVTZ
    Blend: AUG-CC-PVTZ
  Basis Set: (AUG-CC-PVTZ AUX)
    Blend: AUG-CC-PVTZ-JKFIT

    Orbital Energies [Eh]
    ---------------------

    Doubly Occupied:

       1A    -20.583214     2A    -20.559743     3A    -20.551368
       4A    -11.295181     5A    -11.284757     6A    -11.277627
       7A     -1.392482     8A     -1.366546     9A     -1.342501
      10A     -1.041380    11A     -0.919278    12A     -0.819254
      13A     -0.742284    14A     -0.697351    15A     -0.671268
      16A     -0.661657    17A     -0.610430    18A     -0.594135
      19A     -0.581045    20A     -0.549784    21A     -0.527245
      22A     -0.495127    23A     -0.472728    24A     -0.455111
      25A     -0.436138

  @DF-RHF Final Energy:  -342.96722868111397

   => Energetics <=

    Nuclear Repulsion Energy =            262.4522132375802812
    One-Electron Energy =                -990.9836156396590923
    Two-Electron Energy =                 385.5641737209648454
    Total Energy =                       -342.9672286811139656
  Basis Set: (AUG-CC-PVTZ AUX)
    Blend: AUG-CC-PVTZ-RI
    Molecular point group: c1

    Geometry (in Angstrom), charge = 0, multiplicity = 1:

       Center              X                  Y                   Z               Mass
    ------------   -----------------  -----------------  -----------------  -----------------
         O           -0.051548883541     1.282362336523     0.224807310942    15.994914619570
         O           -2.406457483541    -0.012077563477    -0.205266389058    15.994914619570
         O            2.341126516459     0.089300436523    -0.231514389058    15.994914619570
         C            0.003424516459    -0.066618563477    -0.244383389058    12.000000000000
         C           -1.268670483541    -0.748802563477     0.218523610942    12.000000000000
         C            1.271832516459    -0.757089563477     0.209372610942    12.000000000000
         H            0.001322516459    -0.009002563477    -1.343005389058     1.007825032230
         H           -1.240261483541    -0.846287563477     1.314433610942     1.007825032230
         H           -1.355285483541    -1.748069563477    -0.217793389058     1.007825032230
         H            1.349157516459    -1.761003563477    -0.230650389058     1.007825032230
         H            1.263912516459    -0.845563563477     1.303884610942     1.007825032230
         H            0.810838516459     1.654336436523     0.109288610942     1.007825032230
         H           -2.213844483541     0.909856436523     0.046581610942     1.007825032230
         H            3.160703516459    -0.208254563477     0.196377610942     1.007825032230

  Basis Set: AUG-CC-PVTZ
    Blend: AUG-CC-PVTZ
  Basis Set: (AUG-CC-PVTZ AUX)
    Blend: AUG-CC-PVTZ-JKFIT
	 Reference Energy          =    -342.9672286811139656 [Eh]
	 Singles Energy            =      -0.0000000000000000 [Eh]
	 Same-Spin Energy          =      -0.3278704931427170 [Eh]
	 Opposite-Spin Energy      =      -1.0451435814670313 [Eh]
	 Correlation Energy        =      -1.3730140746097483 [Eh]
	 Total Energy              =    -344.3402427557236933 [Eh]

	 ================> DF-SCS-MP2 Energies <==================
	-----------------------------------------------------------
	 SCS Same-Spin Scale       =       0.3333333333333333 [-]
	 SCS Opposite-Spin Scale   =       1.2000000000000000 [-]
	 SCS Same-Spin Energy      =      -0.1092901643809057 [Eh]
	 SCS Opposite-Spin Energy  =      -1.2541722977604375 [Eh]
	 SCS Correlation Energy    =      -1.3634624621413431 [Eh]
	 SCS Total Energy          =    -344.3306911432553079 [Eh]
	-----------------------------------------------------------

  Dipole Moment: [D]
     X:     3.2149      Y:    -1.4325      Z:     1.1534     Total:     3.7038

*** Psi4 exiting successfully. Buy a developer a beer!
