                               Psi4 1.3.2 release

  ==> Input File <==

--------------------------------------------------------------------------
#psi4
#
memory 32 gb

molecule  {
0 1
  O       -0.0679570     1.2803790     0.2912690
  O       -2.4312034     0.0244800    -0.2081687
  O        2.3232750     0.1233060    -0.2580880
  C       -0.0144270    -0.0326130    -0.2709570
  C       -1.2865220    -0.7147970     0.1919500
  C        1.2539810    -0.7230840     0.1827990
  H       -0.0165290     0.0250030    -1.3695790
  H       -1.2581130    -0.8122820     1.2878600
  H       -1.3731370    -1.7140640    -0.2443670
  H        1.3313060    -1.7269980    -0.2572240
  H        1.2460610    -0.8115580     1.2773110
  H        0.7929870     1.6883420     0.0827150
  H       -2.2316960     0.9438620     0.0200080
  H        3.1428520    -0.1742490     0.1698040
units angstrom
no_reorient  #important for SAPT in psi4, default
symmetry c1  #important for SAPT in psi4, default
}

set PROPERTIES_ORIGIN ["COM"]
properties('MP2/aug-cc-pvtz', properties = ['dipole'])
--------------------------------------------------------------------------

    Molecular point group: c1
  Charge       = 0
  Multiplicity = 1
  Basis Set: AUG-CC-PVTZ
    Blend: AUG-CC-PVTZ
  Basis Set: (AUG-CC-PVTZ AUX)
    Blend: AUG-CC-PVTZ-JKFIT

    Orbital Energies [Eh]
    ---------------------

    Doubly Occupied:

       1A    -20.582748     2A    -20.563931     3A    -20.550257
       4A    -11.293570     5A    -11.285257     6A    -11.276448
       7A     -1.391070     8A     -1.365615     9A     -1.341102
      10A     -1.039527    11A     -0.918963    12A     -0.815762
      13A     -0.742777    14A     -0.697763    15A     -0.667161
      16A     -0.660577    17A     -0.611587    18A     -0.595327
      19A     -0.577898    20A     -0.545608    21A     -0.530850
      22A     -0.493424    23A     -0.471923    24A     -0.454860
      25A     -0.438336

  @DF-RHF Final Energy:  -342.96697842281770

   => Energetics <=

    Nuclear Repulsion Energy =            262.5783670155445861
    One-Electron Energy =                -991.2660034669444258
    Two-Electron Energy =                 385.7206580285821360
    Total Energy =                       -342.9669784228177036
  Basis Set: (AUG-CC-PVTZ AUX)
    Blend: AUG-CC-PVTZ-RI
    Molecular point group: c1

    Geometry (in Angstrom), charge = 0, multiplicity = 1:

       Center              X                  Y                   Z               Mass
    ------------   -----------------  -----------------  -----------------  -----------------
         O           -0.049158272294     1.252183711287     0.297562698246    15.994914619570
         O           -2.412404672294    -0.003715288713    -0.201875001754    15.994914619570
         O            2.342073727706     0.095110711287    -0.251794301754    15.994914619570
         C            0.004371727706    -0.060808288713    -0.264663301754    12.000000000000
         C           -1.267723272294    -0.742992288713     0.198243698246    12.000000000000
         C            1.272779727706    -0.751279288713     0.189092698246    12.000000000000
         H            0.002269727706    -0.003192288713    -1.363285301754     1.007825032230
         H           -1.239314272294    -0.840477288713     1.294153698246     1.007825032230
         H           -1.354338272294    -1.742259288713    -0.238073301754     1.007825032230
         H            1.350104727706    -1.755193288713    -0.250930301754     1.007825032230
         H            1.264859727706    -0.839753288713     1.283604698246     1.007825032230
         H            0.811785727706     1.660146711287     0.089008698246     1.007825032230
         H           -2.212897272294     0.915666711287     0.026301698246     1.007825032230
         H            3.161650727706    -0.202444288713     0.176097698246     1.007825032230

  Basis Set: AUG-CC-PVTZ
    Blend: AUG-CC-PVTZ
  Basis Set: (AUG-CC-PVTZ AUX)
    Blend: AUG-CC-PVTZ-JKFIT
	 Reference Energy          =    -342.9669784228177036 [Eh]
	 Singles Energy            =      -0.0000000000000000 [Eh]
	 Same-Spin Energy          =      -0.3282877679862183 [Eh]
	 Opposite-Spin Energy      =      -1.0460098006705674 [Eh]
	 Correlation Energy        =      -1.3742975686567855 [Eh]
	 Total Energy              =    -344.3412759914745038 [Eh]

	 ================> DF-SCS-MP2 Energies <==================
	-----------------------------------------------------------
	 SCS Same-Spin Scale       =       0.3333333333333333 [-]
	 SCS Opposite-Spin Scale   =       1.2000000000000000 [-]
	 SCS Same-Spin Energy      =      -0.1094292559954061 [Eh]
	 SCS Opposite-Spin Energy  =      -1.2552117608046809 [Eh]
	 SCS Correlation Energy    =      -1.3646410168000869 [Eh]
	 SCS Total Energy          =    -344.3316194396177821 [Eh]
	-----------------------------------------------------------

  Dipole Moment: [D]
     X:     3.2124      Y:    -1.3242      Z:     0.9153     Total:     3.5932

*** Psi4 exiting successfully. Buy a developer a beer!
