                               Psi4 1.3.2 release

  ==> Input File <==

--------------------------------------------------------------------------
#psi4
#
memory 32 gb

molecule  {
0 1
  O       -0.0683426     1.2899833     0.2682495
  O       -2.4243090     0.0219280    -0.2318400
  O        2.3232750     0.1233060    -0.2580880
  C       -0.0144270    -0.0326130    -0.2709570
  C       -1.2865220    -0.7147970     0.1919500
  C        1.2539810    -0.7230840     0.1827990
  H       -0.0165290     0.0250030    -1.3695790
  H       -1.2581130    -0.8122820     1.2878600
  H       -1.3731370    -1.7140640    -0.2443670
  H        1.3313060    -1.7269980    -0.2572240
  H        1.2460610    -0.8115580     1.2773110
  H        0.7929870     1.6883420     0.0827150
  H       -2.2316960     0.9438620     0.0200080
  H        3.1428520    -0.1742490     0.1698040
units angstrom
no_reorient  #important for SAPT in psi4, default
symmetry c1  #important for SAPT in psi4, default
}

set PROPERTIES_ORIGIN ["COM"]
properties('MP2/aug-cc-pvtz', properties = ['dipole'])
--------------------------------------------------------------------------

    Molecular point group: c1
  Charge       = 0
  Multiplicity = 1
  Basis Set: AUG-CC-PVTZ
    Blend: AUG-CC-PVTZ
  Basis Set: (AUG-CC-PVTZ AUX)
    Blend: AUG-CC-PVTZ-JKFIT

    Orbital Energies [Eh]
    ---------------------

    Doubly Occupied:

       1A    -20.582709     2A    -20.562663     3A    -20.551237
       4A    -11.293746     5A    -11.284784     6A    -11.276739
       7A     -1.391278     8A     -1.365538     9A     -1.340962
      10A     -1.039752    11A     -0.918683    12A     -0.816201
      13A     -0.742602    14A     -0.697761    15A     -0.667861
      16A     -0.660668    17A     -0.610657    18A     -0.594881
      19A     -0.578540    20A     -0.546583    21A     -0.529289
      22A     -0.494261    23A     -0.471996    24A     -0.454557
      25A     -0.438212

  @DF-RHF Final Energy:  -342.96711344128647

   => Energetics <=

    Nuclear Repulsion Energy =            262.5699694210445614
    One-Electron Energy =                -991.2498481773237700
    Two-Electron Energy =                 385.7127653149927369
    Total Energy =                       -342.9671134412864717
  Basis Set: (AUG-CC-PVTZ AUX)
    Blend: AUG-CC-PVTZ-RI
    Molecular point group: c1

    Geometry (in Angstrom), charge = 0, multiplicity = 1:

       Center              X                  Y                   Z               Mass
    ------------   -----------------  -----------------  -----------------  -----------------
         O           -0.050674895696     1.260562544790     0.282656581274    15.994914619570
         O           -2.406641295696    -0.007492755210    -0.217432918726    15.994914619570
         O            2.340942704304     0.093885244790    -0.243680918726    15.994914619570
         C            0.003240704304    -0.062033755210    -0.256549918726    12.000000000000
         C           -1.268854295696    -0.744217755210     0.206357081274    12.000000000000
         C            1.271648704304    -0.752504755210     0.197206081274    12.000000000000
         H            0.001138704304    -0.004417755210    -1.355171918726     1.007825032230
         H           -1.240445295696    -0.841702755210     1.302267081274     1.007825032230
         H           -1.355469295696    -1.743484755210    -0.229959918726     1.007825032230
         H            1.348973704304    -1.756418755210    -0.242816918726     1.007825032230
         H            1.263728704304    -0.840978755210     1.291718081274     1.007825032230
         H            0.810654704304     1.658921244790     0.097122081274     1.007825032230
         H           -2.214028295696     0.914441244790     0.034415081274     1.007825032230
         H            3.160519704304    -0.203669755210     0.184211081274     1.007825032230

  Basis Set: AUG-CC-PVTZ
    Blend: AUG-CC-PVTZ
  Basis Set: (AUG-CC-PVTZ AUX)
    Blend: AUG-CC-PVTZ-JKFIT
	 Reference Energy          =    -342.9671134412864717 [Eh]
	 Singles Energy            =      -0.0000000000000000 [Eh]
	 Same-Spin Energy          =      -0.3282445429395388 [Eh]
	 Opposite-Spin Energy      =      -1.0459280480038093 [Eh]
	 Correlation Energy        =      -1.3741725909433482 [Eh]
	 Total Energy              =    -344.3412860322298457 [Eh]

	 ================> DF-SCS-MP2 Energies <==================
	-----------------------------------------------------------
	 SCS Same-Spin Scale       =       0.3333333333333333 [-]
	 SCS Opposite-Spin Scale   =       1.2000000000000000 [-]
	 SCS Same-Spin Energy      =      -0.1094148476465129 [Eh]
	 SCS Opposite-Spin Energy  =      -1.2551136576045712 [Eh]
	 SCS Correlation Energy    =      -1.3645285052510840 [Eh]
	 SCS Total Energy          =    -344.3316419465375589 [Eh]
	-----------------------------------------------------------

  Dipole Moment: [D]
     X:     3.1916      Y:    -1.3515      Z:     1.0109     Total:     3.6103

*** Psi4 exiting successfully. Buy a developer a beer!
