                               Psi4 1.3.2 release

  ==> Input File <==

--------------------------------------------------------------------------
#psi4
#
memory 32 gb

molecule  {
0 1
  O       -0.0687118     1.2991848     0.2450657
  O       -2.4243090     0.0219280    -0.2318400
  O        2.3232750     0.1233060    -0.2580880
  C       -0.0144270    -0.0326130    -0.2709570
  C       -1.2865220    -0.7147970     0.1919500
  C        1.2539810    -0.7230840     0.1827990
  H       -0.0165290     0.0250030    -1.3695790
  H       -1.2581130    -0.8122820     1.2878600
  H       -1.3731370    -1.7140640    -0.2443670
  H        1.3313060    -1.7269980    -0.2572240
  H        1.2460610    -0.8115580     1.2773110
  H        0.7929870     1.6883420     0.0827150
  H       -2.2316960     0.9438620     0.0200080
  H        3.1428520    -0.1742490     0.1698040
units angstrom
no_reorient  #important for SAPT in psi4, default
symmetry c1  #important for SAPT in psi4, default
}

set PROPERTIES_ORIGIN ["COM"]
properties('MP2/aug-cc-pvtz', properties = ['dipole'])
--------------------------------------------------------------------------

    Molecular point group: c1
  Charge       = 0
  Multiplicity = 1
  Basis Set: AUG-CC-PVTZ
    Blend: AUG-CC-PVTZ
  Basis Set: (AUG-CC-PVTZ AUX)
    Blend: AUG-CC-PVTZ-JKFIT

    Orbital Energies [Eh]
    ---------------------

    Doubly Occupied:

       1A    -20.582880     2A    -20.561625     3A    -20.551281
       4A    -11.294229     5A    -11.284793     6A    -11.277049
       7A     -1.391704     8A     -1.365890     9A     -1.341528
      10A     -1.040341    11A     -0.918888    12A     -0.817228
      13A     -0.742565    14A     -0.697673    15A     -0.668918
      16A     -0.661133    17A     -0.610578    18A     -0.594699
      19A     -0.579370    20A     -0.547693    21A     -0.528572
      22A     -0.494596    23A     -0.472217    24A     -0.454739
      25A     -0.437608

  @DF-RHF Final Energy:  -342.96741574873954

   => Energetics <=

    Nuclear Repulsion Energy =            262.5317337528873054
    One-Electron Energy =                -991.1627080482178371
    Two-Electron Energy =                 385.6635585465910481
    Total Energy =                       -342.9674157487395405
  Basis Set: (AUG-CC-PVTZ AUX)
    Blend: AUG-CC-PVTZ-RI
    Molecular point group: c1

    Geometry (in Angstrom), charge = 0, multiplicity = 1:

       Center              X                  Y                   Z               Mass
    ------------   -----------------  -----------------  -----------------  -----------------
         O           -0.050979940423     1.268165115366     0.263501391823    15.994914619570
         O           -2.406577140423    -0.009091684634    -0.213404308177    15.994914619570
         O            2.341006859577     0.092286315366    -0.239652308177    15.994914619570
         C            0.003304859577    -0.063632684634    -0.252521308177    12.000000000000
         C           -1.268790140423    -0.745816684634     0.210385691823    12.000000000000
         C            1.271712859577    -0.754103684634     0.201234691823    12.000000000000
         H            0.001202859577    -0.006016684634    -1.351143308177     1.007825032230
         H           -1.240381140423    -0.843301684634     1.306295691823     1.007825032230
         H           -1.355405140423    -1.745083684634    -0.225931308177     1.007825032230
         H            1.349037859577    -1.758017684634    -0.238788308177     1.007825032230
         H            1.263792859577    -0.842577684634     1.295746691823     1.007825032230
         H            0.810718859577     1.657322315366     0.101150691823     1.007825032230
         H           -2.213964140423     0.912842315366     0.038443691823     1.007825032230
         H            3.160583859577    -0.205268684634     0.188239691823     1.007825032230

  Basis Set: AUG-CC-PVTZ
    Blend: AUG-CC-PVTZ
  Basis Set: (AUG-CC-PVTZ AUX)
    Blend: AUG-CC-PVTZ-JKFIT
	 Reference Energy          =    -342.9674157487395405 [Eh]
	 Singles Energy            =      -0.0000000000000000 [Eh]
	 Same-Spin Energy          =      -0.3281028577714504 [Eh]
	 Opposite-Spin Energy      =      -1.0456255965312338 [Eh]
	 Correlation Energy        =      -1.3737284543026842 [Eh]
	 Total Energy              =    -344.3411442030422336 [Eh]

	 ================> DF-SCS-MP2 Energies <==================
	-----------------------------------------------------------
	 SCS Same-Spin Scale       =       0.3333333333333333 [-]
	 SCS Opposite-Spin Scale   =       1.2000000000000000 [-]
	 SCS Same-Spin Energy      =      -0.1093676192571501 [Eh]
	 SCS Opposite-Spin Energy  =      -1.2547507158374804 [Eh]
	 SCS Correlation Energy    =      -1.3641183350946307 [Eh]
	 SCS Total Energy          =    -344.3315340838341854 [Eh]
	-----------------------------------------------------------

  Dipole Moment: [D]
     X:     3.1996      Y:    -1.3796      Z:     1.0574     Total:     3.6412

*** Psi4 exiting successfully. Buy a developer a beer!
