                               Psi4 1.3.2 release

  ==> Input File <==

--------------------------------------------------------------------------
#psi4
#
memory 32 gb

molecule  {
0 1
  O       -0.0679570     1.2803790     0.2912690
  O       -2.4243090     0.0219280    -0.2318400
  O        2.3232750     0.1233060    -0.2580880
  C       -0.1531321    -0.0522341    -0.2184358
  C       -1.2865220    -0.7147970     0.1919500
  C        1.2539810    -0.7230840     0.1827990
  H       -0.0165290     0.0250030    -1.3695790
  H       -1.2581130    -0.8122820     1.2878600
  H       -1.3731370    -1.7140640    -0.2443670
  H        1.3313060    -1.7269980    -0.2572240
  H        1.2460610    -0.8115580     1.2773110
  H        0.7929870     1.6883420     0.0827150
  H       -2.2316960     0.9438620     0.0200080
  H        3.1428520    -0.1742490     0.1698040
units angstrom
no_reorient  #important for SAPT in psi4, default
symmetry c1  #important for SAPT in psi4, default
}

set PROPERTIES_ORIGIN ["COM"]
properties('MP2/aug-cc-pvtz', properties = ['dipole'])
--------------------------------------------------------------------------

    Molecular point group: c1
  Charge       = 0
  Multiplicity = 1
  Basis Set: AUG-CC-PVTZ
    Blend: AUG-CC-PVTZ
  Basis Set: (AUG-CC-PVTZ AUX)
    Blend: AUG-CC-PVTZ-JKFIT

    Orbital Energies [Eh]
    ---------------------

    Doubly Occupied:

       1A    -20.583319     2A    -20.561101     3A    -20.552975
       4A    -11.296038     5A    -11.291539     6A    -11.272868
       7A     -1.389070     8A     -1.368819     9A     -1.340785
      10A     -1.053697    11A     -0.923659    12A     -0.813529
      13A     -0.740088    14A     -0.697656    15A     -0.671522
      16A     -0.662328    17A     -0.626388    18A     -0.592835
      19A     -0.582596    20A     -0.548045    21A     -0.515711
      22A     -0.504864    23A     -0.470809    24A     -0.448947
      25A     -0.424652

  @DF-RHF Final Energy:  -342.93980801162138

   => Energetics <=

    Nuclear Repulsion Energy =            263.0761009096201519
    One-Electron Energy =                -992.1641438245424069
    Two-Electron Energy =                 386.1482349033008177
    Total Energy =                       -342.9398080116213805
  Basis Set: (AUG-CC-PVTZ AUX)
    Blend: AUG-CC-PVTZ-RI
    Molecular point group: c1

    Geometry (in Angstrom), charge = 0, multiplicity = 1:

       Center              X                  Y                   Z               Mass
    ------------   -----------------  -----------------  -----------------  -----------------
         O           -0.032273636724     1.255185125665     0.294828953129    15.994914619570
         O           -2.388625636724    -0.003265874335    -0.228280046871    15.994914619570
         O            2.358958363276     0.098112125665    -0.254528046871    15.994914619570
         C           -0.117448736724    -0.077427974335    -0.214875846871    12.000000000000
         C           -1.250838636724    -0.739990874335     0.195509953129    12.000000000000
         C            1.289664363276    -0.748277874335     0.186358953129    12.000000000000
         H            0.019154363276    -0.000190874335    -1.366019046871     1.007825032230
         H           -1.222429636724    -0.837475874335     1.291419953129     1.007825032230
         H           -1.337453636724    -1.739257874335    -0.240807046871     1.007825032230
         H            1.366989363276    -1.752191874335    -0.253664046871     1.007825032230
         H            1.281744363276    -0.836751874335     1.280870953129     1.007825032230
         H            0.828670363276     1.663148125665     0.086274953129     1.007825032230
         H           -2.196012636724     0.918668125665     0.023567953129     1.007825032230
         H            3.178535363276    -0.199442874335     0.173363953129     1.007825032230

  Basis Set: AUG-CC-PVTZ
    Blend: AUG-CC-PVTZ
  Basis Set: (AUG-CC-PVTZ AUX)
    Blend: AUG-CC-PVTZ-JKFIT
	 Reference Energy          =    -342.9398080116213805 [Eh]
	 Singles Energy            =      -0.0000000000000000 [Eh]
	 Same-Spin Energy          =      -0.3294644031853819 [Eh]
	 Opposite-Spin Energy      =      -1.0475973560393776 [Eh]
	 Correlation Energy        =      -1.3770617592247596 [Eh]
	 Total Energy              =    -344.3168697708461536 [Eh]

	 ================> DF-SCS-MP2 Energies <==================
	-----------------------------------------------------------
	 SCS Same-Spin Scale       =       0.3333333333333333 [-]
	 SCS Opposite-Spin Scale   =       1.2000000000000000 [-]
	 SCS Same-Spin Energy      =      -0.1098214677284606 [Eh]
	 SCS Opposite-Spin Energy  =      -1.2571168272472530 [Eh]
	 SCS Correlation Energy    =      -1.3669382949757136 [Eh]
	 SCS Total Energy          =    -344.3067463065971197 [Eh]
	-----------------------------------------------------------

  Dipole Moment: [D]
     X:     3.0332      Y:    -1.3709      Z:     1.0120     Total:     3.4791

*** Psi4 exiting successfully. Buy a developer a beer!
