                               Psi4 1.3.2 release

  ==> Input File <==

--------------------------------------------------------------------------
#psi4
#
memory 32 gb

molecule  {
0 1
  O       -0.0679570     1.2803790     0.2912690
  O       -2.4807699    -0.0464770    -0.1875776
  O        2.3232750     0.1233060    -0.2580880
  C       -0.0144270    -0.0326130    -0.2709570
  C       -1.2865220    -0.7147970     0.1919500
  C        1.2539810    -0.7230840     0.1827990
  H       -0.0165290     0.0250030    -1.3695790
  H       -1.2581130    -0.8122820     1.2878600
  H       -1.3731370    -1.7140640    -0.2443670
  H        1.3313060    -1.7269980    -0.2572240
  H        1.2460610    -0.8115580     1.2773110
  H        0.7929870     1.6883420     0.0827150
  H       -2.2316960     0.9438620     0.0200080
  H        3.1428520    -0.1742490     0.1698040
units angstrom
no_reorient  #important for SAPT in psi4, default
symmetry c1  #important for SAPT in psi4, default
}

set PROPERTIES_ORIGIN ["COM"]
properties('MP2/aug-cc-pvtz', properties = ['dipole'])
--------------------------------------------------------------------------

    Molecular point group: c1
  Charge       = 0
  Multiplicity = 1
  Basis Set: AUG-CC-PVTZ
    Blend: AUG-CC-PVTZ
  Basis Set: (AUG-CC-PVTZ AUX)
    Blend: AUG-CC-PVTZ-JKFIT

    Orbital Energies [Eh]
    ---------------------

    Doubly Occupied:

       1A    -20.583849     2A    -20.565838     3A    -20.558285
       4A    -11.294985     5A    -11.287340     6A    -11.274865
       7A     -1.391608     8A     -1.362997     9A     -1.334113
      10A     -1.039355    11A     -0.915590    12A     -0.813927
      13A     -0.742033    14A     -0.698242    15A     -0.668383
      16A     -0.648983    17A     -0.612128    18A     -0.596721
      19A     -0.571459    20A     -0.546787    21A     -0.531363
      22A     -0.492670    23A     -0.472929    24A     -0.456302
      25A     -0.437172

  @DF-RHF Final Energy:  -342.95735163925082

   => Energetics <=

    Nuclear Repulsion Energy =            261.5756915321543943
    One-Electron Energy =                -989.2702389301618950
    Two-Electron Energy =                 384.7371957587566271
    Total Energy =                       -342.9573516392508168
  Basis Set: (AUG-CC-PVTZ AUX)
    Blend: AUG-CC-PVTZ-RI
    Molecular point group: c1

    Geometry (in Angstrom), charge = 0, multiplicity = 1:

       Center              X                  Y                   Z               Mass
    ------------   -----------------  -----------------  -----------------  -----------------
         O           -0.040545183637     1.264513791721     0.293984616884    15.994914619570
         O           -2.453358083637    -0.062342208279    -0.184861983116    15.994914619570
         O            2.350686816363     0.107440791721    -0.255372383116    15.994914619570
         C            0.012984816363    -0.048478208279    -0.268241383116    12.000000000000
         C           -1.259110183637    -0.730662208279     0.194665616884    12.000000000000
         C            1.281392816363    -0.738949208279     0.185514616884    12.000000000000
         H            0.010882816363     0.009137791721    -1.366863383116     1.007825032230
         H           -1.230701183637    -0.828147208279     1.290575616884     1.007825032230
         H           -1.345725183637    -1.729929208279    -0.241651383116     1.007825032230
         H            1.358717816363    -1.742863208279    -0.254508383116     1.007825032230
         H            1.273472816363    -0.827423208279     1.280026616884     1.007825032230
         H            0.820398816363     1.672476791721     0.085430616884     1.007825032230
         H           -2.204284183637     0.927996791721     0.022723616884     1.007825032230
         H            3.170263816363    -0.190114208279     0.172519616884     1.007825032230

  Basis Set: AUG-CC-PVTZ
    Blend: AUG-CC-PVTZ
  Basis Set: (AUG-CC-PVTZ AUX)
    Blend: AUG-CC-PVTZ-JKFIT
	 Reference Energy          =    -342.9573516392508168 [Eh]
	 Singles Energy            =      -0.0000000000000000 [Eh]
	 Same-Spin Energy          =      -0.3293289682523750 [Eh]
	 Opposite-Spin Energy      =      -1.0487364145123039 [Eh]
	 Correlation Energy        =      -1.3780653827646789 [Eh]
	 Total Energy              =    -344.3354170220155197 [Eh]

	 ================> DF-SCS-MP2 Energies <==================
	-----------------------------------------------------------
	 SCS Same-Spin Scale       =       0.3333333333333333 [-]
	 SCS Opposite-Spin Scale   =       1.2000000000000000 [-]
	 SCS Same-Spin Energy      =      -0.1097763227507917 [Eh]
	 SCS Opposite-Spin Energy  =      -1.2584836974147646 [Eh]
	 SCS Correlation Energy    =      -1.3682600201655564 [Eh]
	 SCS Total Energy          =    -344.3256116594163814 [Eh]
	-----------------------------------------------------------

  Dipole Moment: [D]
     X:     3.3245      Y:    -1.1940      Z:     0.8446     Total:     3.6320

*** Psi4 exiting successfully. Buy a developer a beer!
