                               Psi4 1.3.2 release

  ==> Input File <==

--------------------------------------------------------------------------
#psi4
#
memory 32 gb

molecule  {
0 1
  O       -0.0460053     1.2855934     0.2806282
  O       -2.4243090     0.0219280    -0.2318400
  O        2.3232750     0.1233060    -0.2580880
  C       -0.0144270    -0.0326130    -0.2709570
  C       -1.2865220    -0.7147970     0.1919500
  C        1.2539810    -0.7230840     0.1827990
  H       -0.0165290     0.0250030    -1.3695790
  H       -1.2581130    -0.8122820     1.2878600
  H       -1.3731370    -1.7140640    -0.2443670
  H        1.3313060    -1.7269980    -0.2572240
  H        1.2460610    -0.8115580     1.2773110
  H        0.7929870     1.6883420     0.0827150
  H       -2.2316960     0.9438620     0.0200080
  H        3.1428520    -0.1742490     0.1698040
units angstrom
no_reorient  #important for SAPT in psi4, default
symmetry c1  #important for SAPT in psi4, default
}

set PROPERTIES_ORIGIN ["COM"]
properties('MP2/aug-cc-pvtz', properties = ['dipole'])
--------------------------------------------------------------------------

    Molecular point group: c1
  Charge       = 0
  Multiplicity = 1
  Basis Set: AUG-CC-PVTZ
    Blend: AUG-CC-PVTZ
  Basis Set: (AUG-CC-PVTZ AUX)
    Blend: AUG-CC-PVTZ-JKFIT

    Orbital Energies [Eh]
    ---------------------

    Doubly Occupied:

       1A    -20.581961     2A    -20.560743     3A    -20.551937
       4A    -11.292910     5A    -11.285129     6A    -11.277335
       7A     -1.392187     8A     -1.365590     9A     -1.342631
      10A     -1.040428    11A     -0.918623    12A     -0.817504
      13A     -0.743265    14A     -0.698474    15A     -0.667462
      16A     -0.661606    17A     -0.611541    18A     -0.595528
      19A     -0.579022    20A     -0.545658    21A     -0.528916
      22A     -0.495279    23A     -0.471304    24A     -0.454182
      25A     -0.439141

  @DF-RHF Final Energy:  -342.96774235682915

   => Energetics <=

    Nuclear Repulsion Energy =            262.6631658328626600
    One-Electron Energy =                -991.4251072776301044
    Two-Electron Energy =                 385.7941990879382956
    Total Energy =                       -342.9677423568291488
  Basis Set: (AUG-CC-PVTZ AUX)
    Blend: AUG-CC-PVTZ-RI
    Molecular point group: c1

    Geometry (in Angstrom), charge = 0, multiplicity = 1:

       Center              X                  Y                   Z               Mass
    ------------   -----------------  -----------------  -----------------  -----------------
         O           -0.032219111342     1.256935470446     0.292884255066    15.994914619570
         O           -2.410522811342    -0.006729929554    -0.219583944934    15.994914619570
         O            2.337061188658     0.094648070446    -0.245831944934    15.994914619570
         C           -0.000640811342    -0.061270929554    -0.258700944934    12.000000000000
         C           -1.272735811342    -0.743454929554     0.204206055066    12.000000000000
         C            1.267767188658    -0.751741929554     0.195055055066    12.000000000000
         H           -0.002742811342    -0.003654929554    -1.357322944934     1.007825032230
         H           -1.244326811342    -0.840939929554     1.300116055066     1.007825032230
         H           -1.359350811342    -1.742721929554    -0.232110944934     1.007825032230
         H            1.345092188658    -1.755655929554    -0.244967944934     1.007825032230
         H            1.259847188658    -0.840215929554     1.289567055066     1.007825032230
         H            0.806773188658     1.659684070446     0.094971055066     1.007825032230
         H           -2.217909811342     0.915204070446     0.032264055066     1.007825032230
         H            3.156638188658    -0.202906929554     0.182060055066     1.007825032230

  Basis Set: AUG-CC-PVTZ
    Blend: AUG-CC-PVTZ
  Basis Set: (AUG-CC-PVTZ AUX)
    Blend: AUG-CC-PVTZ-JKFIT
	 Reference Energy          =    -342.9677423568291488 [Eh]
	 Singles Energy            =      -0.0000000000000000 [Eh]
	 Same-Spin Energy          =      -0.3279858932716919 [Eh]
	 Opposite-Spin Energy      =      -1.0453604500466409 [Eh]
	 Correlation Energy        =      -1.3733463433183328 [Eh]
	 Total Energy              =    -344.3410887001475089 [Eh]

	 ================> DF-SCS-MP2 Energies <==================
	-----------------------------------------------------------
	 SCS Same-Spin Scale       =       0.3333333333333333 [-]
	 SCS Opposite-Spin Scale   =       1.2000000000000000 [-]
	 SCS Same-Spin Energy      =      -0.1093286310905640 [Eh]
	 SCS Opposite-Spin Energy  =      -1.2544325400559690 [Eh]
	 SCS Correlation Energy    =      -1.3637611711465329 [Eh]
	 SCS Total Energy          =    -344.3315035279756557 [Eh]
	-----------------------------------------------------------

  Dipole Moment: [D]
     X:     3.1314      Y:    -1.3427      Z:     0.9788     Total:     3.5449

*** Psi4 exiting successfully. Buy a developer a beer!
