                               Psi4 1.3.2 release

  ==> Input File <==

--------------------------------------------------------------------------
#psi4
#
memory 32 gb

molecule  {
0 1
  O       -0.0679570     1.2803790     0.2912690
  O       -2.4093163     0.0384811    -0.2425912
  O        2.3232750     0.1233060    -0.2580880
  C       -0.0144270    -0.0326130    -0.2709570
  C       -1.2865220    -0.7147970     0.1919500
  C        1.2539810    -0.7230840     0.1827990
  H       -0.0165290     0.0250030    -1.3695790
  H       -1.2581130    -0.8122820     1.2878600
  H       -1.3731370    -1.7140640    -0.2443670
  H        1.3313060    -1.7269980    -0.2572240
  H        1.2460610    -0.8115580     1.2773110
  H        0.7929870     1.6883420     0.0827150
  H       -2.2316960     0.9438620     0.0200080
  H        3.1428520    -0.1742490     0.1698040
units angstrom
no_reorient  #important for SAPT in psi4, default
symmetry c1  #important for SAPT in psi4, default
}

set PROPERTIES_ORIGIN ["COM"]
properties('MP2/aug-cc-pvtz', properties = ['dipole'])
--------------------------------------------------------------------------

    Molecular point group: c1
  Charge       = 0
  Multiplicity = 1
  Basis Set: AUG-CC-PVTZ
    Blend: AUG-CC-PVTZ
  Basis Set: (AUG-CC-PVTZ AUX)
    Blend: AUG-CC-PVTZ-JKFIT

    Orbital Energies [Eh]
    ---------------------

    Doubly Occupied:

       1A    -20.582188     2A    -20.563210     3A    -20.549361
       4A    -11.292796     5A    -11.284111     6A    -11.276852
       7A     -1.390739     8A     -1.366161     9A     -1.341532
      10A     -1.039108    11A     -0.919318    12A     -0.815413
      13A     -0.742719    14A     -0.697785    15A     -0.666828
      16A     -0.662604    17A     -0.610244    18A     -0.594555
      19A     -0.579207    20A     -0.545060    21A     -0.529526
      22A     -0.494070    23A     -0.471511    24A     -0.453808
      25A     -0.438970

  @DF-RHF Final Energy:  -342.96722393314388

   => Energetics <=

    Nuclear Repulsion Energy =            262.8790822063670021
    One-Electron Energy =                -991.8772593389135181
    Two-Electron Energy =                 386.0309531994026315
    Total Energy =                       -342.9672239331438846
  Basis Set: (AUG-CC-PVTZ AUX)
    Blend: AUG-CC-PVTZ-RI
    Molecular point group: c1

    Geometry (in Angstrom), charge = 0, multiplicity = 1:

       Center              X                  Y                   Z               Mass
    ------------   -----------------  -----------------  -----------------  -----------------
         O           -0.052961557431     1.249750763316     0.303544239091    15.994914619570
         O           -2.394320857431     0.007852863316    -0.230315960909    15.994914619570
         O            2.338270442569     0.092677763316    -0.245812760909    15.994914619570
         C            0.000568442569    -0.063241236684    -0.258681760909    12.000000000000
         C           -1.271526557431    -0.745425236684     0.204225239091    12.000000000000
         C            1.268976442569    -0.753712236684     0.195074239091    12.000000000000
         H           -0.001533557431    -0.005625236684    -1.357303760909     1.007825032230
         H           -1.243117557431    -0.842910236684     1.300135239091     1.007825032230
         H           -1.358141557431    -1.744692236684    -0.232091760909     1.007825032230
         H            1.346301442569    -1.757626236684    -0.244948760909     1.007825032230
         H            1.261056442569    -0.842186236684     1.289586239091     1.007825032230
         H            0.807982442569     1.657713763316     0.094990239091     1.007825032230
         H           -2.216700557431     0.913233763316     0.032283239091     1.007825032230
         H            3.157847442569    -0.204877236684     0.182079239091     1.007825032230

  Basis Set: AUG-CC-PVTZ
    Blend: AUG-CC-PVTZ
  Basis Set: (AUG-CC-PVTZ AUX)
    Blend: AUG-CC-PVTZ-JKFIT
	 Reference Energy          =    -342.9672239331438846 [Eh]
	 Singles Energy            =      -0.0000000000000000 [Eh]
	 Same-Spin Energy          =      -0.3282051678024418 [Eh]
	 Opposite-Spin Energy      =      -1.0457503078821206 [Eh]
	 Correlation Energy        =      -1.3739554756845624 [Eh]
	 Total Energy              =    -344.3411794088284523 [Eh]

	 ================> DF-SCS-MP2 Energies <==================
	-----------------------------------------------------------
	 SCS Same-Spin Scale       =       0.3333333333333333 [-]
	 SCS Opposite-Spin Scale   =       1.2000000000000000 [-]
	 SCS Same-Spin Energy      =      -0.1094017226008139 [Eh]
	 SCS Opposite-Spin Energy  =      -1.2549003694585448 [Eh]
	 SCS Correlation Energy    =      -1.3643020920593587 [Eh]
	 SCS Total Energy          =    -344.3315260252032317 [Eh]
	-----------------------------------------------------------

  Dipole Moment: [D]
     X:     3.1447      Y:    -1.3552      Z:     0.9961     Total:     3.5662

*** Psi4 exiting successfully. Buy a developer a beer!
