                               Psi4 1.3.2 release

  ==> Input File <==

--------------------------------------------------------------------------
#psi4
#
memory 32 gb

molecule  {
0 1
  O       -0.0679570     1.2803790     0.2912690
  O       -2.4243090     0.0219280    -0.2318400
  O        2.3232750     0.1233060    -0.2580880
  C       -0.0144270    -0.0326130    -0.2709570
  C       -1.3304834    -0.7963285     0.1566478
  C        1.2539810    -0.7230840     0.1827990
  H       -0.0165290     0.0250030    -1.3695790
  H       -1.2581130    -0.8122820     1.2878600
  H       -1.3731370    -1.7140640    -0.2443670
  H        1.3313060    -1.7269980    -0.2572240
  H        1.2460610    -0.8115580     1.2773110
  H        0.7929870     1.6883420     0.0827150
  H       -2.2316960     0.9438620     0.0200080
  H        3.1428520    -0.1742490     0.1698040
units angstrom
no_reorient  #important for SAPT in psi4, default
symmetry c1  #important for SAPT in psi4, default
}

set PROPERTIES_ORIGIN ["COM"]
properties('MP2/aug-cc-pvtz', properties = ['dipole'])
--------------------------------------------------------------------------

    Molecular point group: c1
  Charge       = 0
  Multiplicity = 1
  Basis Set: AUG-CC-PVTZ
    Blend: AUG-CC-PVTZ
  Basis Set: (AUG-CC-PVTZ AUX)
    Blend: AUG-CC-PVTZ-JKFIT

    Orbital Energies [Eh]
    ---------------------

    Doubly Occupied:

       1A    -20.581055     2A    -20.564316     3A    -20.549140
       4A    -11.291517     5A    -11.286398     6A    -11.277710
       7A     -1.388729     8A     -1.362469     9A     -1.338990
      10A     -1.031959    11A     -0.920326    12A     -0.817913
      13A     -0.740473    14A     -0.693632    15A     -0.664222
      16A     -0.661486    17A     -0.612743    18A     -0.604346
      19A     -0.582539    20A     -0.543525    21A     -0.530976
      22A     -0.492542    23A     -0.470258    24A     -0.452865
      25A     -0.424503

  @DF-RHF Final Energy:  -342.95548673567760

   => Energetics <=

    Nuclear Repulsion Energy =            261.4988517728903048
    One-Electron Energy =                -989.1394137242575653
    Two-Electron Energy =                 384.6850752156897215
    Total Energy =                       -342.9554867356775958
  Basis Set: (AUG-CC-PVTZ AUX)
    Blend: AUG-CC-PVTZ-RI
    Molecular point group: c1

    Geometry (in Angstrom), charge = 0, multiplicity = 1:

       Center              X                  Y                   Z               Mass
    ------------   -----------------  -----------------  -----------------  -----------------
         O           -0.044625154423     1.263256241754     0.306278287274    15.994914619570
         O           -2.400977154423     0.004805241754    -0.216830712726    15.994914619570
         O            2.346606845577     0.106183241754    -0.243078712726    15.994914619570
         C            0.008904845577    -0.049735758246    -0.255947712726    12.000000000000
         C           -1.307151554423    -0.813451258246     0.171657087274    12.000000000000
         C            1.277312845577    -0.740206758246     0.197808287274    12.000000000000
         H            0.006802845577     0.007880241754    -1.354569712726     1.007825032230
         H           -1.234781154423    -0.829404758246     1.302869287274     1.007825032230
         H           -1.349805154423    -1.731186758246    -0.229357712726     1.007825032230
         H            1.354637845577    -1.744120758246    -0.242214712726     1.007825032230
         H            1.269392845577    -0.828680758246     1.292320287274     1.007825032230
         H            0.816318845577     1.671219241754     0.097724287274     1.007825032230
         H           -2.208364154423     0.926739241754     0.035017287274     1.007825032230
         H            3.166183845577    -0.191371758246     0.184813287274     1.007825032230

  Basis Set: AUG-CC-PVTZ
    Blend: AUG-CC-PVTZ
  Basis Set: (AUG-CC-PVTZ AUX)
    Blend: AUG-CC-PVTZ-JKFIT
	 Reference Energy          =    -342.9554867356775958 [Eh]
	 Singles Energy            =      -0.0000000000000000 [Eh]
	 Same-Spin Energy          =      -0.3280519618527907 [Eh]
	 Opposite-Spin Energy      =      -1.0460220636325586 [Eh]
	 Correlation Energy        =      -1.3740740254853492 [Eh]
	 Total Energy              =    -344.3295607611629521 [Eh]

	 ================> DF-SCS-MP2 Energies <==================
	-----------------------------------------------------------
	 SCS Same-Spin Scale       =       0.3333333333333333 [-]
	 SCS Opposite-Spin Scale   =       1.2000000000000000 [-]
	 SCS Same-Spin Energy      =      -0.1093506539509302 [Eh]
	 SCS Opposite-Spin Energy  =      -1.2552264763590701 [Eh]
	 SCS Correlation Energy    =      -1.3645771303100003 [Eh]
	 SCS Total Energy          =    -344.3200638659876063 [Eh]
	-----------------------------------------------------------

  Dipole Moment: [D]
     X:     3.1111      Y:    -1.4009      Z:     0.9160     Total:     3.5328

*** Psi4 exiting successfully. Buy a developer a beer!
