                               Psi4 1.3.2 release

  ==> Input File <==

--------------------------------------------------------------------------
#psi4
#
memory 32 gb

molecule  {
0 1
  O        0.9755400    -1.0764940     0.0000010
  O       -1.3738420     1.6199730     0.0000050
  N       -1.7006930    -0.6600630    -0.0000030
  C        0.4331944     0.1840696    -0.0000041
  C       -0.9336490     0.4655780     0.0000000
  C        1.5816790     1.0895450    -0.0000030
  C        2.7579030     0.2894600     0.0000000
  C        2.3428020    -1.0138960     0.0000040
  C       -3.1488560    -0.5988880     0.0000010
  H        1.5004040     2.1673970    -0.0000090
  H       -1.2325350    -1.5568070    -0.0000080
  H        3.7847070     0.6289700     0.0000040
  H        2.8531580    -1.9656810     0.0000030
  H       -3.4251050     0.4551520     0.0000010
  H       -3.5616590    -1.0800960     0.8913170
  H       -3.5616630    -1.0800960    -0.8913140
units angstrom
no_reorient  #important for SAPT in psi4, default
symmetry c1  #important for SAPT in psi4, default
}

set PROPERTIES_ORIGIN ["COM"]
properties('MP2/aug-cc-pvtz', properties = ['dipole'])
--------------------------------------------------------------------------

    Molecular point group: c1
  Charge       = 0
  Multiplicity = 1
  Basis Set: AUG-CC-PVTZ
    Blend: AUG-CC-PVTZ
  Basis Set: (AUG-CC-PVTZ AUX)
    Blend: AUG-CC-PVTZ-JKFIT

    Orbital Energies [Eh]
    ---------------------

    Doubly Occupied:

       1A    -20.647623     2A    -20.511558     3A    -15.584586
       4A    -11.351983     5A    -11.320593     6A    -11.303716
       7A    -11.268136     8A    -11.256649     9A    -11.252090
      10A     -1.473831    11A     -1.369762    12A     -1.230379
      13A     -1.093113    14A     -1.048110    15A     -0.952460
      16A     -0.857111    17A     -0.816277    18A     -0.773787
      19A     -0.763744    20A     -0.682493    21A     -0.659522
      22A     -0.641081    23A     -0.616343    24A     -0.602687
      25A     -0.581398    26A     -0.580852    27A     -0.553768
      28A     -0.536819    29A     -0.535014    30A     -0.434229
      31A     -0.410957    32A     -0.389945    33A     -0.322937

  @DF-RHF Final Energy:  -435.58294212923556

   => Energetics <=

    Nuclear Repulsion Energy =            429.5407468397744424
    One-Electron Energy =               -1445.4002760789942386
    Two-Electron Energy =                 580.2765871099842343
    Total Energy =                       -435.5829421292355619
  Basis Set: (AUG-CC-PVTZ AUX)
    Blend: AUG-CC-PVTZ-RI
    Molecular point group: c1

    Geometry (in Angstrom), charge = 0, multiplicity = 1:

       Center              X                  Y                   Z               Mass
    ------------   -----------------  -----------------  -----------------  -----------------
         O            0.955228169982    -1.092409748914     0.000000818363    15.994914619570
         O           -1.394153830018     1.604057251086     0.000004818363    15.994914619570
         N           -1.721004830018    -0.675978748914    -0.000003181637    14.003074004430
         C            0.412882569982     0.168153851086    -0.000004281637    12.000000000000
         C           -0.953960830018     0.449662251086    -0.000000181637    12.000000000000
         C            1.561367169982     1.073629251086    -0.000003181637    12.000000000000
         C            2.737591169982     0.273544251086    -0.000000181637    12.000000000000
         C            2.322490169982    -1.029811748914     0.000003818363    12.000000000000
         C           -3.169167830018    -0.614803748914     0.000000818363    12.000000000000
         H            1.480092169982     2.151481251086    -0.000009181637     1.007825032230
         H           -1.252846830018    -1.572722748914    -0.000008181637     1.007825032230
         H            3.764395169982     0.613054251086     0.000003818363     1.007825032230
         H            2.832846169982    -1.981596748914     0.000002818363     1.007825032230
         H           -3.445416830018     0.439236251086     0.000000818363     1.007825032230
         H           -3.581970830018    -1.096011748914     0.891316818363     1.007825032230
         H           -3.581974830018    -1.096011748914    -0.891314181637     1.007825032230

  Basis Set: AUG-CC-PVTZ
    Blend: AUG-CC-PVTZ
  Basis Set: (AUG-CC-PVTZ AUX)
    Blend: AUG-CC-PVTZ-JKFIT
	 Reference Energy          =    -435.5829421292355619 [Eh]
	 Singles Energy            =      -0.0000000000000000 [Eh]
	 Same-Spin Energy          =      -0.4505562615120902 [Eh]
	 Opposite-Spin Energy      =      -1.3752554063748608 [Eh]
	 Correlation Energy        =      -1.8258116678869509 [Eh]
	 Total Energy              =    -437.4087537971225288 [Eh]

	 ================> DF-SCS-MP2 Energies <==================
	-----------------------------------------------------------
	 SCS Same-Spin Scale       =       0.3333333333333333 [-]
	 SCS Opposite-Spin Scale   =       1.2000000000000000 [-]
	 SCS Same-Spin Energy      =      -0.1501854205040301 [Eh]
	 SCS Opposite-Spin Energy  =      -1.6503064876498328 [Eh]
	 SCS Correlation Energy    =      -1.8004919081538628 [Eh]
	 SCS Total Energy          =    -437.3834340373894065 [Eh]
	-----------------------------------------------------------

  Dipole Moment: [D]
     X:     1.2698      Y:    -3.3561      Z:    -0.0000     Total:     3.5883

*** Psi4 exiting successfully. Buy a developer a beer!
