                               Psi4 1.3.2 release

  ==> Input File <==

--------------------------------------------------------------------------
#psi4
#
memory 32 gb

molecule  {
0 1
  O        0.9755400    -1.0764940     0.0000010
  O       -1.3738420     1.6199730     0.0000050
  N       -1.7006930    -0.6600630    -0.0000030
  C        0.5224480     0.2188310    -0.0000040
  C       -0.9336490     0.4655780     0.0000000
  C        1.5816790     1.0895450    -0.0000030
  C        2.7579030     0.2894600     0.0000000
  C        2.3428020    -1.0138960     0.0000040
  C       -3.1488560    -0.5988880     0.0000010
  H        1.5004040     2.1673970    -0.0000090
  H       -1.2325350    -1.5568070    -0.0000080
  H        3.7847070     0.6289700     0.0000040
  H        2.8531580    -1.9656810     0.0000030
  H       -3.4251050     0.4551520     0.0000010
  H       -3.5616590    -1.0800960     0.8913170
  H       -3.5616630    -1.0800960    -0.8913140
units angstrom
no_reorient  #important for SAPT in psi4, default
symmetry c1  #important for SAPT in psi4, default
}

set PROPERTIES_ORIGIN ["COM"]
properties('MP2/aug-cc-pvtz', properties = ['dipole'])
--------------------------------------------------------------------------

    Molecular point group: c1
  Charge       = 0
  Multiplicity = 1
  Basis Set: AUG-CC-PVTZ
    Blend: AUG-CC-PVTZ
  Basis Set: (AUG-CC-PVTZ AUX)
    Blend: AUG-CC-PVTZ-JKFIT

    Orbital Energies [Eh]
    ---------------------

    Doubly Occupied:

       1A    -20.643610     2A    -20.515869     3A    -15.589016
       4A    -11.360488     5A    -11.312588     6A    -11.301443
       7A    -11.259403     8A    -11.252523     9A    -11.248053
      10A     -1.474432    11A     -1.371035    12A     -1.231450
      13A     -1.101513    14A     -1.038992    15A     -0.953955
      16A     -0.841141    17A     -0.819629    18A     -0.775401
      19A     -0.764888    20A     -0.671568    21A     -0.658759
      22A     -0.641772    23A     -0.618668    24A     -0.601043
      25A     -0.586523    26A     -0.577453    27A     -0.561666
      28A     -0.542273    29A     -0.536332    30A     -0.433854
      31A     -0.414373    32A     -0.391802    33A     -0.330968

  @DF-RHF Final Energy:  -435.60213443054471

   => Energetics <=

    Nuclear Repulsion Energy =            429.4421101600527209
    One-Electron Energy =               -1445.2435143487807636
    Two-Electron Energy =                 580.1992697581833909
    Total Energy =                       -435.6021344305446519
  Basis Set: (AUG-CC-PVTZ AUX)
    Blend: AUG-CC-PVTZ-RI
    Molecular point group: c1

    Geometry (in Angstrom), charge = 0, multiplicity = 1:

       Center              X                  Y                   Z               Mass
    ------------   -----------------  -----------------  -----------------  -----------------
         O            0.946663091340    -1.095745570939     0.000000808766    15.994914619570
         O           -1.402718908660     1.600721429061     0.000004808766    15.994914619570
         N           -1.729569908660    -0.679314570939    -0.000003191234    14.003074004430
         C            0.493571091340     0.199579429061    -0.000004191234    12.000000000000
         C           -0.962525908660     0.446326429061    -0.000000191234    12.000000000000
         C            1.552802091340     1.070293429061    -0.000003191234    12.000000000000
         C            2.729026091340     0.270208429061    -0.000000191234    12.000000000000
         C            2.313925091340    -1.033147570939     0.000003808766    12.000000000000
         C           -3.177732908660    -0.618139570939     0.000000808766    12.000000000000
         H            1.471527091340     2.148145429061    -0.000009191234     1.007825032230
         H           -1.261411908660    -1.576058570939    -0.000008191234     1.007825032230
         H            3.755830091340     0.609718429061     0.000003808766     1.007825032230
         H            2.824281091340    -1.984932570939     0.000002808766     1.007825032230
         H           -3.453981908660     0.435900429061     0.000000808766     1.007825032230
         H           -3.590535908660    -1.099347570939     0.891316808766     1.007825032230
         H           -3.590539908660    -1.099347570939    -0.891314191234     1.007825032230

  Basis Set: AUG-CC-PVTZ
    Blend: AUG-CC-PVTZ
  Basis Set: (AUG-CC-PVTZ AUX)
    Blend: AUG-CC-PVTZ-JKFIT
	 Reference Energy          =    -435.6021344305447087 [Eh]
	 Singles Energy            =      -0.0000000000000000 [Eh]
	 Same-Spin Energy          =      -0.4478213104640860 [Eh]
	 Opposite-Spin Energy      =      -1.3714205739236418 [Eh]
	 Correlation Energy        =      -1.8192418843877278 [Eh]
	 Total Energy              =    -437.4213763149324450 [Eh]

	 ================> DF-SCS-MP2 Energies <==================
	-----------------------------------------------------------
	 SCS Same-Spin Scale       =       0.3333333333333333 [-]
	 SCS Opposite-Spin Scale   =       1.2000000000000000 [-]
	 SCS Same-Spin Energy      =      -0.1492737701546953 [Eh]
	 SCS Opposite-Spin Energy  =      -1.6457046887083702 [Eh]
	 SCS Correlation Energy    =      -1.7949784588630655 [Eh]
	 SCS Total Energy          =    -437.3971128894077651 [Eh]
	-----------------------------------------------------------

  Dipole Moment: [D]
     X:     1.0918      Y:    -3.2373      Z:    -0.0000     Total:     3.4165

*** Psi4 exiting successfully. Buy a developer a beer!
