                               Psi4 1.3.2 release

  ==> Input File <==

--------------------------------------------------------------------------
#psi4
#
memory 32 gb

molecule  {
0 1
  O        0.9755400    -1.0764940     0.0000010
  O       -1.3939219     1.6121148     0.0000050
  N       -1.7006930    -0.6600630    -0.0000030
  C        0.5224480     0.2188310    -0.0000040
  C       -0.9336490     0.4655780     0.0000000
  C        1.5816790     1.0895450    -0.0000030
  C        2.7579030     0.2894600     0.0000000
  C        2.3428020    -1.0138960     0.0000040
  C       -3.1488560    -0.5988880     0.0000010
  H        1.5004040     2.1673970    -0.0000090
  H       -1.2325350    -1.5568070    -0.0000080
  H        3.7847070     0.6289700     0.0000040
  H        2.8531580    -1.9656810     0.0000030
  H       -3.4251050     0.4551520     0.0000010
  H       -3.5616590    -1.0800960     0.8913170
  H       -3.5616630    -1.0800960    -0.8913140
units angstrom
no_reorient  #important for SAPT in psi4, default
symmetry c1  #important for SAPT in psi4, default
}

set PROPERTIES_ORIGIN ["COM"]
properties('MP2/aug-cc-pvtz', properties = ['dipole'])
--------------------------------------------------------------------------

    Molecular point group: c1
  Charge       = 0
  Multiplicity = 1
  Basis Set: AUG-CC-PVTZ
    Blend: AUG-CC-PVTZ
  Basis Set: (AUG-CC-PVTZ AUX)
    Blend: AUG-CC-PVTZ-JKFIT

    Orbital Energies [Eh]
    ---------------------

    Doubly Occupied:

       1A    -20.644292     2A    -20.515412     3A    -15.587900
       4A    -11.360290     5A    -11.313294     6A    -11.302362
       7A    -11.258475     8A    -11.253360     9A    -11.248613
      10A     -1.475050    11A     -1.371073    12A     -1.230017
      13A     -1.102212    14A     -1.039652    15A     -0.953466
      16A     -0.841356    17A     -0.820276    18A     -0.774945
      19A     -0.765226    20A     -0.671925    21A     -0.659227
      22A     -0.641213    23A     -0.618129    24A     -0.601285
      25A     -0.587161    26A     -0.577781    27A     -0.562131
      28A     -0.541250    29A     -0.535893    30A     -0.433791
      31A     -0.414914    32A     -0.390948    33A     -0.331702

  @DF-RHF Final Energy:  -435.60209463415566

   => Energetics <=

    Nuclear Repulsion Energy =            429.4167248313848404
    One-Electron Energy =               -1445.1883945462820975
    Two-Electron Energy =                 580.1695750807415379
    Total Energy =                       -435.6020946341557192
  Basis Set: (AUG-CC-PVTZ AUX)
    Blend: AUG-CC-PVTZ-RI
    Molecular point group: c1

    Geometry (in Angstrom), charge = 0, multiplicity = 1:

       Center              X                  Y                   Z               Mass
    ------------   -----------------  -----------------  -----------------  -----------------
         O            0.949231521958    -1.094740424425     0.000000808766    15.994914619570
         O           -1.420230378042     1.593868375575     0.000004808766    15.994914619570
         N           -1.727001478042    -0.678309424425    -0.000003191234    14.003074004430
         C            0.496139521958     0.200584575575    -0.000004191234    12.000000000000
         C           -0.959957478042     0.447331575575    -0.000000191234    12.000000000000
         C            1.555370521958     1.071298575575    -0.000003191234    12.000000000000
         C            2.731594521958     0.271213575575    -0.000000191234    12.000000000000
         C            2.316493521958    -1.032142424425     0.000003808766    12.000000000000
         C           -3.175164478042    -0.617134424425     0.000000808766    12.000000000000
         H            1.474095521958     2.149150575575    -0.000009191234     1.007825032230
         H           -1.258843478042    -1.575053424425    -0.000008191234     1.007825032230
         H            3.758398521958     0.610723575575     0.000003808766     1.007825032230
         H            2.826849521958    -1.983927424425     0.000002808766     1.007825032230
         H           -3.451413478042     0.436905575575     0.000000808766     1.007825032230
         H           -3.587967478042    -1.098342424425     0.891316808766     1.007825032230
         H           -3.587971478042    -1.098342424425    -0.891314191234     1.007825032230

  Basis Set: AUG-CC-PVTZ
    Blend: AUG-CC-PVTZ
  Basis Set: (AUG-CC-PVTZ AUX)
    Blend: AUG-CC-PVTZ-JKFIT
	 Reference Energy          =    -435.6020946341556623 [Eh]
	 Singles Energy            =      -0.0000000000000000 [Eh]
	 Same-Spin Energy          =      -0.4478414386626602 [Eh]
	 Opposite-Spin Energy      =      -1.3714150150168776 [Eh]
	 Correlation Energy        =      -1.8192564536795377 [Eh]
	 Total Energy              =    -437.4213510878352054 [Eh]

	 ================> DF-SCS-MP2 Energies <==================
	-----------------------------------------------------------
	 SCS Same-Spin Scale       =       0.3333333333333333 [-]
	 SCS Opposite-Spin Scale   =       1.2000000000000000 [-]
	 SCS Same-Spin Energy      =      -0.1492804795542201 [Eh]
	 SCS Opposite-Spin Energy  =      -1.6456980180202530 [Eh]
	 SCS Correlation Energy    =      -1.7949784975744729 [Eh]
	 SCS Total Energy          =    -437.3970731317301102 [Eh]
	-----------------------------------------------------------

  Dipole Moment: [D]
     X:     1.1693      Y:    -3.2209      Z:    -0.0000     Total:     3.4266

*** Psi4 exiting successfully. Buy a developer a beer!
