                               Psi4 1.3.2 release

  ==> Input File <==

--------------------------------------------------------------------------
#psi4
#
memory 32 gb

molecule  {
0 1
  O        0.9755400    -1.0764940     0.0000010
  O       -1.3738420     1.6199730     0.0000050
  N       -1.7006930    -0.6600630    -0.0000030
  C        0.5224480     0.2188310    -0.0000040
  C       -1.0322434     0.4822856     0.0000003
  C        1.5816790     1.0895450    -0.0000030
  C        2.7579030     0.2894600     0.0000000
  C        2.3428020    -1.0138960     0.0000040
  C       -3.1488560    -0.5988880     0.0000010
  H        1.5004040     2.1673970    -0.0000090
  H       -1.2325350    -1.5568070    -0.0000080
  H        3.7847070     0.6289700     0.0000040
  H        2.8531580    -1.9656810     0.0000030
  H       -3.4251050     0.4551520     0.0000010
  H       -3.5616590    -1.0800960     0.8913170
  H       -3.5616630    -1.0800960    -0.8913140
units angstrom
no_reorient  #important for SAPT in psi4, default
symmetry c1  #important for SAPT in psi4, default
}

set PROPERTIES_ORIGIN ["COM"]
properties('MP2/aug-cc-pvtz', properties = ['dipole'])
--------------------------------------------------------------------------

    Molecular point group: c1
  Charge       = 0
  Multiplicity = 1
  Basis Set: AUG-CC-PVTZ
    Blend: AUG-CC-PVTZ
  Basis Set: (AUG-CC-PVTZ AUX)
    Blend: AUG-CC-PVTZ-JKFIT

    Orbital Energies [Eh]
    ---------------------

    Doubly Occupied:

       1A    -20.635899     2A    -20.525025     3A    -15.595608
       4A    -11.362952     5A    -11.301494     6A    -11.296729
       7A    -11.264268     8A    -11.240813     9A    -11.239358
      10A     -1.465966    11A     -1.405978    12A     -1.255600
      13A     -1.091823    14A     -1.021882    15A     -0.958604
      16A     -0.826192    17A     -0.810619    18A     -0.787914
      19A     -0.756785    20A     -0.670799    21A     -0.653617
      22A     -0.651884    23A     -0.627732    24A     -0.605082
      25A     -0.578299    26A     -0.571352    27A     -0.559912
      28A     -0.553144    29A     -0.545653    30A     -0.431804
      31A     -0.410018    32A     -0.402318    33A     -0.322099

  @DF-RHF Final Energy:  -435.59520509542131

   => Energetics <=

    Nuclear Repulsion Energy =            429.3476632762341865
    One-Electron Energy =               -1445.0312933372897533
    Two-Electron Energy =                 580.0884249656342035
    Total Energy =                       -435.5952050954213064
  Basis Set: (AUG-CC-PVTZ AUX)
    Blend: AUG-CC-PVTZ-RI
    Molecular point group: c1

    Geometry (in Angstrom), charge = 0, multiplicity = 1:

       Center              X                  Y                   Z               Mass
    ------------   -----------------  -----------------  -----------------  -----------------
         O            0.956124544879    -1.097348888989     0.000000779977    15.994914619570
         O           -1.393257455121     1.599118111011     0.000004779977    15.994914619570
         N           -1.720108455121    -0.680917888989    -0.000003220023    14.003074004430
         C            0.503032544879     0.197976111011    -0.000004220023    12.000000000000
         C           -1.051658855121     0.461430711011     0.000000079977    12.000000000000
         C            1.562263544879     1.068690111011    -0.000003220023    12.000000000000
         C            2.738487544879     0.268605111011    -0.000000220023    12.000000000000
         C            2.323386544879    -1.034750888989     0.000003779977    12.000000000000
         C           -3.168271455121    -0.619742888989     0.000000779977    12.000000000000
         H            1.480988544879     2.146542111011    -0.000009220023     1.007825032230
         H           -1.251950455121    -1.577661888989    -0.000008220023     1.007825032230
         H            3.765291544879     0.608115111011     0.000003779977     1.007825032230
         H            2.833742544879    -1.986535888989     0.000002779977     1.007825032230
         H           -3.444520455121     0.434297111011     0.000000779977     1.007825032230
         H           -3.581074455121    -1.100950888989     0.891316779977     1.007825032230
         H           -3.581078455121    -1.100950888989    -0.891314220023     1.007825032230

  Basis Set: AUG-CC-PVTZ
    Blend: AUG-CC-PVTZ
  Basis Set: (AUG-CC-PVTZ AUX)
    Blend: AUG-CC-PVTZ-JKFIT
	 Reference Energy          =    -435.5952050954213064 [Eh]
	 Singles Energy            =      -0.0000000000000000 [Eh]
	 Same-Spin Energy          =      -0.4465190851674816 [Eh]
	 Opposite-Spin Energy      =      -1.3690667186607235 [Eh]
	 Correlation Energy        =      -1.8155858038282051 [Eh]
	 Total Energy              =    -437.4107908992494913 [Eh]

	 ================> DF-SCS-MP2 Energies <==================
	-----------------------------------------------------------
	 SCS Same-Spin Scale       =       0.3333333333333333 [-]
	 SCS Opposite-Spin Scale   =       1.2000000000000000 [-]
	 SCS Same-Spin Energy      =      -0.1488396950558272 [Eh]
	 SCS Opposite-Spin Energy  =      -1.6428800623928681 [Eh]
	 SCS Correlation Energy    =      -1.7917197574486954 [Eh]
	 SCS Total Energy          =    -437.3869248528699814 [Eh]
	-----------------------------------------------------------

  Dipole Moment: [D]
     X:     0.2795      Y:    -3.1506      Z:    -0.0000     Total:     3.1629

*** Psi4 exiting successfully. Buy a developer a beer!
