                               Psi4 1.3.2 release

  ==> Input File <==

--------------------------------------------------------------------------
#psi4
#
memory 32 gb

molecule  {
0 1
  O        0.9755400    -1.0764940     0.0000010
  O       -1.3738420     1.6199730     0.0000050
  N       -1.7006930    -0.6600630    -0.0000030
  C        0.5224480     0.2188310    -0.0000040
  C       -0.9336490     0.4655780     0.0000000
  C        1.5816790     1.0895450    -0.0000030
  C        2.7579030     0.2894600     0.0000000
  C        2.3428020    -1.0138960     0.0000040
  C       -3.1488560    -0.5988880     0.0000010
  H        1.5004040     2.1673970    -0.0000090
  H       -1.2325350    -1.5568070    -0.0000080
  H        3.8796516     0.6603632     0.0000044
  H        2.8531580    -1.9656810     0.0000030
  H       -3.4251050     0.4551520     0.0000010
  H       -3.5616590    -1.0800960     0.8913170
  H       -3.5616630    -1.0800960    -0.8913140
units angstrom
no_reorient  #important for SAPT in psi4, default
symmetry c1  #important for SAPT in psi4, default
}

set PROPERTIES_ORIGIN ["COM"]
properties('MP2/aug-cc-pvtz', properties = ['dipole'])
--------------------------------------------------------------------------

    Molecular point group: c1
  Charge       = 0
  Multiplicity = 1
  Basis Set: AUG-CC-PVTZ
    Blend: AUG-CC-PVTZ
  Basis Set: (AUG-CC-PVTZ AUX)
    Blend: AUG-CC-PVTZ-JKFIT

    Orbital Energies [Eh]
    ---------------------

    Doubly Occupied:

       1A    -20.644192     2A    -20.516142     3A    -15.589276
       4A    -11.360833     5A    -11.313141     6A    -11.302047
       7A    -11.259582     8A    -11.258784     9A    -11.253334
      10A     -1.475007    11A     -1.371312    12A     -1.231703
      13A     -1.100517    14A     -1.038792    15A     -0.953819
      16A     -0.841505    17A     -0.813872    18A     -0.775179
      19A     -0.758872    20A     -0.671845    21A     -0.659299
      22A     -0.639627    23A     -0.618913    24A     -0.596170
      25A     -0.586471    26A     -0.569822    27A     -0.558172
      28A     -0.542478    29A     -0.536589    30A     -0.434115
      31A     -0.414900    32A     -0.392040    33A     -0.331385

  @DF-RHF Final Energy:  -435.59458496767553

   => Energetics <=

    Nuclear Repulsion Energy =            428.9632014537537543
    One-Electron Energy =               -1444.2960998019561885
    Two-Electron Energy =                 579.7383133805268471
    Total Energy =                       -435.5945849676755870
  Basis Set: (AUG-CC-PVTZ AUX)
    Blend: AUG-CC-PVTZ-RI
    Molecular point group: c1

    Geometry (in Angstrom), charge = 0, multiplicity = 1:

       Center              X                  Y                   Z               Mass
    ------------   -----------------  -----------------  -----------------  -----------------
         O            0.945897882856    -1.095998585254     0.000000805543    15.994914619570
         O           -1.403484117144     1.600468414746     0.000004805543    15.994914619570
         N           -1.730335117144    -0.679567585254    -0.000003194457    14.003074004430
         C            0.492805882856     0.199326414746    -0.000004194457    12.000000000000
         C           -0.963291117144     0.446073414746    -0.000000194457    12.000000000000
         C            1.552036882856     1.070040414746    -0.000003194457    12.000000000000
         C            2.728260882856     0.269955414746    -0.000000194457    12.000000000000
         C            2.313159882856    -1.033400585254     0.000003805543    12.000000000000
         C           -3.178498117144    -0.618392585254     0.000000805543    12.000000000000
         H            1.470761882856     2.147892414746    -0.000009194457     1.007825032230
         H           -1.262177117144    -1.576311585254    -0.000008194457     1.007825032230
         H            3.850009482856     0.640858614746     0.000004205543     1.007825032230
         H            2.823515882856    -1.985185585254     0.000002805543     1.007825032230
         H           -3.454747117144     0.435647414746     0.000000805543     1.007825032230
         H           -3.591301117144    -1.099600585254     0.891316805543     1.007825032230
         H           -3.591305117144    -1.099600585254    -0.891314194457     1.007825032230

  Basis Set: AUG-CC-PVTZ
    Blend: AUG-CC-PVTZ
  Basis Set: (AUG-CC-PVTZ AUX)
    Blend: AUG-CC-PVTZ-JKFIT
	 Reference Energy          =    -435.5945849676755302 [Eh]
	 Singles Energy            =      -0.0000000000000000 [Eh]
	 Same-Spin Energy          =      -0.4480007482374629 [Eh]
	 Opposite-Spin Energy      =      -1.3722428465614116 [Eh]
	 Correlation Energy        =      -1.8202435947988744 [Eh]
	 Total Energy              =    -437.4148285624743835 [Eh]

	 ================> DF-SCS-MP2 Energies <==================
	-----------------------------------------------------------
	 SCS Same-Spin Scale       =       0.3333333333333333 [-]
	 SCS Opposite-Spin Scale   =       1.2000000000000000 [-]
	 SCS Same-Spin Energy      =      -0.1493335827458210 [Eh]
	 SCS Opposite-Spin Energy  =      -1.6466914158736938 [Eh]
	 SCS Correlation Energy    =      -1.7960249986195147 [Eh]
	 SCS Total Energy          =    -437.3906099662950169 [Eh]
	-----------------------------------------------------------

  Dipole Moment: [D]
     X:     1.0784      Y:    -3.2303      Z:    -0.0000     Total:     3.4055

*** Psi4 exiting successfully. Buy a developer a beer!
