                               Psi4 1.3.2 release

  ==> Input File <==

--------------------------------------------------------------------------
#psi4
#
memory 32 gb

molecule  {
0 1
  O        0.9755400    -1.0764940     0.0000010
  O       -1.3738420     1.6199730     0.0000050
  N       -1.7006930    -0.6600630    -0.0000030
  C        0.6603284     0.2590961    -0.0000038
  C       -0.9336490     0.4655780     0.0000000
  C        1.5816790     1.0895450    -0.0000030
  C        2.7579030     0.2894600     0.0000000
  C        2.3428020    -1.0138960     0.0000040
  C       -3.1488560    -0.5988880     0.0000010
  H        1.5004040     2.1673970    -0.0000090
  H       -1.2325350    -1.5568070    -0.0000080
  H        3.7847070     0.6289700     0.0000040
  H        2.8531580    -1.9656810     0.0000030
  H       -3.4251050     0.4551520     0.0000010
  H       -3.5616590    -1.0800960     0.8913170
  H       -3.5616630    -1.0800960    -0.8913140
units angstrom
no_reorient  #important for SAPT in psi4, default
symmetry c1  #important for SAPT in psi4, default
}

set PROPERTIES_ORIGIN ["COM"]
properties('MP2/aug-cc-pvtz', properties = ['dipole'])
--------------------------------------------------------------------------

    Molecular point group: c1
  Charge       = 0
  Multiplicity = 1
  Basis Set: AUG-CC-PVTZ
    Blend: AUG-CC-PVTZ
  Basis Set: (AUG-CC-PVTZ AUX)
    Blend: AUG-CC-PVTZ-JKFIT

    Orbital Energies [Eh]
    ---------------------

    Doubly Occupied:

       1A    -20.639132     2A    -20.517951     3A    -15.591658
       4A    -11.365876     5A    -11.305509     6A    -11.295257
       7A    -11.260977     8A    -11.245684     9A    -11.229690
      10A     -1.477325    11A     -1.369370    12A     -1.230834
      13A     -1.129758    14A     -1.026796    15A     -0.954194
      16A     -0.827702    17A     -0.817542    18A     -0.775408
      19A     -0.764132    20A     -0.660871    21A     -0.658199
      22A     -0.640821    23A     -0.620092    24A     -0.609481
      25A     -0.595406    26A     -0.575609    27A     -0.552989
      28A     -0.545027    29A     -0.533664    30A     -0.429555
      31A     -0.424191    32A     -0.392306    33A     -0.340796

  @DF-RHF Final Energy:  -435.57628025468807

   => Energetics <=

    Nuclear Repulsion Energy =            429.6819230318234872
    One-Electron Energy =               -1445.7088073642007657
    Two-Electron Energy =                 580.4506040776891496
    Total Energy =                       -435.5762802546880721
  Basis Set: (AUG-CC-PVTZ AUX)
    Blend: AUG-CC-PVTZ-RI
    Molecular point group: c1

    Geometry (in Angstrom), charge = 0, multiplicity = 1:

       Center              X                  Y                   Z               Mass
    ------------   -----------------  -----------------  -----------------  -----------------
         O            0.933431619791    -1.099609546711     0.000000789574    15.994914619570
         O           -1.415950380209     1.596857453289     0.000004789574    15.994914619570
         N           -1.742801380209    -0.683178546711    -0.000003210426    14.003074004430
         C            0.618220019791     0.235980553289    -0.000004010426    12.000000000000
         C           -0.975757380209     0.442462453289    -0.000000210426    12.000000000000
         C            1.539570619791     1.066429453289    -0.000003210426    12.000000000000
         C            2.715794619791     0.266344453289    -0.000000210426    12.000000000000
         C            2.300693619791    -1.037011546711     0.000003789574    12.000000000000
         C           -3.190964380209    -0.622003546711     0.000000789574    12.000000000000
         H            1.458295619791     2.144281453289    -0.000009210426     1.007825032230
         H           -1.274643380209    -1.579922546711    -0.000008210426     1.007825032230
         H            3.742598619791     0.605854453289     0.000003789574     1.007825032230
         H            2.811049619791    -1.988796546711     0.000002789574     1.007825032230
         H           -3.467213380209     0.432036453289     0.000000789574     1.007825032230
         H           -3.603767380209    -1.103211546711     0.891316789574     1.007825032230
         H           -3.603771380209    -1.103211546711    -0.891314210426     1.007825032230

  Basis Set: AUG-CC-PVTZ
    Blend: AUG-CC-PVTZ
  Basis Set: (AUG-CC-PVTZ AUX)
    Blend: AUG-CC-PVTZ-JKFIT
	 Reference Energy          =    -435.5762802546880721 [Eh]
	 Singles Energy            =      -0.0000000000000000 [Eh]
	 Same-Spin Energy          =      -0.4454776149267283 [Eh]
	 Opposite-Spin Energy      =      -1.3687257875542667 [Eh]
	 Correlation Energy        =      -1.8142034024809950 [Eh]
	 Total Energy              =    -437.3904836571690566 [Eh]

	 ================> DF-SCS-MP2 Energies <==================
	-----------------------------------------------------------
	 SCS Same-Spin Scale       =       0.3333333333333333 [-]
	 SCS Opposite-Spin Scale   =       1.2000000000000000 [-]
	 SCS Same-Spin Energy      =      -0.1484925383089094 [Eh]
	 SCS Opposite-Spin Energy  =      -1.6424709450651200 [Eh]
	 SCS Correlation Energy    =      -1.7909634833740293 [Eh]
	 SCS Total Energy          =    -437.3672437380620863 [Eh]
	-----------------------------------------------------------

  Dipole Moment: [D]
     X:     0.9133      Y:    -3.0589      Z:    -0.0000     Total:     3.1923

*** Psi4 exiting successfully. Buy a developer a beer!
