                               Psi4 1.4a3.dev225

  ==> Input File <==

--------------------------------------------------------------------------
#psi4
#
memory 32 gb

molecule  {
0 1
  O        0.9755400    -1.0764940     0.0000010
  O       -1.3738420     1.6199730     0.0000050
  N       -1.7006930    -0.6600630    -0.0000030
  C        0.5224480     0.2188310    -0.0000040
  C       -0.9336490     0.4655780     0.0000000
  C        1.5816790     1.0895450    -0.0000030
  C        2.7744399     0.2782114     0.0000000
  C        2.3428020    -1.0138960     0.0000040
  C       -3.1488560    -0.5988880     0.0000010
  H        1.5004040     2.1673970    -0.0000090
  H       -1.2325350    -1.5568070    -0.0000080
  H        3.7847070     0.6289700     0.0000040
  H        2.8531580    -1.9656810     0.0000030
  H       -3.4251050     0.4551520     0.0000010
  H       -3.5616590    -1.0800960     0.8913170
  H       -3.5616630    -1.0800960    -0.8913140
units angstrom
no_reorient  #important for SAPT in psi4, default
symmetry c1  #important for SAPT in psi4, default
}

set PROPERTIES_ORIGIN ["COM"]
properties('MP2/aug-cc-pvtz', properties = ['dipole'])
--------------------------------------------------------------------------

    Molecular point group: c1
  Charge       = 0
  Multiplicity = 1
  Basis Set: AUG-CC-PVTZ
    Blend: AUG-CC-PVTZ
  Basis Set: (AUG-CC-PVTZ AUX)
    Blend: AUG-CC-PVTZ-JKFIT

    Orbital Energies [Eh]
    ---------------------

    Doubly Occupied:

       1A    -20.642811     2A    -20.515984     3A    -15.589218
       4A    -11.360670     5A    -11.312341     6A    -11.301615
       7A    -11.259505     8A    -11.254121     9A    -11.248203
      10A     -1.473876    11A     -1.371144    12A     -1.231598
      13A     -1.098468    14A     -1.039663    15A     -0.954364
      16A     -0.840469    17A     -0.820929    18A     -0.774984
      19A     -0.764946    20A     -0.671220    21A     -0.658529
      22A     -0.642339    23A     -0.618755    24A     -0.602749
      25A     -0.586538    26A     -0.578924    27A     -0.558241
      28A     -0.542061    29A     -0.536464    30A     -0.433975
      31A     -0.412322    32A     -0.391800    33A     -0.332906

  @DF-RHF Final Energy:  -435.60242309370335

   => Energetics <=

    Nuclear Repulsion Energy =            429.1720140697898387
    One-Electron Energy =               -1444.7054080054892893
    Two-Electron Energy =                 579.9309708419960998
    Total Energy =                       -435.6024230937033508
  Basis Set: (AUG-CC-PVTZ AUX)
    Blend: AUG-CC-PVTZ-RI
    Molecular point group: c1

    Geometry (in Angstrom), charge = 0, multiplicity = 1:

       Center              X                  Y                   Z               Mass
    ------------   -----------------  -----------------  -----------------  -----------------
         O            0.945076154242    -1.094666117072     0.000000808766    15.994914619570
         O           -1.404305845758     1.601800882928     0.000004808766    15.994914619570
         N           -1.731156845758    -0.678235117072    -0.000003191234    14.003074004430
         C            0.491984154242     0.200658882928    -0.000004191234    12.000000000000
         C           -0.964112845758     0.447405882928    -0.000000191234    12.000000000000
         C            1.551215154242     1.071372882928    -0.000003191234    12.000000000000
         C            2.743976054242     0.260039282928    -0.000000191234    12.000000000000
         C            2.312338154242    -1.032068117072     0.000003808766    12.000000000000
         C           -3.179319845758    -0.617060117072     0.000000808766    12.000000000000
         H            1.469940154242     2.149224882928    -0.000009191234     1.007825032230
         H           -1.262998845758    -1.574979117072    -0.000008191234     1.007825032230
         H            3.754243154242     0.610797882928     0.000003808766     1.007825032230
         H            2.822694154242    -1.983853117072     0.000002808766     1.007825032230
         H           -3.455568845758     0.436979882928     0.000000808766     1.007825032230
         H           -3.592122845758    -1.098268117072     0.891316808766     1.007825032230
         H           -3.592126845758    -1.098268117072    -0.891314191234     1.007825032230

  Basis Set: AUG-CC-PVTZ
    Blend: AUG-CC-PVTZ
  Basis Set: (AUG-CC-PVTZ AUX)
    Blend: AUG-CC-PVTZ-JKFIT
	 Reference Energy          =    -435.6024230937033508 [Eh]
	 Singles Energy            =      -0.0000000000000000 [Eh]
	 Same-Spin Energy          =      -0.4473837576490610 [Eh]
	 Opposite-Spin Energy      =      -1.3710496289939718 [Eh]
	 Correlation Energy        =      -1.8184333866430329 [Eh]
	 Total Energy              =    -437.4208564803464014 [Eh]

	 ================> DF-SCS-MP2 Energies <==================
	-----------------------------------------------------------
	 SCS Same-Spin Scale       =       0.3333333333333333 [-]
	 SCS Opposite-Spin Scale   =       1.2000000000000000 [-]
	 SCS Same-Spin Energy      =      -0.1491279192163537 [Eh]
	 SCS Opposite-Spin Energy  =      -1.6452595547927660 [Eh]
	 SCS Correlation Energy    =      -1.7943874740091197 [Eh]
	 SCS Total Energy          =    -437.3968105677124640 [Eh]
	-----------------------------------------------------------

  Dipole Moment: [D]
     X:     1.0868      Y:    -3.2311      Z:    -0.0000     Total:     3.4089

*** Psi4 exiting successfully. Buy a developer a beer!
