                               Psi4 1.4a3.dev225

  ==> Input File <==

--------------------------------------------------------------------------
#psi4
#
memory 32 gb

molecule  {
0 1
  O        0.9755400    -1.0764940     0.0000010
  O       -1.3738420     1.6199730     0.0000050
  N       -1.7006930    -0.6600630    -0.0000030
  C        0.5224480     0.2188310    -0.0000040
  C       -0.9139301     0.4622365    -0.0000001
  C        1.5816790     1.0895450    -0.0000030
  C        2.7579030     0.2894600     0.0000000
  C        2.3428020    -1.0138960     0.0000040
  C       -3.1488560    -0.5988880     0.0000010
  H        1.5004040     2.1673970    -0.0000090
  H       -1.2325350    -1.5568070    -0.0000080
  H        3.7847070     0.6289700     0.0000040
  H        2.8531580    -1.9656810     0.0000030
  H       -3.4251050     0.4551520     0.0000010
  H       -3.5616590    -1.0800960     0.8913170
  H       -3.5616630    -1.0800960    -0.8913140
units angstrom
no_reorient  #important for SAPT in psi4, default
symmetry c1  #important for SAPT in psi4, default
}

set PROPERTIES_ORIGIN ["COM"]
properties('MP2/aug-cc-pvtz', properties = ['dipole'])
--------------------------------------------------------------------------

    Molecular point group: c1
  Charge       = 0
  Multiplicity = 1
  Basis Set: AUG-CC-PVTZ
    Blend: AUG-CC-PVTZ
  Basis Set: (AUG-CC-PVTZ AUX)
    Blend: AUG-CC-PVTZ-JKFIT

    Orbital Energies [Eh]
    ---------------------

    Doubly Occupied:

       1A    -20.645065     2A    -20.514113     3A    -15.587729
       4A    -11.360139     5A    -11.314951     6A    -11.301722
       7A    -11.258439     8A    -11.255220     9A    -11.249611
      10A     -1.476104    11A     -1.363993    12A     -1.226617
      13A     -1.103518    14A     -1.042904    15A     -0.952956
      16A     -0.845403    17A     -0.821483    18A     -0.773107
      19A     -0.765207    20A     -0.672285    21A     -0.660215
      22A     -0.640164    23A     -0.616628    24A     -0.599534
      25A     -0.588308    26A     -0.578564    27A     -0.563297
      28A     -0.540242    29A     -0.533079    30A     -0.432875
      31A     -0.415783    32A     -0.389138    33A     -0.332611

  @DF-RHF Final Energy:  -435.60042460325508

   => Energetics <=

    Nuclear Repulsion Energy =            429.4724637658108009
    One-Electron Energy =               -1445.3037649511961718
    Two-Electron Energy =                 580.2308765821303496
    Total Energy =                       -435.6004246032550782
  Basis Set: (AUG-CC-PVTZ AUX)
    Blend: AUG-CC-PVTZ-RI
    Molecular point group: c1

    Geometry (in Angstrom), charge = 0, multiplicity = 1:

       Center              X                  Y                   Z               Mass
    ------------   -----------------  -----------------  -----------------  -----------------
         O            0.944770798713    -1.095424909248     0.000000818363    15.994914619570
         O           -1.404611201287     1.601042090752     0.000004818363    15.994914619570
         N           -1.731462201287    -0.678993909248    -0.000003181637    14.003074004430
         C            0.491678798713     0.199900090752    -0.000004181637    12.000000000000
         C           -0.944699301287     0.443305590752    -0.000000281637    12.000000000000
         C            1.550909798713     1.070614090752    -0.000003181637    12.000000000000
         C            2.727133798713     0.270529090752    -0.000000181637    12.000000000000
         C            2.312032798713    -1.032826909248     0.000003818363    12.000000000000
         C           -3.179625201287    -0.617818909248     0.000000818363    12.000000000000
         H            1.469634798713     2.148466090752    -0.000009181637     1.007825032230
         H           -1.263304201287    -1.575737909248    -0.000008181637     1.007825032230
         H            3.753937798713     0.610039090752     0.000003818363     1.007825032230
         H            2.822388798713    -1.984611909248     0.000002818363     1.007825032230
         H           -3.455874201287     0.436221090752     0.000000818363     1.007825032230
         H           -3.592428201287    -1.099026909248     0.891316818363     1.007825032230
         H           -3.592432201287    -1.099026909248    -0.891314181637     1.007825032230

  Basis Set: AUG-CC-PVTZ
    Blend: AUG-CC-PVTZ
  Basis Set: (AUG-CC-PVTZ AUX)
    Blend: AUG-CC-PVTZ-JKFIT
	 Reference Energy          =    -435.6004246032550782 [Eh]
	 Singles Energy            =      -0.0000000000000000 [Eh]
	 Same-Spin Energy          =      -0.4482189534533326 [Eh]
	 Opposite-Spin Energy      =      -1.3721285093587057 [Eh]
	 Correlation Energy        =      -1.8203474628120384 [Eh]
	 Total Energy              =    -437.4207720660671157 [Eh]

	 ================> DF-SCS-MP2 Energies <==================
	-----------------------------------------------------------
	 SCS Same-Spin Scale       =       0.3333333333333333 [-]
	 SCS Opposite-Spin Scale   =       1.2000000000000000 [-]
	 SCS Same-Spin Energy      =      -0.1494063178177775 [Eh]
	 SCS Opposite-Spin Energy  =      -1.6465542112304468 [Eh]
	 SCS Correlation Energy    =      -1.7959605290482243 [Eh]
	 SCS Total Energy          =    -437.3963851323032941 [Eh]
	-----------------------------------------------------------

  Dipole Moment: [D]
     X:     1.2479      Y:    -3.2511      Z:    -0.0000     Total:     3.4823

*** Psi4 exiting successfully. Buy a developer a beer!
