                               Psi4 1.4a3.dev225

  ==> Input File <==

--------------------------------------------------------------------------
#psi4
#
memory 32 gb

molecule  {
0 1
  O        0.9755400    -1.0764940     0.0000010
  O       -1.3738420     1.6199730     0.0000050
  N       -1.7006930    -0.6600630    -0.0000030
  C        0.5224480     0.2188310    -0.0000040
  C       -0.9336490     0.4655780     0.0000000
  C        1.5816790     1.0895450    -0.0000030
  C        2.7579030     0.2894600     0.0000000
  C        2.3428020    -1.0138960     0.0000040
  C       -3.1488560    -0.5988880     0.0000010
  H        1.5004040     2.1673970    -0.0000090
  H       -1.2325350    -1.5568070    -0.0000080
  H        3.7372347     0.6132734     0.0000038
  H        2.8531580    -1.9656810     0.0000030
  H       -3.4251050     0.4551520     0.0000010
  H       -3.5616590    -1.0800960     0.8913170
  H       -3.5616630    -1.0800960    -0.8913140
units angstrom
no_reorient  #important for SAPT in psi4, default
symmetry c1  #important for SAPT in psi4, default
}

set PROPERTIES_ORIGIN ["COM"]
properties('MP2/aug-cc-pvtz', properties = ['dipole'])
--------------------------------------------------------------------------

    Molecular point group: c1
  Charge       = 0
  Multiplicity = 1
  Basis Set: AUG-CC-PVTZ
    Blend: AUG-CC-PVTZ
  Basis Set: (AUG-CC-PVTZ AUX)
    Blend: AUG-CC-PVTZ-JKFIT

    Orbital Energies [Eh]
    ---------------------

    Doubly Occupied:

       1A    -20.643388     2A    -20.515760     3A    -15.588914
       4A    -11.360348     5A    -11.312418     6A    -11.301192
       7A    -11.259334     8A    -11.252113     9A    -11.242478
      10A     -1.474208    11A     -1.370924    12A     -1.231351
      13A     -1.102367    14A     -1.039233    15A     -0.954126
      16A     -0.841005    17A     -0.824094    18A     -0.775838
      19A     -0.767723    20A     -0.671476    21A     -0.658547
      22A     -0.643389    23A     -0.618573    24A     -0.604930
      25A     -0.586743    26A     -0.580020    27A     -0.562007
      28A     -0.542192    29A     -0.536231    30A     -0.433750
      31A     -0.414199    32A     -0.391709    33A     -0.330823

  @DF-RHF Final Energy:  -435.60125001059043

   => Energetics <=

    Nuclear Repulsion Energy =            429.7043777557767044
    One-Electron Energy =               -1445.7484489024423056
    Two-Electron Energy =                 580.4428211360751675
    Total Energy =                       -435.6012500105904337
  Basis Set: (AUG-CC-PVTZ AUX)
    Blend: AUG-CC-PVTZ-RI
    Molecular point group: c1

    Geometry (in Angstrom), charge = 0, multiplicity = 1:

       Center              X                  Y                   Z               Mass
    ------------   -----------------  -----------------  -----------------  -----------------
         O            0.947045695583    -1.095619063781     0.000000810378    15.994914619570
         O           -1.402336304417     1.600847936219     0.000004810378    15.994914619570
         N           -1.729187304417    -0.679188063781    -0.000003189622    14.003074004430
         C            0.493953695583     0.199705936219    -0.000004189622    12.000000000000
         C           -0.962143304417     0.446452936219    -0.000000189622    12.000000000000
         C            1.553184695583     1.070419936219    -0.000003189622    12.000000000000
         C            2.729408695583     0.270334936219    -0.000000189622    12.000000000000
         C            2.314307695583    -1.033021063781     0.000003810378    12.000000000000
         C           -3.177350304417    -0.618013063781     0.000000810378    12.000000000000
         H            1.471909695583     2.148271936219    -0.000009189622     1.007825032230
         H           -1.261029304417    -1.575932063781    -0.000008189622     1.007825032230
         H            3.708740395583     0.594148336219     0.000003610378     1.007825032230
         H            2.824663695583    -1.984806063781     0.000002810378     1.007825032230
         H           -3.453599304417     0.436026936219     0.000000810378     1.007825032230
         H           -3.590153304417    -1.099221063781     0.891316810378     1.007825032230
         H           -3.590157304417    -1.099221063781    -0.891314189622     1.007825032230

  Basis Set: AUG-CC-PVTZ
    Blend: AUG-CC-PVTZ
  Basis Set: (AUG-CC-PVTZ AUX)
    Blend: AUG-CC-PVTZ-JKFIT
	 Reference Energy          =    -435.6012500105904337 [Eh]
	 Singles Energy            =      -0.0000000000000000 [Eh]
	 Same-Spin Energy          =      -0.4477544005995659 [Eh]
	 Opposite-Spin Energy      =      -1.3711644356413129 [Eh]
	 Correlation Energy        =      -1.8189188362408788 [Eh]
	 Total Energy              =    -437.4201688468313023 [Eh]

	 ================> DF-SCS-MP2 Energies <==================
	-----------------------------------------------------------
	 SCS Same-Spin Scale       =       0.3333333333333333 [-]
	 SCS Opposite-Spin Scale   =       1.2000000000000000 [-]
	 SCS Same-Spin Energy      =      -0.1492514668665220 [Eh]
	 SCS Opposite-Spin Energy  =      -1.6453973227695753 [Eh]
	 SCS Correlation Energy    =      -1.7946487896360972 [Eh]
	 SCS Total Energy          =    -437.3958988002265187 [Eh]
	-----------------------------------------------------------

  Dipole Moment: [D]
     X:     1.0944      Y:    -3.2419      Z:    -0.0000     Total:     3.4217

*** Psi4 exiting successfully. Buy a developer a beer!
