                               Psi4 1.3.2 release

  ==> Input File <==

--------------------------------------------------------------------------
#psi4
#
memory 32 gb

molecule  {
0 1
  O        0.9755400    -1.0764940     0.0000010
  O       -1.3738420     1.6199730     0.0000050
  N       -1.7006930    -0.6600630    -0.0000030
  C        0.5857662     0.1470638    -0.0000038
  C       -0.9336490     0.4655780     0.0000000
  C        1.5816790     1.0895450    -0.0000030
  C        2.7579030     0.2894600     0.0000000
  C        2.3428020    -1.0138960     0.0000040
  C       -3.1488560    -0.5988880     0.0000010
  H        1.5004040     2.1673970    -0.0000090
  H       -1.2325350    -1.5568070    -0.0000080
  H        3.7847070     0.6289700     0.0000040
  H        2.8531580    -1.9656810     0.0000030
  H       -3.4251050     0.4551520     0.0000010
  H       -3.5616590    -1.0800960     0.8913170
  H       -3.5616630    -1.0800960    -0.8913140
units angstrom
no_reorient  #important for SAPT in psi4, default
symmetry c1  #important for SAPT in psi4, default
}

set PROPERTIES_ORIGIN ["COM"]
properties('MP2/aug-cc-pvtz', properties = ['dipole'])
--------------------------------------------------------------------------

    Molecular point group: c1
  Charge       = 0
  Multiplicity = 1
  Basis Set: AUG-CC-PVTZ
    Blend: AUG-CC-PVTZ
  Basis Set: (AUG-CC-PVTZ AUX)
    Blend: AUG-CC-PVTZ-JKFIT

    Orbital Energies [Eh]
    ---------------------

    Doubly Occupied:

       1A    -20.654973     2A    -20.519593     3A    -15.590513
       4A    -11.364585     5A    -11.305172     6A    -11.304411
       7A    -11.260163     8A    -11.248663     9A    -11.241831
      10A     -1.515184    11A     -1.370734    12A     -1.232499
      13A     -1.105700    14A     -1.036083    15A     -0.954379
      16A     -0.831905    17A     -0.826626    18A     -0.779150
      19A     -0.770162    20A     -0.679617    21A     -0.670014
      22A     -0.641299    23A     -0.620979    24A     -0.604870
      25A     -0.598232    26A     -0.580174    27A     -0.551643
      28A     -0.540590    29A     -0.535158    30A     -0.430207
      31A     -0.414955    32A     -0.393022    33A     -0.327106

  @DF-RHF Final Energy:  -435.59403367831067

   => Energetics <=

    Nuclear Repulsion Energy =            430.0917277095063014
    One-Electron Energy =               -1446.3711424300429371
    Two-Electron Energy =                 580.6853810422259130
    Total Energy =                       -435.5940336783106659
  Basis Set: (AUG-CC-PVTZ AUX)
    Blend: AUG-CC-PVTZ-RI
    Molecular point group: c1

    Geometry (in Angstrom), charge = 0, multiplicity = 1:

       Center              X                  Y                   Z               Mass
    ------------   -----------------  -----------------  -----------------  -----------------
         O            0.940586861783    -1.088858546641     0.000000789574    15.994914619570
         O           -1.408795138217     1.607608453359     0.000004789574    15.994914619570
         N           -1.735646138217    -0.672427546641    -0.000003210426    14.003074004430
         C            0.550813061783     0.134699253359    -0.000004010426    12.000000000000
         C           -0.968602138217     0.453213453359    -0.000000210426    12.000000000000
         C            1.546725861783     1.077180453359    -0.000003210426    12.000000000000
         C            2.722949861783     0.277095453359    -0.000000210426    12.000000000000
         C            2.307848861783    -1.026260546641     0.000003789574    12.000000000000
         C           -3.183809138217    -0.611252546641     0.000000789574    12.000000000000
         H            1.465450861783     2.155032453359    -0.000009210426     1.007825032230
         H           -1.267488138217    -1.569171546641    -0.000008210426     1.007825032230
         H            3.749753861783     0.616605453359     0.000003789574     1.007825032230
         H            2.818204861783    -1.978045546641     0.000002789574     1.007825032230
         H           -3.460058138217     0.442787453359     0.000000789574     1.007825032230
         H           -3.596612138217    -1.092460546641     0.891316789574     1.007825032230
         H           -3.596616138217    -1.092460546641    -0.891314210426     1.007825032230

  Basis Set: AUG-CC-PVTZ
    Blend: AUG-CC-PVTZ
  Basis Set: (AUG-CC-PVTZ AUX)
    Blend: AUG-CC-PVTZ-JKFIT
	 Reference Energy          =    -435.5940336783106659 [Eh]
	 Singles Energy            =      -0.0000000000000000 [Eh]
	 Same-Spin Energy          =      -0.4474771137205161 [Eh]
	 Opposite-Spin Energy      =      -1.3698295441610719 [Eh]
	 Correlation Energy        =      -1.8173066578815882 [Eh]
	 Total Energy              =    -437.4113403361922678 [Eh]

	 ================> DF-SCS-MP2 Energies <==================
	-----------------------------------------------------------
	 SCS Same-Spin Scale       =       0.3333333333333333 [-]
	 SCS Opposite-Spin Scale   =       1.2000000000000000 [-]
	 SCS Same-Spin Energy      =      -0.1491590379068387 [Eh]
	 SCS Opposite-Spin Energy  =      -1.6437954529932863 [Eh]
	 SCS Correlation Energy    =      -1.7929544909001249 [Eh]
	 SCS Total Energy          =    -437.3869881692107811 [Eh]
	-----------------------------------------------------------

  Dipole Moment: [D]
     X:     0.9770      Y:    -3.3195      Z:    -0.0000     Total:     3.4603

*** Psi4 exiting successfully. Buy a developer a beer!
