                               Psi4 1.3.2 release

  ==> Input File <==

--------------------------------------------------------------------------
#psi4
#
memory 32 gb

molecule  {
0 1
  O        0.9755400    -1.0764940     0.0000010
  O       -1.3738420     1.6199730     0.0000050
  N       -1.7006930    -0.6600630    -0.0000030
  C        0.5224480     0.2188310    -0.0000040
  C       -0.9413733     0.4146106    -0.0000002
  C        1.5816790     1.0895450    -0.0000030
  C        2.7579030     0.2894600     0.0000000
  C        2.3428020    -1.0138960     0.0000040
  C       -3.1488560    -0.5988880     0.0000010
  H        1.5004040     2.1673970    -0.0000090
  H       -1.2325350    -1.5568070    -0.0000080
  H        3.7847070     0.6289700     0.0000040
  H        2.8531580    -1.9656810     0.0000030
  H       -3.4251050     0.4551520     0.0000010
  H       -3.5616590    -1.0800960     0.8913170
  H       -3.5616630    -1.0800960    -0.8913140
units angstrom
no_reorient  #important for SAPT in psi4, default
symmetry c1  #important for SAPT in psi4, default
}

set PROPERTIES_ORIGIN ["COM"]
properties('MP2/aug-cc-pvtz', properties = ['dipole'])
--------------------------------------------------------------------------

    Molecular point group: c1
  Charge       = 0
  Multiplicity = 1
  Basis Set: AUG-CC-PVTZ
    Blend: AUG-CC-PVTZ
  Basis Set: (AUG-CC-PVTZ AUX)
    Blend: AUG-CC-PVTZ-JKFIT

    Orbital Energies [Eh]
    ---------------------

    Doubly Occupied:

       1A    -20.642885     2A    -20.504449     3A    -15.599126
       4A    -11.358683     5A    -11.312065     6A    -11.302118
       7A    -11.264863     8A    -11.252585     9A    -11.247949
      10A     -1.474592    11A     -1.348897    12A     -1.240384
      13A     -1.100919    14A     -1.039703    15A     -0.964236
      16A     -0.841302    17A     -0.819035    18A     -0.785570
      19A     -0.765857    20A     -0.670432    21A     -0.659514
      22A     -0.646457    23A     -0.624847    24A     -0.590519
      25A     -0.585714    26A     -0.574291    27A     -0.558840
      28A     -0.546195    29A     -0.529283    30A     -0.424023
      31A     -0.414547    32A     -0.391326    33A     -0.330136

  @DF-RHF Final Energy:  -435.59553830346232

   => Energetics <=

    Nuclear Repulsion Energy =            429.5003500233752334
    One-Electron Energy =               -1445.3690953623513451
    Two-Electron Energy =                 580.2732070355139058
    Total Energy =                       -435.5955383034622628
  Basis Set: (AUG-CC-PVTZ AUX)
    Blend: AUG-CC-PVTZ-RI
    Molecular point group: c1

    Geometry (in Angstrom), charge = 0, multiplicity = 1:

       Center              X                  Y                   Z               Mass
    ------------   -----------------  -----------------  -----------------  -----------------
         O            0.947404341407    -1.090854566104     0.000000827959    15.994914619570
         O           -1.401977658593     1.605612433896     0.000004827959    15.994914619570
         N           -1.728828658593    -0.674423566104    -0.000003172041    14.003074004430
         C            0.494312341407     0.204470433896    -0.000004172041    12.000000000000
         C           -0.969508958593     0.400250033896    -0.000000372041    12.000000000000
         C            1.553543341407     1.075184433896    -0.000003172041    12.000000000000
         C            2.729767341407     0.275099433896    -0.000000172041    12.000000000000
         C            2.314666341407    -1.028256566104     0.000003827959    12.000000000000
         C           -3.176991658593    -0.613248566104     0.000000827959    12.000000000000
         H            1.472268341407     2.153036433896    -0.000009172041     1.007825032230
         H           -1.260670658593    -1.571167566104    -0.000008172041     1.007825032230
         H            3.756571341407     0.614609433896     0.000003827959     1.007825032230
         H            2.825022341407    -1.980041566104     0.000002827959     1.007825032230
         H           -3.453240658593     0.440791433896     0.000000827959     1.007825032230
         H           -3.589794658593    -1.094456566104     0.891316827959     1.007825032230
         H           -3.589798658593    -1.094456566104    -0.891314172041     1.007825032230

  Basis Set: AUG-CC-PVTZ
    Blend: AUG-CC-PVTZ
  Basis Set: (AUG-CC-PVTZ AUX)
    Blend: AUG-CC-PVTZ-JKFIT
	 Reference Energy          =    -435.5955383034623196 [Eh]
	 Singles Energy            =      -0.0000000000000000 [Eh]
	 Same-Spin Energy          =      -0.4485544017519631 [Eh]
	 Opposite-Spin Energy      =      -1.3727864195845132 [Eh]
	 Correlation Energy        =      -1.8213408213364763 [Eh]
	 Total Energy              =    -437.4168791247988111 [Eh]

	 ================> DF-SCS-MP2 Energies <==================
	-----------------------------------------------------------
	 SCS Same-Spin Scale       =       0.3333333333333333 [-]
	 SCS Opposite-Spin Scale   =       1.2000000000000000 [-]
	 SCS Same-Spin Energy      =      -0.1495181339173210 [Eh]
	 SCS Opposite-Spin Energy  =      -1.6473437035014158 [Eh]
	 SCS Correlation Energy    =      -1.7968618374187368 [Eh]
	 SCS Total Energy          =    -437.3924001408810796 [Eh]
	-----------------------------------------------------------

  Dipole Moment: [D]
     X:     0.9280      Y:    -3.6349      Z:    -0.0000     Total:     3.7515

*** Psi4 exiting successfully. Buy a developer a beer!
