                               Psi4 1.3.2 release

  ==> Input File <==

--------------------------------------------------------------------------
#psi4
#
memory 32 gb

molecule  {
0 1
  O        0.9755400    -1.0764940     0.0000010
  O       -1.3738420     1.6199730     0.0000050
  N       -1.7006930    -0.6600630    -0.0000030
  C        0.5224480     0.2188310    -0.0000040
  C       -0.9336490     0.4655780     0.0000000
  C        1.5816790     1.0895450    -0.0000030
  C        2.8405874     0.2332169     0.0000002
  C        2.3428020    -1.0138960     0.0000040
  C       -3.1488560    -0.5988880     0.0000010
  H        1.5004040     2.1673970    -0.0000090
  H       -1.2325350    -1.5568070    -0.0000080
  H        3.7847070     0.6289700     0.0000040
  H        2.8531580    -1.9656810     0.0000030
  H       -3.4251050     0.4551520     0.0000010
  H       -3.5616590    -1.0800960     0.8913170
  H       -3.5616630    -1.0800960    -0.8913140
units angstrom
no_reorient  #important for SAPT in psi4, default
symmetry c1  #important for SAPT in psi4, default
}

set PROPERTIES_ORIGIN ["COM"]
properties('MP2/aug-cc-pvtz', properties = ['dipole'])
--------------------------------------------------------------------------

    Molecular point group: c1
  Charge       = 0
  Multiplicity = 1
  Basis Set: AUG-CC-PVTZ
    Blend: AUG-CC-PVTZ
  Basis Set: (AUG-CC-PVTZ AUX)
    Blend: AUG-CC-PVTZ-JKFIT

    Orbital Energies [Eh]
    ---------------------

    Doubly Occupied:

       1A    -20.640352     2A    -20.516413     3A    -15.589991
       4A    -11.361389     5A    -11.312105     6A    -11.302381
       7A    -11.259902     8A    -11.259725     9A    -11.249189
      10A     -1.472096    11A     -1.371562    12A     -1.232173
      13A     -1.088563    14A     -1.042073    15A     -0.955841
      16A     -0.838927    17A     -0.825833    18A     -0.774031
      19A     -0.765842    20A     -0.670102    21A     -0.657903
      22A     -0.645666    23A     -0.619125    24A     -0.615550
      25A     -0.588647    26A     -0.577190    27A     -0.545985
      28A     -0.536988    29A     -0.534925    30A     -0.434425
      31A     -0.405962    32A     -0.391662    33A     -0.340085

  @DF-RHF Final Energy:  -435.59477617744233

   => Energetics <=

    Nuclear Repulsion Energy =            428.1230835028854926
    One-Electron Energy =               -1442.5905165009019129
    Two-Electron Energy =                 578.8726568205740932
    Total Energy =                       -435.5947761774423270
  Basis Set: (AUG-CC-PVTZ AUX)
    Blend: AUG-CC-PVTZ-RI
    Molecular point group: c1

    Geometry (in Angstrom), charge = 0, multiplicity = 1:

       Center              X                  Y                   Z               Mass
    ------------   -----------------  -----------------  -----------------  -----------------
         O            0.938728415446    -1.090348292011     0.000000789574    15.994914619570
         O           -1.410653584554     1.606118707989     0.000004789574    15.994914619570
         N           -1.737504584554    -0.673917292011    -0.000003210426    14.003074004430
         C            0.485636415446     0.204976707989    -0.000004210426    12.000000000000
         C           -0.970460584554     0.451723707989    -0.000000210426    12.000000000000
         C            1.544867415446     1.075690707989    -0.000003210426    12.000000000000
         C            2.803775815446     0.219362607989    -0.000000010426    12.000000000000
         C            2.305990415446    -1.027750292011     0.000003789574    12.000000000000
         C           -3.185667584554    -0.612742292011     0.000000789574    12.000000000000
         H            1.463592415446     2.153542707989    -0.000009210426     1.007825032230
         H           -1.269346584554    -1.570661292011    -0.000008210426     1.007825032230
         H            3.747895415446     0.615115707989     0.000003789574     1.007825032230
         H            2.816346415446    -1.979535292011     0.000002789574     1.007825032230
         H           -3.461916584554     0.441297707989     0.000000789574     1.007825032230
         H           -3.598470584554    -1.093950292011     0.891316789574     1.007825032230
         H           -3.598474584554    -1.093950292011    -0.891314210426     1.007825032230

  Basis Set: AUG-CC-PVTZ
    Blend: AUG-CC-PVTZ
  Basis Set: (AUG-CC-PVTZ AUX)
    Blend: AUG-CC-PVTZ-JKFIT
	 Reference Energy          =    -435.5947761774423270 [Eh]
	 Singles Energy            =      -0.0000000000000000 [Eh]
	 Same-Spin Energy          =      -0.4459677476803808 [Eh]
	 Opposite-Spin Energy      =      -1.3702572732096077 [Eh]
	 Correlation Energy        =      -1.8162250208899886 [Eh]
	 Total Energy              =    -437.4110011983323147 [Eh]

	 ================> DF-SCS-MP2 Energies <==================
	-----------------------------------------------------------
	 SCS Same-Spin Scale       =       0.3333333333333333 [-]
	 SCS Opposite-Spin Scale   =       1.2000000000000000 [-]
	 SCS Same-Spin Energy      =      -0.1486559158934603 [Eh]
	 SCS Opposite-Spin Energy  =      -1.6443087278515292 [Eh]
	 SCS Correlation Energy    =      -1.7929646437449893 [Eh]
	 SCS Total Energy          =    -437.3877408211873217 [Eh]
	-----------------------------------------------------------

  Dipole Moment: [D]
     X:     1.0593      Y:    -3.2014      Z:    -0.0000     Total:     3.3721

*** Psi4 exiting successfully. Buy a developer a beer!
