                               Psi4 1.3.2 release

  ==> Input File <==

--------------------------------------------------------------------------
#psi4
#
memory 32 gb

molecule  {
0 1
  O        0.9755400    -1.0764940     0.0000010
  O       -1.3738420     1.6199730     0.0000050
  N       -1.7006930    -0.6600630    -0.0000030
  C        0.5224480     0.2188310    -0.0000040
  C       -0.9336490     0.4655780     0.0000000
  C        1.5678947     1.0688952    -0.0000029
  C        2.7579030     0.2894600     0.0000000
  C        2.3428020    -1.0138960     0.0000040
  C       -3.1488560    -0.5988880     0.0000010
  H        1.5004040     2.1673970    -0.0000090
  H       -1.2325350    -1.5568070    -0.0000080
  H        3.7847070     0.6289700     0.0000040
  H        2.8531580    -1.9656810     0.0000030
  H       -3.4251050     0.4551520     0.0000010
  H       -3.5616590    -1.0800960     0.8913170
  H       -3.5616630    -1.0800960    -0.8913140
units angstrom
no_reorient  #important for SAPT in psi4, default
symmetry c1  #important for SAPT in psi4, default
}

set PROPERTIES_ORIGIN ["COM"]
properties('MP2/aug-cc-pvtz', properties = ['dipole'])
--------------------------------------------------------------------------

    Molecular point group: c1
  Charge       = 0
  Multiplicity = 1
  Basis Set: AUG-CC-PVTZ
    Blend: AUG-CC-PVTZ
  Basis Set: (AUG-CC-PVTZ AUX)
    Blend: AUG-CC-PVTZ-JKFIT

    Orbital Energies [Eh]
    ---------------------

    Doubly Occupied:

       1A    -20.641623     2A    -20.516022     3A    -15.589170
       4A    -11.360653     5A    -11.312592     6A    -11.298066
       7A    -11.259486     8A    -11.250442     9A    -11.247330
      10A     -1.474260    11A     -1.371174    12A     -1.231570
      13A     -1.103478    14A     -1.040454    15A     -0.954630
      16A     -0.840268    17A     -0.820083    18A     -0.774812
      19A     -0.764078    20A     -0.671212    21A     -0.659218
      22A     -0.642189    23A     -0.618747    24A     -0.601735
      25A     -0.582770    26A     -0.576400    27A     -0.561569
      28A     -0.542574    29A     -0.536476    30A     -0.434027
      31A     -0.415195    32A     -0.391896    33A     -0.333732

  @DF-RHF Final Energy:  -435.60248928670484

   => Energetics <=

    Nuclear Repulsion Energy =            429.9501045308307425
    One-Electron Energy =               -1446.2693278490710327
    Two-Electron Energy =                 580.7167340315355659
    Total Energy =                       -435.6024892867047811
  Basis Set: (AUG-CC-PVTZ AUX)
    Blend: AUG-CC-PVTZ-RI
    Molecular point group: c1

    Geometry (in Angstrom), charge = 0, multiplicity = 1:

       Center              X                  Y                   Z               Mass
    ------------   -----------------  -----------------  -----------------  -----------------
         O            0.947985879592    -1.093763945985     0.000000799170    15.994914619570
         O           -1.401396120408     1.602703054015     0.000004799170    15.994914619570
         N           -1.728247120408    -0.677332945985    -0.000003200830    14.003074004430
         C            0.494893879592     0.201561054015    -0.000004200830    12.000000000000
         C           -0.961203120408     0.448308054015    -0.000000200830    12.000000000000
         C            1.540340579592     1.051625254015    -0.000003100830    12.000000000000
         C            2.730348879592     0.272190054015    -0.000000200830    12.000000000000
         C            2.315247879592    -1.031165945985     0.000003799170    12.000000000000
         C           -3.176410120408    -0.616157945985     0.000000799170    12.000000000000
         H            1.472849879592     2.150127054015    -0.000009200830     1.007825032230
         H           -1.260089120408    -1.574076945985    -0.000008200830     1.007825032230
         H            3.757152879592     0.611700054015     0.000003799170     1.007825032230
         H            2.825603879592    -1.982950945985     0.000002799170     1.007825032230
         H           -3.452659120408     0.437882054015     0.000000799170     1.007825032230
         H           -3.589213120408    -1.097365945985     0.891316799170     1.007825032230
         H           -3.589217120408    -1.097365945985    -0.891314200830     1.007825032230

  Basis Set: AUG-CC-PVTZ
    Blend: AUG-CC-PVTZ
  Basis Set: (AUG-CC-PVTZ AUX)
    Blend: AUG-CC-PVTZ-JKFIT
	 Reference Energy          =    -435.6024892867048379 [Eh]
	 Singles Energy            =      -0.0000000000000000 [Eh]
	 Same-Spin Energy          =      -0.4474393157770345 [Eh]
	 Opposite-Spin Energy      =      -1.3707693707780200 [Eh]
	 Correlation Energy        =      -1.8182086865550544 [Eh]
	 Total Energy              =    -437.4206979732599052 [Eh]

	 ================> DF-SCS-MP2 Energies <==================
	-----------------------------------------------------------
	 SCS Same-Spin Scale       =       0.3333333333333333 [-]
	 SCS Opposite-Spin Scale   =       1.2000000000000000 [-]
	 SCS Same-Spin Energy      =      -0.1491464385923448 [Eh]
	 SCS Opposite-Spin Energy  =      -1.6449232449336240 [Eh]
	 SCS Correlation Energy    =      -1.7940696835259689 [Eh]
	 SCS Total Energy          =    -437.3965589702307852 [Eh]
	-----------------------------------------------------------

  Dipole Moment: [D]
     X:     1.0938      Y:    -3.2297      Z:    -0.0000     Total:     3.4099

*** Psi4 exiting successfully. Buy a developer a beer!
