                               Psi4 1.3.2 release

  ==> Input File <==

--------------------------------------------------------------------------
#psi4
#
memory 32 gb

molecule  {
0 1
  O        0.9755400    -1.0764940     0.0000010
  O       -1.3738420     1.6199730     0.0000050
  N       -1.7006930    -0.6600630    -0.0000030
  C        0.5224480     0.2188310    -0.0000040
  C       -0.9336490     0.4655780     0.0000000
  C        1.5816790     1.0895450    -0.0000030
  C        2.6992267     0.2093597     0.0000005
  C        2.3428020    -1.0138960     0.0000040
  C       -3.1488560    -0.5988880     0.0000010
  H        1.5004040     2.1673970    -0.0000090
  H       -1.2325350    -1.5568070    -0.0000080
  H        3.7847070     0.6289700     0.0000040
  H        2.8531580    -1.9656810     0.0000030
  H       -3.4251050     0.4551520     0.0000010
  H       -3.5616590    -1.0800960     0.8913170
  H       -3.5616630    -1.0800960    -0.8913140
units angstrom
no_reorient  #important for SAPT in psi4, default
symmetry c1  #important for SAPT in psi4, default
}

set PROPERTIES_ORIGIN ["COM"]
properties('MP2/aug-cc-pvtz', properties = ['dipole'])
--------------------------------------------------------------------------

    Molecular point group: c1
  Charge       = 0
  Multiplicity = 1
  Basis Set: AUG-CC-PVTZ
    Blend: AUG-CC-PVTZ
  Basis Set: (AUG-CC-PVTZ AUX)
    Blend: AUG-CC-PVTZ-JKFIT

    Orbital Energies [Eh]
    ---------------------

    Doubly Occupied:

       1A    -20.635107     2A    -20.517163     3A    -15.589550
       4A    -11.360813     5A    -11.303088     6A    -11.295429
       7A    -11.259681     8A    -11.250682     9A    -11.240925
      10A     -1.473840    11A     -1.371978    12A     -1.231997
      13A     -1.110170    14A     -1.045762    15A     -0.957267
      16A     -0.845864    17A     -0.812962    18A     -0.775547
      19A     -0.758671    20A     -0.671943    21A     -0.660230
      22A     -0.639585    23A     -0.619311    24A     -0.602631
      25A     -0.593513    26A     -0.572165    27A     -0.545038
      28A     -0.540409    29A     -0.537078    30A     -0.434700
      31A     -0.420194    32A     -0.392124    33A     -0.340898

  @DF-RHF Final Energy:  -435.59011691957676

   => Energetics <=

    Nuclear Repulsion Energy =            431.2859844782884124
    One-Electron Energy =               -1448.9395773867099706
    Two-Electron Energy =                 582.0634759888448571
    Total Energy =                       -435.5901169195767579
  Basis Set: (AUG-CC-PVTZ AUX)
    Blend: AUG-CC-PVTZ-RI
    Molecular point group: c1

    Geometry (in Angstrom), charge = 0, multiplicity = 1:

       Center              X                  Y                   Z               Mass
    ------------   -----------------  -----------------  -----------------  -----------------
         O            0.952293868406    -1.088058874058     0.000000760785    15.994914619570
         O           -1.397088131594     1.608408125942     0.000004760785    15.994914619570
         N           -1.723939131594    -0.671627874058    -0.000003239215    14.003074004430
         C            0.499201868406     0.207266125942    -0.000004239215    12.000000000000
         C           -0.956895131594     0.454013125942    -0.000000239215    12.000000000000
         C            1.558432868406     1.077980125942    -0.000003239215    12.000000000000
         C            2.675980568406     0.197794825942     0.000000260785    12.000000000000
         C            2.319555868406    -1.025460874058     0.000003760785    12.000000000000
         C           -3.172102131594    -0.610452874058     0.000000760785    12.000000000000
         H            1.477157868406     2.155832125942    -0.000009239215     1.007825032230
         H           -1.255781131594    -1.568371874058    -0.000008239215     1.007825032230
         H            3.761460868406     0.617405125942     0.000003760785     1.007825032230
         H            2.829911868406    -1.977245874058     0.000002760785     1.007825032230
         H           -3.448351131594     0.443587125942     0.000000760785     1.007825032230
         H           -3.584905131594    -1.091660874058     0.891316760785     1.007825032230
         H           -3.584909131594    -1.091660874058    -0.891314239215     1.007825032230

  Basis Set: AUG-CC-PVTZ
    Blend: AUG-CC-PVTZ
  Basis Set: (AUG-CC-PVTZ AUX)
    Blend: AUG-CC-PVTZ-JKFIT
	 Reference Energy          =    -435.5901169195767579 [Eh]
	 Singles Energy            =      -0.0000000000000000 [Eh]
	 Same-Spin Energy          =      -0.4468767929165549 [Eh]
	 Opposite-Spin Energy      =      -1.3696026200634290 [Eh]
	 Correlation Energy        =      -1.8164794129799839 [Eh]
	 Total Energy              =    -437.4065963325567168 [Eh]

	 ================> DF-SCS-MP2 Energies <==================
	-----------------------------------------------------------
	 SCS Same-Spin Scale       =       0.3333333333333333 [-]
	 SCS Opposite-Spin Scale   =       1.2000000000000000 [-]
	 SCS Same-Spin Energy      =      -0.1489589309721849 [Eh]
	 SCS Opposite-Spin Energy  =      -1.6435231440761149 [Eh]
	 SCS Correlation Energy    =      -1.7924820750482997 [Eh]
	 SCS Total Energy          =    -437.3825989946250843 [Eh]
	-----------------------------------------------------------

  Dipole Moment: [D]
     X:     1.0546      Y:    -3.2129      Z:    -0.0000     Total:     3.3815

*** Psi4 exiting successfully. Buy a developer a beer!
