                               Psi4 1.4a3.dev225

  ==> Input File <==

--------------------------------------------------------------------------
#psi4
#
memory 32 gb

molecule  {
0 1
  O        0.9755400    -1.0764940     0.0000010
  O       -1.3738420     1.6199730     0.0000050
  N       -1.7006930    -0.6600630    -0.0000030
  C        0.5224480     0.2188310    -0.0000040
  C       -0.9336490     0.4655780     0.0000000
  C        1.5816790     1.0895450    -0.0000030
  C        2.7579030     0.2894600     0.0000000
  C        2.3276286    -1.0615381     0.0000041
  C       -3.1488560    -0.5988880     0.0000010
  H        1.5004040     2.1673970    -0.0000090
  H       -1.2325350    -1.5568070    -0.0000080
  H        3.7847070     0.6289700     0.0000040
  H        2.8531580    -1.9656810     0.0000030
  H       -3.4251050     0.4551520     0.0000010
  H       -3.5616590    -1.0800960     0.8913170
  H       -3.5616630    -1.0800960    -0.8913140
units angstrom
no_reorient  #important for SAPT in psi4, default
symmetry c1  #important for SAPT in psi4, default
}

set PROPERTIES_ORIGIN ["COM"]
properties('MP2/aug-cc-pvtz', properties = ['dipole'])
--------------------------------------------------------------------------

    Molecular point group: c1
  Charge       = 0
  Multiplicity = 1
  Basis Set: AUG-CC-PVTZ
    Blend: AUG-CC-PVTZ
  Basis Set: (AUG-CC-PVTZ AUX)
    Blend: AUG-CC-PVTZ-JKFIT

    Orbital Energies [Eh]
    ---------------------

    Doubly Occupied:

       1A    -20.648072     2A    -20.515888     3A    -15.588901
       4A    -11.360763     5A    -11.316383     6A    -11.301452
       7A    -11.259419     8A    -11.253408     9A    -11.252193
      10A     -1.480499    11A     -1.371195    12A     -1.231496
      13A     -1.095158    14A     -1.039288    15A     -0.953610
      16A     -0.842948    17A     -0.821104    18A     -0.775810
      19A     -0.765640    20A     -0.683892    21A     -0.661220
      22A     -0.641453    23A     -0.619052    24A     -0.604373
      25A     -0.588185    26A     -0.571890    27A     -0.559177
      28A     -0.541457    29A     -0.536666    30A     -0.434146
      31A     -0.410192    32A     -0.391918    33A     -0.326032

  @DF-RHF Final Energy:  -435.59729512959012

   => Energetics <=

    Nuclear Repulsion Energy =            429.0273919598705561
    One-Electron Energy =               -1444.3636109039598523
    Two-Electron Energy =                 579.7389238144991168
    Total Energy =                       -435.5972951295901794
  Basis Set: (AUG-CC-PVTZ AUX)
    Blend: AUG-CC-PVTZ-RI
    Molecular point group: c1

    Geometry (in Angstrom), charge = 0, multiplicity = 1:

       Center              X                  Y                   Z               Mass
    ------------   -----------------  -----------------  -----------------  -----------------
         O            0.948119182347    -1.091173673187     0.000000799170    15.994914619570
         O           -1.401262817653     1.605293326813     0.000004799170    15.994914619570
         N           -1.728113817653    -0.674742673187    -0.000003200830    14.003074004430
         C            0.495027182347     0.204151326813    -0.000004200830    12.000000000000
         C           -0.961069817653     0.450898326813    -0.000000200830    12.000000000000
         C            1.554258182347     1.074865326813    -0.000003200830    12.000000000000
         C            2.730482182347     0.274780326813    -0.000000200830    12.000000000000
         C            2.300207782347    -1.076217773187     0.000003899170    12.000000000000
         C           -3.176276817653    -0.613567673187     0.000000799170    12.000000000000
         H            1.472983182347     2.152717326813    -0.000009200830     1.007825032230
         H           -1.259955817653    -1.571486673187    -0.000008200830     1.007825032230
         H            3.757286182347     0.614290326813     0.000003799170     1.007825032230
         H            2.825737182347    -1.980360673187     0.000002799170     1.007825032230
         H           -3.452525817653     0.440472326813     0.000000799170     1.007825032230
         H           -3.589079817653    -1.094775673187     0.891316799170     1.007825032230
         H           -3.589083817653    -1.094775673187    -0.891314200830     1.007825032230

  Basis Set: AUG-CC-PVTZ
    Blend: AUG-CC-PVTZ
  Basis Set: (AUG-CC-PVTZ AUX)
    Blend: AUG-CC-PVTZ-JKFIT
	 Reference Energy          =    -435.5972951295901225 [Eh]
	 Singles Energy            =      -0.0000000000000000 [Eh]
	 Same-Spin Energy          =      -0.4485120688726963 [Eh]
	 Opposite-Spin Energy      =      -1.3722507724004287 [Eh]
	 Correlation Energy        =      -1.8207628412731252 [Eh]
	 Total Energy              =    -437.4180579708632308 [Eh]

	 ================> DF-SCS-MP2 Energies <==================
	-----------------------------------------------------------
	 SCS Same-Spin Scale       =       0.3333333333333333 [-]
	 SCS Opposite-Spin Scale   =       1.2000000000000000 [-]
	 SCS Same-Spin Energy      =      -0.1495040229575654 [Eh]
	 SCS Opposite-Spin Energy  =      -1.6467009268805144 [Eh]
	 SCS Correlation Energy    =      -1.7962049498380799 [Eh]
	 SCS Total Energy          =    -437.3935000794281791 [Eh]
	-----------------------------------------------------------

  Dipole Moment: [D]
     X:     1.0252      Y:    -3.2833      Z:    -0.0000     Total:     3.4396

*** Psi4 exiting successfully. Buy a developer a beer!
