                               Psi4 1.3.2 release

  ==> Input File <==

--------------------------------------------------------------------------
#psi4
#
memory 32 gb

molecule  {
0 1
  O        0.9755400    -1.0764940     0.0000010
  O       -1.3738420     1.6199730     0.0000050
  N       -1.7006930    -0.6600630    -0.0000030
  C        0.3895318     0.1643741    -0.0000041
  C       -0.9336490     0.4655780     0.0000000
  C        1.5816790     1.0895450    -0.0000030
  C        2.7579030     0.2894600     0.0000000
  C        2.3428020    -1.0138960     0.0000040
  C       -3.1488560    -0.5988880     0.0000010
  H        1.5004040     2.1673970    -0.0000090
  H       -1.2325350    -1.5568070    -0.0000080
  H        3.7847070     0.6289700     0.0000040
  H        2.8531580    -1.9656810     0.0000030
  H       -3.4251050     0.4551520     0.0000010
  H       -3.5616590    -1.0800960     0.8913170
  H       -3.5616630    -1.0800960    -0.8913140
units angstrom
no_reorient  #important for SAPT in psi4, default
symmetry c1  #important for SAPT in psi4, default
}

set PROPERTIES_ORIGIN ["COM"]
properties('MP2/aug-cc-pvtz', properties = ['dipole'])
--------------------------------------------------------------------------

    Molecular point group: c1
  Charge       = 0
  Multiplicity = 1
  Basis Set: AUG-CC-PVTZ
    Blend: AUG-CC-PVTZ
  Basis Set: (AUG-CC-PVTZ AUX)
    Blend: AUG-CC-PVTZ-JKFIT

    Orbital Energies [Eh]
    ---------------------

    Doubly Occupied:

       1A    -20.649800     2A    -20.508410     3A    -15.581577
       4A    -11.346404     5A    -11.325640     6A    -11.304080
       7A    -11.275763     8A    -11.254776     9A    -11.254614
      10A     -1.473851    11A     -1.368364    12A     -1.229546
      13A     -1.091960    14A     -1.052595    15A     -0.951646
      16A     -0.864356    17A     -0.815509    18A     -0.772222
      19A     -0.762892    20A     -0.688280    21A     -0.660414
      22A     -0.640408    23A     -0.614849    24A     -0.602680
      25A     -0.583208    26A     -0.581071    27A     -0.548620
      28A     -0.536741    29A     -0.527483    30A     -0.432857
      31A     -0.410844    32A     -0.388605    33A     -0.318832

  @DF-RHF Final Energy:  -435.56379302641494

   => Energetics <=

    Nuclear Repulsion Energy =            429.6580842973647236
    One-Electron Energy =               -1445.6059646330745636
    Two-Electron Energy =                 580.3840873092949550
    Total Energy =                       -435.5637930264149418
  Basis Set: (AUG-CC-PVTZ AUX)
    Blend: AUG-CC-PVTZ-RI
    Molecular point group: c1

    Geometry (in Angstrom), charge = 0, multiplicity = 1:

       Center              X                  Y                   Z               Mass
    ------------   -----------------  -----------------  -----------------  -----------------
         O            0.959418181395    -1.090519701830     0.000000818363    15.994914619570
         O           -1.389963818605     1.605947298170     0.000004818363    15.994914619570
         N           -1.716814818605    -0.674088701830    -0.000003181637    14.003074004430
         C            0.373409981395     0.150348398170    -0.000004281637    12.000000000000
         C           -0.949770818605     0.451552298170    -0.000000181637    12.000000000000
         C            1.565557181395     1.075519298170    -0.000003181637    12.000000000000
         C            2.741781181395     0.275434298170    -0.000000181637    12.000000000000
         C            2.326680181395    -1.027921701830     0.000003818363    12.000000000000
         C           -3.164977818605    -0.612913701830     0.000000818363    12.000000000000
         H            1.484282181395     2.153371298170    -0.000009181637     1.007825032230
         H           -1.248656818605    -1.570832701830    -0.000008181637     1.007825032230
         H            3.768585181395     0.614944298170     0.000003818363     1.007825032230
         H            2.837036181395    -1.979706701830     0.000002818363     1.007825032230
         H           -3.441226818605     0.441126298170     0.000000818363     1.007825032230
         H           -3.577780818605    -1.094121701830     0.891316818363     1.007825032230
         H           -3.577784818605    -1.094121701830    -0.891314181637     1.007825032230

  Basis Set: AUG-CC-PVTZ
    Blend: AUG-CC-PVTZ
  Basis Set: (AUG-CC-PVTZ AUX)
    Blend: AUG-CC-PVTZ-JKFIT
	 Reference Energy          =    -435.5637930264149418 [Eh]
	 Singles Energy            =      -0.0000000000000000 [Eh]
	 Same-Spin Energy          =      -0.4521496189975576 [Eh]
	 Opposite-Spin Energy      =      -1.3776162783624613 [Eh]
	 Correlation Energy        =      -1.8297658973600188 [Eh]
	 Total Energy              =    -437.3935589237749468 [Eh]

	 ================> DF-SCS-MP2 Energies <==================
	-----------------------------------------------------------
	 SCS Same-Spin Scale       =       0.3333333333333333 [-]
	 SCS Opposite-Spin Scale   =       1.2000000000000000 [-]
	 SCS Same-Spin Energy      =      -0.1507165396658525 [Eh]
	 SCS Opposite-Spin Energy  =      -1.6531395340349535 [Eh]
	 SCS Correlation Energy    =      -1.8038560737008060 [Eh]
	 SCS Total Energy          =    -437.3676491001157274 [Eh]
	-----------------------------------------------------------

  Dipole Moment: [D]
     X:     1.3377      Y:    -3.4155      Z:    -0.0000     Total:     3.6682

*** Psi4 exiting successfully. Buy a developer a beer!
