                               Psi4 1.3.2 release

  ==> Input File <==

--------------------------------------------------------------------------
#psi4
#
memory 32 gb

molecule  {
0 1
  O        0.9755400    -1.0764940     0.0000010
  O       -1.3738420     1.6199730     0.0000050
  N       -1.7006930    -0.6600630    -0.0000030
  C        0.5224480     0.2188310    -0.0000040
  C       -0.9336490     0.4655780     0.0000000
  C        1.5816790     1.0895450    -0.0000030
  C        2.6752186     0.3457031    -0.0000002
  C        2.3428020    -1.0138960     0.0000040
  C       -3.1488560    -0.5988880     0.0000010
  H        1.5004040     2.1673970    -0.0000090
  H       -1.2325350    -1.5568070    -0.0000080
  H        3.7847070     0.6289700     0.0000040
  H        2.8531580    -1.9656810     0.0000030
  H       -3.4251050     0.4551520     0.0000010
  H       -3.5616590    -1.0800960     0.8913170
  H       -3.5616630    -1.0800960    -0.8913140
units angstrom
no_reorient  #important for SAPT in psi4, default
symmetry c1  #important for SAPT in psi4, default
}

set PROPERTIES_ORIGIN ["COM"]
properties('MP2/aug-cc-pvtz', properties = ['dipole'])
--------------------------------------------------------------------------

    Molecular point group: c1
  Charge       = 0
  Multiplicity = 1
  Basis Set: AUG-CC-PVTZ
    Blend: AUG-CC-PVTZ
  Basis Set: (AUG-CC-PVTZ AUX)
    Blend: AUG-CC-PVTZ-JKFIT

    Orbital Energies [Eh]
    ---------------------

    Doubly Occupied:

       1A    -20.648792     2A    -20.515265     3A    -15.587972
       4A    -11.359602     5A    -11.314701     6A    -11.300821
       7A    -11.258890     8A    -11.247927     9A    -11.242967
      10A     -1.477906    11A     -1.370488    12A     -1.230712
      13A     -1.120453    14A     -1.035436    15A     -0.951684
      16A     -0.845956    17A     -0.812729    18A     -0.778803
      19A     -0.765090    20A     -0.673383    21A     -0.660435
      22A     -0.639943    23A     -0.618281    24A     -0.607885
      25A     -0.589867    26A     -0.572382    27A     -0.553150
      28A     -0.542337    29A     -0.535690    30A     -0.433208
      31A     -0.427657    32A     -0.391691    33A     -0.320724

  @DF-RHF Final Energy:  -435.58471073394674

   => Energetics <=

    Nuclear Repulsion Energy =            430.8573096805608316
    One-Electron Energy =               -1448.0183832552086187
    Two-Electron Energy =                 581.5763628407011083
    Total Energy =                       -435.5847107339467357
  Basis Set: (AUG-CC-PVTZ AUX)
    Blend: AUG-CC-PVTZ-RI
    Molecular point group: c1

    Geometry (in Angstrom), charge = 0, multiplicity = 1:

       Center              X                  Y                   Z               Mass
    ------------   -----------------  -----------------  -----------------  -----------------
         O            0.954597767235    -1.101142849867     0.000000827959    15.994914619570
         O           -1.394784232765     1.595324150133     0.000004827959    15.994914619570
         N           -1.721635232765    -0.684711849867    -0.000003172041    14.003074004430
         C            0.501505767235     0.194182150133    -0.000004172041    12.000000000000
         C           -0.954591232765     0.440929150133    -0.000000172041    12.000000000000
         C            1.560736767235     1.064896150133    -0.000003172041    12.000000000000
         C            2.654276367235     0.321054250133    -0.000000372041    12.000000000000
         C            2.321859767235    -1.038544849867     0.000003827959    12.000000000000
         C           -3.169798232765    -0.623536849867     0.000000827959    12.000000000000
         H            1.479461767235     2.142748150133    -0.000009172041     1.007825032230
         H           -1.253477232765    -1.581455849867    -0.000008172041     1.007825032230
         H            3.763764767235     0.604321150133     0.000003827959     1.007825032230
         H            2.832215767235    -1.990329849867     0.000002827959     1.007825032230
         H           -3.446047232765     0.430503150133     0.000000827959     1.007825032230
         H           -3.582601232765    -1.104744849867     0.891316827959     1.007825032230
         H           -3.582605232765    -1.104744849867    -0.891314172041     1.007825032230

  Basis Set: AUG-CC-PVTZ
    Blend: AUG-CC-PVTZ
  Basis Set: (AUG-CC-PVTZ AUX)
    Blend: AUG-CC-PVTZ-JKFIT
	 Reference Energy          =    -435.5847107339467357 [Eh]
	 Singles Energy            =      -0.0000000000000000 [Eh]
	 Same-Spin Energy          =      -0.4504546459799899 [Eh]
	 Opposite-Spin Energy      =      -1.3743356489108143 [Eh]
	 Correlation Energy        =      -1.8247902948908041 [Eh]
	 Total Energy              =    -437.4095010288375533 [Eh]

	 ================> DF-SCS-MP2 Energies <==================
	-----------------------------------------------------------
	 SCS Same-Spin Scale       =       0.3333333333333333 [-]
	 SCS Opposite-Spin Scale   =       1.2000000000000000 [-]
	 SCS Same-Spin Energy      =      -0.1501515486599966 [Eh]
	 SCS Opposite-Spin Energy  =      -1.6492027786929770 [Eh]
	 SCS Correlation Energy    =      -1.7993543273529737 [Eh]
	 SCS Total Energy          =    -437.3840650612997365 [Eh]
	-----------------------------------------------------------

  Dipole Moment: [D]
     X:     1.1018      Y:    -3.2580      Z:    -0.0000     Total:     3.4393

*** Psi4 exiting successfully. Buy a developer a beer!
