                               Psi4 1.4a3.dev225

  ==> Input File <==

--------------------------------------------------------------------------
#psi4
#
memory 32 gb

molecule  {
0 1
  O        0.9755400    -1.0764940     0.0000010
  O       -1.3738420     1.6199730     0.0000050
  N       -1.7006930    -0.6600630    -0.0000030
  C        0.5224480     0.2188310    -0.0000040
  C       -0.9336490     0.4655780     0.0000000
  C        1.5816790     1.0895450    -0.0000030
  C        2.7579030     0.2894600     0.0000000
  C        2.3428020    -1.0138960     0.0000040
  C       -3.1488560    -0.5988880     0.0000010
  H        1.5004040     2.1673970    -0.0000090
  H       -1.2325350    -1.5568070    -0.0000080
  H        3.7847070     0.6289700     0.0000040
  H        2.8295300    -1.9216161     0.0000030
  H       -3.4251050     0.4551520     0.0000010
  H       -3.5616590    -1.0800960     0.8913170
  H       -3.5616630    -1.0800960    -0.8913140
units angstrom
no_reorient  #important for SAPT in psi4, default
symmetry c1  #important for SAPT in psi4, default
}

set PROPERTIES_ORIGIN ["COM"]
properties('MP2/aug-cc-pvtz', properties = ['dipole'])
--------------------------------------------------------------------------

    Molecular point group: c1
  Charge       = 0
  Multiplicity = 1
  Basis Set: AUG-CC-PVTZ
    Blend: AUG-CC-PVTZ
  Basis Set: (AUG-CC-PVTZ AUX)
    Blend: AUG-CC-PVTZ-JKFIT

    Orbital Energies [Eh]
    ---------------------

    Doubly Occupied:

       1A    -20.643272     2A    -20.515869     3A    -15.589014
       4A    -11.360455     5A    -11.307080     6A    -11.301428
       7A    -11.259404     8A    -11.252329     9A    -11.247898
      10A     -1.474218    11A     -1.371030    12A     -1.231448
      13A     -1.101338    14A     -1.040708    15A     -0.954901
      16A     -0.843996    17A     -0.821817    18A     -0.775931
      19A     -0.765735    20A     -0.678324    21A     -0.658576
      22A     -0.641766    23A     -0.618640    24A     -0.601831
      25A     -0.587164    26A     -0.577995    27A     -0.562914
      28A     -0.542403    29A     -0.536311    30A     -0.433881
      31A     -0.414206    32A     -0.391783    33A     -0.330992

  @DF-RHF Final Energy:  -435.60126472990174

   => Energetics <=

    Nuclear Repulsion Energy =            429.7106570515350086
    One-Electron Energy =               -1445.7545235397562919
    Two-Electron Energy =                 580.4426017583195971
    Total Energy =                       -435.6012647299016862
  Basis Set: (AUG-CC-PVTZ AUX)
    Blend: AUG-CC-PVTZ-RI
    Molecular point group: c1

    Geometry (in Angstrom), charge = 0, multiplicity = 1:

       Center              X                  Y                   Z               Mass
    ------------   -----------------  -----------------  -----------------  -----------------
         O            0.946853521824    -1.096100713152     0.000000808766    15.994914619570
         O           -1.402528478176     1.600366286848     0.000004808766    15.994914619570
         N           -1.729379478176    -0.679669713152    -0.000003191234    14.003074004430
         C            0.493761521824     0.199224286848    -0.000004191234    12.000000000000
         C           -0.962335478176     0.445971286848    -0.000000191234    12.000000000000
         C            1.552992521824     1.069938286848    -0.000003191234    12.000000000000
         C            2.729216521824     0.269853286848    -0.000000191234    12.000000000000
         C            2.314115521824    -1.033502713152     0.000003808766    12.000000000000
         C           -3.177542478176    -0.618494713152     0.000000808766    12.000000000000
         H            1.471717521824     2.147790286848    -0.000009191234     1.007825032230
         H           -1.261221478176    -1.576413713152    -0.000008191234     1.007825032230
         H            3.756020521824     0.609363286848     0.000003808766     1.007825032230
         H            2.800843521824    -1.941222813152     0.000002808766     1.007825032230
         H           -3.453791478176     0.435545286848     0.000000808766     1.007825032230
         H           -3.590345478176    -1.099702713152     0.891316808766     1.007825032230
         H           -3.590349478176    -1.099702713152    -0.891314191234     1.007825032230

  Basis Set: AUG-CC-PVTZ
    Blend: AUG-CC-PVTZ
  Basis Set: (AUG-CC-PVTZ AUX)
    Blend: AUG-CC-PVTZ-JKFIT
	 Reference Energy          =    -435.6012647299017431 [Eh]
	 Singles Energy            =      -0.0000000000000000 [Eh]
	 Same-Spin Energy          =      -0.4477234593522297 [Eh]
	 Opposite-Spin Energy      =      -1.3711056833031550 [Eh]
	 Correlation Energy        =      -1.8188291426553846 [Eh]
	 Total Energy              =    -437.4200938725571177 [Eh]

	 ================> DF-SCS-MP2 Energies <==================
	-----------------------------------------------------------
	 SCS Same-Spin Scale       =       0.3333333333333333 [-]
	 SCS Opposite-Spin Scale   =       1.2000000000000000 [-]
	 SCS Same-Spin Energy      =      -0.1492411531174099 [Eh]
	 SCS Opposite-Spin Energy  =      -1.6453268199637858 [Eh]
	 SCS Correlation Energy    =      -1.7945679730811956 [Eh]
	 SCS Total Energy          =    -437.3958327029829434 [Eh]
	-----------------------------------------------------------

  Dipole Moment: [D]
     X:     1.0905      Y:    -3.2294      Z:    -0.0000     Total:     3.4085

*** Psi4 exiting successfully. Buy a developer a beer!
