                               Psi4 1.3.2 release

  ==> Input File <==

--------------------------------------------------------------------------
#psi4
#
memory 32 gb

molecule  {
0 1
  O        0.9755400    -1.0764940     0.0000010
  O       -1.3738420     1.6199730     0.0000050
  N       -1.7006930    -0.6600630    -0.0000030
  C        0.5224480     0.2188310    -0.0000040
  C       -0.7364602     0.4321628    -0.0000005
  C        1.5816790     1.0895450    -0.0000030
  C        2.7579030     0.2894600     0.0000000
  C        2.3428020    -1.0138960     0.0000040
  C       -3.1488560    -0.5988880     0.0000010
  H        1.5004040     2.1673970    -0.0000090
  H       -1.2325350    -1.5568070    -0.0000080
  H        3.7847070     0.6289700     0.0000040
  H        2.8531580    -1.9656810     0.0000030
  H       -3.4251050     0.4551520     0.0000010
  H       -3.5616590    -1.0800960     0.8913170
  H       -3.5616630    -1.0800960    -0.8913140
units angstrom
no_reorient  #important for SAPT in psi4, default
symmetry c1  #important for SAPT in psi4, default
}

set PROPERTIES_ORIGIN ["COM"]
properties('MP2/aug-cc-pvtz', properties = ['dipole'])
--------------------------------------------------------------------------

    Molecular point group: c1
  Charge       = 0
  Multiplicity = 1
  Basis Set: AUG-CC-PVTZ
    Blend: AUG-CC-PVTZ
  Basis Set: (AUG-CC-PVTZ AUX)
    Blend: AUG-CC-PVTZ-JKFIT

    Orbital Energies [Eh]
    ---------------------

    Doubly Occupied:

       1A    -20.658263     2A    -20.494795     3A    -15.573684
       4A    -11.351951     5A    -11.340992     6A    -11.296128
       7A    -11.284187     8A    -11.265975     9A    -11.248104
      10A     -1.492288    11A     -1.300274    12A     -1.182059
      13A     -1.124635    14A     -1.085285    15A     -0.946392
      16A     -0.882640    17A     -0.839976    18A     -0.786865
      19A     -0.730867    20A     -0.682603    21A     -0.676590
      22A     -0.634128    23A     -0.607323    24A     -0.597466
      25A     -0.594205    26A     -0.582470    27A     -0.566344
      28A     -0.510431    29A     -0.508661    30A     -0.429937
      31A     -0.409022    32A     -0.363689    33A     -0.345087

  @DF-RHF Final Energy:  -435.52948972548080

   => Energetics <=

    Nuclear Repulsion Energy =            430.0484247123602586
    One-Electron Energy =               -1446.3691975997705867
    Two-Electron Energy =                 580.7912831619295275
    Total Energy =                       -435.5294897254808575
  Basis Set: (AUG-CC-PVTZ AUX)
    Blend: AUG-CC-PVTZ-RI
    Molecular point group: c1

    Geometry (in Angstrom), charge = 0, multiplicity = 1:

       Center              X                  Y                   Z               Mass
    ------------   -----------------  -----------------  -----------------  -----------------
         O            0.927740184262    -1.092538934839     0.000000856748    15.994914619570
         O           -1.421641815738     1.603928065161     0.000004856748    15.994914619570
         N           -1.748492815738    -0.676107934839    -0.000003143252    14.003074004430
         C            0.474648184262     0.202786065161    -0.000004143252    12.000000000000
         C           -0.784260015738     0.416117865161    -0.000000643252    12.000000000000
         C            1.533879184262     1.073500065161    -0.000003143252    12.000000000000
         C            2.710103184262     0.273415065161    -0.000000143252    12.000000000000
         C            2.295002184262    -1.029940934839     0.000003856748    12.000000000000
         C           -3.196655815738    -0.614932934839     0.000000856748    12.000000000000
         H            1.452604184262     2.151352065161    -0.000009143252     1.007825032230
         H           -1.280334815738    -1.572851934839    -0.000008143252     1.007825032230
         H            3.736907184262     0.612925065161     0.000003856748     1.007825032230
         H            2.805358184262    -1.981725934839     0.000002856748     1.007825032230
         H           -3.472904815738     0.439107065161     0.000000856748     1.007825032230
         H           -3.609458815738    -1.096140934839     0.891316856748     1.007825032230
         H           -3.609462815738    -1.096140934839    -0.891314143252     1.007825032230

  Basis Set: AUG-CC-PVTZ
    Blend: AUG-CC-PVTZ
  Basis Set: (AUG-CC-PVTZ AUX)
    Blend: AUG-CC-PVTZ-JKFIT
	 Reference Energy          =    -435.5294897254808006 [Eh]
	 Singles Energy            =      -0.0000000000000000 [Eh]
	 Same-Spin Energy          =      -0.4532516885910293 [Eh]
	 Opposite-Spin Energy      =      -1.3810737945041407 [Eh]
	 Correlation Energy        =      -1.8343254830951701 [Eh]
	 Total Energy              =    -437.3638152085759430 [Eh]

	 ================> DF-SCS-MP2 Energies <==================
	-----------------------------------------------------------
	 SCS Same-Spin Scale       =       0.3333333333333333 [-]
	 SCS Opposite-Spin Scale   =       1.2000000000000000 [-]
	 SCS Same-Spin Energy      =      -0.1510838961970098 [Eh]
	 SCS Opposite-Spin Energy  =      -1.6572885534049688 [Eh]
	 SCS Correlation Energy    =      -1.8083724496019786 [Eh]
	 SCS Total Energy          =    -437.3378621750827620 [Eh]
	-----------------------------------------------------------

  Dipole Moment: [D]
     X:     2.6196      Y:    -3.3383      Z:    -0.0000     Total:     4.2434

*** Psi4 exiting successfully. Buy a developer a beer!
