                               Psi4 1.4a3.dev225

  ==> Input File <==

--------------------------------------------------------------------------
#psi4
#
memory 32 gb

molecule  {
0 1
  O        0.9755400    -1.0764940     0.0000010
  O       -1.3738420     1.6199730     0.0000050
  N       -1.7006930    -0.6600630    -0.0000030
  C        0.5224480     0.2188310    -0.0000040
  C       -0.9336490     0.4655780     0.0000000
  C        1.5816790     1.0895450    -0.0000030
  C        2.7579030     0.2894600     0.0000000
  C        2.3927497    -1.0116092     0.0000041
  C       -3.1488560    -0.5988880     0.0000010
  H        1.5004040     2.1673970    -0.0000090
  H       -1.2325350    -1.5568070    -0.0000080
  H        3.7847070     0.6289700     0.0000040
  H        2.8531580    -1.9656810     0.0000030
  H       -3.4251050     0.4551520     0.0000010
  H       -3.5616590    -1.0800960     0.8913170
  H       -3.5616630    -1.0800960    -0.8913140
units angstrom
no_reorient  #important for SAPT in psi4, default
symmetry c1  #important for SAPT in psi4, default
}

set PROPERTIES_ORIGIN ["COM"]
properties('MP2/aug-cc-pvtz', properties = ['dipole'])
--------------------------------------------------------------------------

    Molecular point group: c1
  Charge       = 0
  Multiplicity = 1
  Basis Set: AUG-CC-PVTZ
    Blend: AUG-CC-PVTZ
  Basis Set: (AUG-CC-PVTZ AUX)
    Blend: AUG-CC-PVTZ-JKFIT

    Orbital Energies [Eh]
    ---------------------

    Doubly Occupied:

       1A    -20.635628     2A    -20.517013     3A    -15.589425
       4A    -11.361102     5A    -11.310209     6A    -11.303916
       7A    -11.259567     8A    -11.251325     9A    -11.250061
      10A     -1.454947    11A     -1.371518    12A     -1.231617
      13A     -1.101737    14A     -1.037229    15A     -0.955285
      16A     -0.844020    17A     -0.815425    18A     -0.775263
      19A     -0.760346    20A     -0.669942    21A     -0.649651
      22A     -0.642233    23A     -0.616807    24A     -0.598212
      25A     -0.589070    26A     -0.571980    27A     -0.565931
      28A     -0.542191    29A     -0.535864    30A     -0.434586
      31A     -0.416117    32A     -0.391803    33A     -0.333340

  @DF-RHF Final Energy:  -435.59830960135145

   => Energetics <=

    Nuclear Repulsion Energy =            428.5868221860907852
    One-Electron Energy =               -1443.6035431439061085
    Two-Electron Energy =                 579.4184113564638210
    Total Energy =                       -435.5983096013515024
  Basis Set: (AUG-CC-PVTZ AUX)
    Blend: AUG-CC-PVTZ-RI
    Molecular point group: c1

    Geometry (in Angstrom), charge = 0, multiplicity = 1:

       Center              X                  Y                   Z               Mass
    ------------   -----------------  -----------------  -----------------  -----------------
         O            0.941869940381    -1.095965020035     0.000000799170    15.994914619570
         O           -1.407512059619     1.600501979965     0.000004799170    15.994914619570
         N           -1.734363059619    -0.679534020035    -0.000003200830    14.003074004430
         C            0.488777940381     0.199359979965    -0.000004200830    12.000000000000
         C           -0.967319059619     0.446106979965    -0.000000200830    12.000000000000
         C            1.548008940381     1.070073979965    -0.000003200830    12.000000000000
         C            2.724232940381     0.269988979965    -0.000000200830    12.000000000000
         C            2.359079640381    -1.031080220035     0.000003899170    12.000000000000
         C           -3.182526059619    -0.618359020035     0.000000799170    12.000000000000
         H            1.466733940381     2.147925979965    -0.000009200830     1.007825032230
         H           -1.266205059619    -1.576278020035    -0.000008200830     1.007825032230
         H            3.751036940381     0.609498979965     0.000003799170     1.007825032230
         H            2.819487940381    -1.985152020035     0.000002799170     1.007825032230
         H           -3.458775059619     0.435680979965     0.000000799170     1.007825032230
         H           -3.595329059619    -1.099567020035     0.891316799170     1.007825032230
         H           -3.595333059619    -1.099567020035    -0.891314200830     1.007825032230

  Basis Set: AUG-CC-PVTZ
    Blend: AUG-CC-PVTZ
  Basis Set: (AUG-CC-PVTZ AUX)
    Blend: AUG-CC-PVTZ-JKFIT
	 Reference Energy          =    -435.5983096013514455 [Eh]
	 Singles Energy            =      -0.0000000000000000 [Eh]
	 Same-Spin Energy          =      -0.4478254551070879 [Eh]
	 Opposite-Spin Energy      =      -1.3725058049029388 [Eh]
	 Correlation Energy        =      -1.8203312600100268 [Eh]
	 Total Energy              =    -437.4186408613614958 [Eh]

	 ================> DF-SCS-MP2 Energies <==================
	-----------------------------------------------------------
	 SCS Same-Spin Scale       =       0.3333333333333333 [-]
	 SCS Opposite-Spin Scale   =       1.2000000000000000 [-]
	 SCS Same-Spin Energy      =      -0.1492751517023626 [Eh]
	 SCS Opposite-Spin Energy  =      -1.6470069658835265 [Eh]
	 SCS Correlation Energy    =      -1.7962821175858892 [Eh]
	 SCS Total Energy          =    -437.3945917189373631 [Eh]
	-----------------------------------------------------------

  Dipole Moment: [D]
     X:     1.1507      Y:    -3.2076      Z:    -0.0000     Total:     3.4078

*** Psi4 exiting successfully. Buy a developer a beer!
