                               Psi4 1.4a3.dev225

  ==> Input File <==

--------------------------------------------------------------------------
#psi4
#
memory 32 gb

molecule  {
0 1
  O        0.9755400    -1.0764940     0.0000010
  O       -1.3738420     1.6199730     0.0000050
  N       -1.7006930    -0.6600630    -0.0000030
  C        0.5224480     0.2188310    -0.0000040
  C       -0.9336490     0.4655780     0.0000000
  C        1.5816790     1.0895450    -0.0000030
  C        2.7579030     0.2894600     0.0000000
  C        2.3428020    -1.0138960     0.0000040
  C       -3.1488560    -0.5988880     0.0000010
  H        1.5004040     2.1673970    -0.0000090
  H       -1.2325350    -1.5568070    -0.0000080
  H        3.8321793     0.6446666     0.0000042
  H        2.8531580    -1.9656810     0.0000030
  H       -3.4251050     0.4551520     0.0000010
  H       -3.5616590    -1.0800960     0.8913170
  H       -3.5616630    -1.0800960    -0.8913140
units angstrom
no_reorient  #important for SAPT in psi4, default
symmetry c1  #important for SAPT in psi4, default
}

set PROPERTIES_ORIGIN ["COM"]
properties('MP2/aug-cc-pvtz', properties = ['dipole'])
--------------------------------------------------------------------------

    Molecular point group: c1
  Charge       = 0
  Multiplicity = 1
  Basis Set: AUG-CC-PVTZ
    Blend: AUG-CC-PVTZ
  Basis Set: (AUG-CC-PVTZ AUX)
    Blend: AUG-CC-PVTZ-JKFIT

    Orbital Energies [Eh]
    ---------------------

    Doubly Occupied:

       1A    -20.643878     2A    -20.515997     3A    -15.589137
       4A    -11.360650     5A    -11.312831     6A    -11.301728
       7A    -11.259486     8A    -11.253824     9A    -11.252609
      10A     -1.474698    11A     -1.371164    12A     -1.231568
      13A     -1.100909    14A     -1.038848    15A     -0.953857
      16A     -0.841308    17A     -0.816301    18A     -0.775219
      19A     -0.761849    20A     -0.671691    21A     -0.659010
      22A     -0.640543    23A     -0.618782    24A     -0.598079
      25A     -0.586433    26A     -0.573674    27A     -0.560745
      28A     -0.542370    29A     -0.536451    30A     -0.433976
      31A     -0.414608    32A     -0.391912    33A     -0.331155

  @DF-RHF Final Energy:  -435.59963626740864

   => Energetics <=

    Nuclear Repulsion Energy =            429.1956193260668329
    One-Electron Energy =               -1444.7599352581091807
    Two-Electron Energy =                 579.9646796646336497
    Total Energy =                       -435.5996362674086413
  Basis Set: (AUG-CC-PVTZ AUX)
    Blend: AUG-CC-PVTZ-RI
    Molecular point group: c1

    Geometry (in Angstrom), charge = 0, multiplicity = 1:

       Center              X                  Y                   Z               Mass
    ------------   -----------------  -----------------  -----------------  -----------------
         O            0.946280487098    -1.095872078097     0.000000807155    15.994914619570
         O           -1.403101512902     1.600594921903     0.000004807155    15.994914619570
         N           -1.729952512902    -0.679441078097    -0.000003192845    14.003074004430
         C            0.493188487098     0.199452921903    -0.000004192845    12.000000000000
         C           -0.962908512902     0.446199921903    -0.000000192845    12.000000000000
         C            1.552419487098     1.070166921903    -0.000003192845    12.000000000000
         C            2.728643487098     0.270081921903    -0.000000192845    12.000000000000
         C            2.313542487098    -1.033274078097     0.000003807155    12.000000000000
         C           -3.178115512902    -0.618266078097     0.000000807155    12.000000000000
         H            1.471144487098     2.148018921903    -0.000009192845     1.007825032230
         H           -1.261794512902    -1.576185078097    -0.000008192845     1.007825032230
         H            3.802919787098     0.625288521903     0.000004007155     1.007825032230
         H            2.823898487098    -1.985059078097     0.000002807155     1.007825032230
         H           -3.454364512902     0.435773921903     0.000000807155     1.007825032230
         H           -3.590918512902    -1.099474078097     0.891316807155     1.007825032230
         H           -3.590922512902    -1.099474078097    -0.891314192845     1.007825032230

  Basis Set: AUG-CC-PVTZ
    Blend: AUG-CC-PVTZ
  Basis Set: (AUG-CC-PVTZ AUX)
    Blend: AUG-CC-PVTZ-JKFIT
	 Reference Energy          =    -435.5996362674086413 [Eh]
	 Singles Energy            =      -0.0000000000000000 [Eh]
	 Same-Spin Energy          =      -0.4479047550374254 [Eh]
	 Opposite-Spin Energy      =      -1.3717840107487611 [Eh]
	 Correlation Energy        =      -1.8196887657861864 [Eh]
	 Total Energy              =    -437.4193250331948093 [Eh]

	 ================> DF-SCS-MP2 Energies <==================
	-----------------------------------------------------------
	 SCS Same-Spin Scale       =       0.3333333333333333 [-]
	 SCS Opposite-Spin Scale   =       1.2000000000000000 [-]
	 SCS Same-Spin Energy      =      -0.1493015850124751 [Eh]
	 SCS Opposite-Spin Energy  =      -1.6461408128985133 [Eh]
	 SCS Correlation Energy    =      -1.7954423979109884 [Eh]
	 SCS Total Energy          =    -437.3950786653196019 [Eh]
	-----------------------------------------------------------

  Dipole Moment: [D]
     X:     1.0865      Y:    -3.2334      Z:    -0.0000     Total:     3.4111

*** Psi4 exiting successfully. Buy a developer a beer!
