                               Psi4 1.4a3.dev225

  ==> Input File <==

--------------------------------------------------------------------------
#psi4
#
memory 32 gb

molecule  {
0 1
  O        0.9755400    -1.0764940     0.0000010
  O       -1.3738420     1.6199730     0.0000050
  N       -1.7006930    -0.6600630    -0.0000030
  C        0.5224480     0.2188310    -0.0000040
  C       -0.9336490     0.4655780     0.0000000
  C        1.5430540     1.0577943    -0.0000030
  C        2.7579030     0.2894600     0.0000000
  C        2.3428020    -1.0138960     0.0000040
  C       -3.1488560    -0.5988880     0.0000010
  H        1.5004040     2.1673970    -0.0000090
  H       -1.2325350    -1.5568070    -0.0000080
  H        3.7847070     0.6289700     0.0000040
  H        2.8531580    -1.9656810     0.0000030
  H       -3.4251050     0.4551520     0.0000010
  H       -3.5616590    -1.0800960     0.8913170
  H       -3.5616630    -1.0800960    -0.8913140
units angstrom
no_reorient  #important for SAPT in psi4, default
symmetry c1  #important for SAPT in psi4, default
}

set PROPERTIES_ORIGIN ["COM"]
properties('MP2/aug-cc-pvtz', properties = ['dipole'])
--------------------------------------------------------------------------

    Molecular point group: c1
  Charge       = 0
  Multiplicity = 1
  Basis Set: AUG-CC-PVTZ
    Blend: AUG-CC-PVTZ
  Basis Set: (AUG-CC-PVTZ AUX)
    Blend: AUG-CC-PVTZ-JKFIT

    Orbital Energies [Eh]
    ---------------------

    Doubly Occupied:

       1A    -20.639284     2A    -20.516248     3A    -15.589363
       4A    -11.360627     5A    -11.312348     6A    -11.294936
       7A    -11.259568     8A    -11.248732     9A    -11.247558
      10A     -1.473779    11A     -1.371374    12A     -1.231705
      13A     -1.103449    14A     -1.042235    15A     -0.955457
      16A     -0.839084    17A     -0.821423    18A     -0.774075
      19A     -0.762946    20A     -0.670516    21A     -0.659603
      22A     -0.642595    23A     -0.618811    24A     -0.602419
      25A     -0.585253    26A     -0.574334    27A     -0.556581
      28A     -0.542648    29A     -0.536690    30A     -0.434217
      31A     -0.414552    32A     -0.391955    33A     -0.337764

  @DF-RHF Final Energy:  -435.60157578925197

   => Energetics <=

    Nuclear Repulsion Energy =            430.3693564617237257
    One-Electron Energy =               -1447.1176069326106699
    Two-Electron Energy =                 581.1466746816348632
    Total Energy =                       -435.6015757892520242
  Basis Set: (AUG-CC-PVTZ AUX)
    Blend: AUG-CC-PVTZ-RI
    Molecular point group: c1

    Geometry (in Angstrom), charge = 0, multiplicity = 1:

       Center              X                  Y                   Z               Mass
    ------------   -----------------  -----------------  -----------------  -----------------
         O            0.950369677546    -1.092698665913     0.000000808766    15.994914619570
         O           -1.399012322454     1.603768334087     0.000004808766    15.994914619570
         N           -1.725863322454    -0.676267665913    -0.000003191234    14.003074004430
         C            0.497277677546     0.202626334087    -0.000004191234    12.000000000000
         C           -0.958819322454     0.449373334087    -0.000000191234    12.000000000000
         C            1.517883677546     1.041589634087    -0.000003191234    12.000000000000
         C            2.732732677546     0.273255334087    -0.000000191234    12.000000000000
         C            2.317631677546    -1.030100665913     0.000003808766    12.000000000000
         C           -3.174026322454    -0.615092665913     0.000000808766    12.000000000000
         H            1.475233677546     2.151192334087    -0.000009191234     1.007825032230
         H           -1.257705322454    -1.573011665913    -0.000008191234     1.007825032230
         H            3.759536677546     0.612765334087     0.000003808766     1.007825032230
         H            2.827987677546    -1.981885665913     0.000002808766     1.007825032230
         H           -3.450275322454     0.438947334087     0.000000808766     1.007825032230
         H           -3.586829322454    -1.096300665913     0.891316808766     1.007825032230
         H           -3.586833322454    -1.096300665913    -0.891314191234     1.007825032230

  Basis Set: AUG-CC-PVTZ
    Blend: AUG-CC-PVTZ
  Basis Set: (AUG-CC-PVTZ AUX)
    Blend: AUG-CC-PVTZ-JKFIT
	 Reference Energy          =    -435.6015757892519673 [Eh]
	 Singles Energy            =      -0.0000000000000000 [Eh]
	 Same-Spin Energy          =      -0.4468035557330615 [Eh]
	 Opposite-Spin Energy      =      -1.3699597794858733 [Eh]
	 Correlation Energy        =      -1.8167633352189347 [Eh]
	 Total Energy              =    -437.4183391244708901 [Eh]

	 ================> DF-SCS-MP2 Energies <==================
	-----------------------------------------------------------
	 SCS Same-Spin Scale       =       0.3333333333333333 [-]
	 SCS Opposite-Spin Scale   =       1.2000000000000000 [-]
	 SCS Same-Spin Energy      =      -0.1489345185776872 [Eh]
	 SCS Opposite-Spin Energy  =      -1.6439517353830480 [Eh]
	 SCS Correlation Energy    =      -1.7928862539607351 [Eh]
	 SCS Total Energy          =    -437.3944620432126840 [Eh]
	-----------------------------------------------------------

  Dipole Moment: [D]
     X:     1.0894      Y:    -3.2159      Z:    -0.0000     Total:     3.3954

*** Psi4 exiting successfully. Buy a developer a beer!
