                               Psi4 1.3.2 release

  ==> Input File <==

--------------------------------------------------------------------------
#psi4
#
memory 32 gb

molecule  {
0 1
  O        0.9741883    -1.0287391     0.0000008
  O       -1.3738420     1.6199730     0.0000050
  N       -1.7006930    -0.6600630    -0.0000030
  C        0.5224480     0.2188310    -0.0000040
  C       -0.9336490     0.4655780     0.0000000
  C        1.5816790     1.0895450    -0.0000030
  C        2.7579030     0.2894600     0.0000000
  C        2.3428020    -1.0138960     0.0000040
  C       -3.1488560    -0.5988880     0.0000010
  H        1.5004040     2.1673970    -0.0000090
  H       -1.2325350    -1.5568070    -0.0000080
  H        3.7847070     0.6289700     0.0000040
  H        2.8531580    -1.9656810     0.0000030
  H       -3.4251050     0.4551520     0.0000010
  H       -3.5616590    -1.0800960     0.8913170
  H       -3.5616630    -1.0800960    -0.8913140
units angstrom
no_reorient  #important for SAPT in psi4, default
symmetry c1  #important for SAPT in psi4, default
}

set PROPERTIES_ORIGIN ["COM"]
properties('MP2/aug-cc-pvtz', properties = ['dipole'])
--------------------------------------------------------------------------

    Molecular point group: c1
  Charge       = 0
  Multiplicity = 1
  Basis Set: AUG-CC-PVTZ
    Blend: AUG-CC-PVTZ
  Basis Set: (AUG-CC-PVTZ AUX)
    Blend: AUG-CC-PVTZ-JKFIT

    Orbital Energies [Eh]
    ---------------------

    Doubly Occupied:

       1A    -20.643816     2A    -20.516459     3A    -15.589979
       4A    -11.360622     5A    -11.310335     6A    -11.299207
       7A    -11.260026     8A    -11.247800     9A    -11.246159
      10A     -1.490623    11A     -1.371521    12A     -1.232293
      13A     -1.097965    14A     -1.044512    15A     -0.955690
      16A     -0.840707    17A     -0.823835    18A     -0.775383
      19A     -0.767693    20A     -0.678326    21A     -0.667372
      22A     -0.642209    23A     -0.619872    24A     -0.601627
      25A     -0.582567    26A     -0.578346    27A     -0.559723
      28A     -0.541962    29A     -0.536356    30A     -0.434385
      31A     -0.411160    32A     -0.392039    33A     -0.330427

  @DF-RHF Final Energy:  -435.60219204362295

   => Energetics <=

    Nuclear Repulsion Energy =            430.7260600806883986
    One-Electron Energy =               -1447.7545125720723718
    Two-Electron Energy =                 581.4262604477610239
    Total Energy =                       -435.6021920436229493
  Basis Set: (AUG-CC-PVTZ AUX)
    Blend: AUG-CC-PVTZ-RI
    Molecular point group: c1

    Geometry (in Angstrom), charge = 0, multiplicity = 1:

       Center              X                  Y                   Z               Mass
    ------------   -----------------  -----------------  -----------------  -----------------
         O            0.945484288002    -1.054099025428     0.000000634349    15.994914619570
         O           -1.402546011998     1.594613074572     0.000004834349    15.994914619570
         N           -1.729397011998    -0.685422925428    -0.000003165651    14.003074004430
         C            0.493743988002     0.193471074572    -0.000004165651    12.000000000000
         C           -0.962353011998     0.440218074572    -0.000000165651    12.000000000000
         C            1.552974988002     1.064185074572    -0.000003165651    12.000000000000
         C            2.729198988002     0.264100074572    -0.000000165651    12.000000000000
         C            2.314097988002    -1.039255925428     0.000003834349    12.000000000000
         C           -3.177560011998    -0.624247925428     0.000000834349    12.000000000000
         H            1.471699988002     2.142037074572    -0.000009165651     1.007825032230
         H           -1.261239011998    -1.582166925428    -0.000008165651     1.007825032230
         H            3.756002988002     0.603610074572     0.000003834349     1.007825032230
         H            2.824453988002    -1.991040925428     0.000002834349     1.007825032230
         H           -3.453809011998     0.429792074572     0.000000834349     1.007825032230
         H           -3.590363011998    -1.105455925428     0.891316834349     1.007825032230
         H           -3.590367011998    -1.105455925428    -0.891314165651     1.007825032230

  Basis Set: AUG-CC-PVTZ
    Blend: AUG-CC-PVTZ
  Basis Set: (AUG-CC-PVTZ AUX)
    Blend: AUG-CC-PVTZ-JKFIT
	 Reference Energy          =    -435.6021920436229493 [Eh]
	 Singles Energy            =      -0.0000000000000000 [Eh]
	 Same-Spin Energy          =      -0.4478507871238957 [Eh]
	 Opposite-Spin Energy      =      -1.3703373504819241 [Eh]
	 Correlation Energy        =      -1.8181881376058198 [Eh]
	 Total Energy              =    -437.4203801812287793 [Eh]

	 ================> DF-SCS-MP2 Energies <==================
	-----------------------------------------------------------
	 SCS Same-Spin Scale       =       0.3333333333333333 [-]
	 SCS Opposite-Spin Scale   =       1.2000000000000000 [-]
	 SCS Same-Spin Energy      =      -0.1492835957079652 [Eh]
	 SCS Opposite-Spin Energy  =      -1.6444048205783088 [Eh]
	 SCS Correlation Energy    =      -1.7936884162862741 [Eh]
	 SCS Total Energy          =    -437.3958804599092218 [Eh]
	-----------------------------------------------------------

  Dipole Moment: [D]
     X:     1.0586      Y:    -3.3828      Z:    -0.0000     Total:     3.5445

*** Psi4 exiting successfully. Buy a developer a beer!
