                               Psi4 1.4a3.dev225

  ==> Input File <==

--------------------------------------------------------------------------
#psi4
#
memory 32 gb

molecule  {
0 1
  O        0.9755400    -1.0764940     0.0000010
  O       -1.3738420     1.6199730     0.0000050
  N       -1.7006930    -0.6600630    -0.0000030
  C        0.5224480     0.2188310    -0.0000040
  C       -0.9336490     0.4655780     0.0000000
  C        1.5816790     1.0895450    -0.0000030
  C        2.7579030     0.2894600     0.0000000
  C        2.3428020    -1.0138960     0.0000040
  C       -3.1488560    -0.5988880     0.0000010
  H        1.5004040     2.1673970    -0.0000090
  H       -1.2325350    -1.5568070    -0.0000080
  H        3.7847070     0.6289700     0.0000040
  H        2.8437068    -1.9480550     0.0000030
  H       -3.4251050     0.4551520     0.0000010
  H       -3.5616590    -1.0800960     0.8913170
  H       -3.5616630    -1.0800960    -0.8913140
units angstrom
no_reorient  #important for SAPT in psi4, default
symmetry c1  #important for SAPT in psi4, default
}

set PROPERTIES_ORIGIN ["COM"]
properties('MP2/aug-cc-pvtz', properties = ['dipole'])
--------------------------------------------------------------------------

    Molecular point group: c1
  Charge       = 0
  Multiplicity = 1
  Basis Set: AUG-CC-PVTZ
    Blend: AUG-CC-PVTZ
  Basis Set: (AUG-CC-PVTZ AUX)
    Blend: AUG-CC-PVTZ-JKFIT

    Orbital Energies [Eh]
    ---------------------

    Doubly Occupied:

       1A    -20.643469     2A    -20.515866     3A    -15.589013
       4A    -11.360472     5A    -11.310407     6A    -11.301432
       7A    -11.259402     8A    -11.252442     9A    -11.247983
      10A     -1.474341    11A     -1.371030    12A     -1.231447
      13A     -1.101438    14A     -1.039629    15A     -0.954308
      16A     -0.842147    17A     -0.820515    18A     -0.775594
      19A     -0.765235    20A     -0.674263    21A     -0.658682
      22A     -0.641768    23A     -0.618655    24A     -0.601352
      25A     -0.586781    26A     -0.577691    27A     -0.562214
      28A     -0.542330    29A     -0.536321    30A     -0.433863
      31A     -0.414303    32A     -0.391792    33A     -0.330971

  @DF-RHF Final Energy:  -435.60225395313103

   => Energetics <=

    Nuclear Repulsion Energy =            429.5475169092094916
    One-Electron Energy =               -1445.4452305072402396
    Two-Electron Energy =                 580.2954596448997791
    Total Energy =                       -435.6022539531310258
  Basis Set: (AUG-CC-PVTZ AUX)
    Blend: AUG-CC-PVTZ-RI
    Molecular point group: c1

    Geometry (in Angstrom), charge = 0, multiplicity = 1:

       Center              X                  Y                   Z               Mass
    ------------   -----------------  -----------------  -----------------  -----------------
         O            0.946739263534    -1.095887628146     0.000000808766    15.994914619570
         O           -1.402642736466     1.600579371854     0.000004808766    15.994914619570
         N           -1.729493736466    -0.679456628146    -0.000003191234    14.003074004430
         C            0.493647263534     0.199437371854    -0.000004191234    12.000000000000
         C           -0.962449736466     0.446184371854    -0.000000191234    12.000000000000
         C            1.552878263534     1.070151371854    -0.000003191234    12.000000000000
         C            2.729102263534     0.270066371854    -0.000000191234    12.000000000000
         C            2.314001263534    -1.033289628146     0.000003808766    12.000000000000
         C           -3.177656736466    -0.618281628146     0.000000808766    12.000000000000
         H            1.471603263534     2.148003371854    -0.000009191234     1.007825032230
         H           -1.261335736466    -1.576200628146    -0.000008191234     1.007825032230
         H            3.755906263534     0.609576371854     0.000003808766     1.007825032230
         H            2.814906063534    -1.967448628146     0.000002808766     1.007825032230
         H           -3.453905736466     0.435758371854     0.000000808766     1.007825032230
         H           -3.590459736466    -1.099489628146     0.891316808766     1.007825032230
         H           -3.590463736466    -1.099489628146    -0.891314191234     1.007825032230

  Basis Set: AUG-CC-PVTZ
    Blend: AUG-CC-PVTZ
  Basis Set: (AUG-CC-PVTZ AUX)
    Blend: AUG-CC-PVTZ-JKFIT
	 Reference Energy          =    -435.6022539531310258 [Eh]
	 Singles Energy            =      -0.0000000000000000 [Eh]
	 Same-Spin Energy          =      -0.4477791198692997 [Eh]
	 Opposite-Spin Energy      =      -1.3712800951173449 [Eh]
	 Correlation Energy        =      -1.8190592149866447 [Eh]
	 Total Energy              =    -437.4213131681176492 [Eh]

	 ================> DF-SCS-MP2 Energies <==================
	-----------------------------------------------------------
	 SCS Same-Spin Scale       =       0.3333333333333333 [-]
	 SCS Opposite-Spin Scale   =       1.2000000000000000 [-]
	 SCS Same-Spin Energy      =      -0.1492597066230999 [Eh]
	 SCS Opposite-Spin Energy  =      -1.6455361141408138 [Eh]
	 SCS Correlation Energy    =      -1.7947958207639136 [Eh]
	 SCS Total Energy          =    -437.3970497738949348 [Eh]
	-----------------------------------------------------------

  Dipole Moment: [D]
     X:     1.0915      Y:    -3.2344      Z:    -0.0000     Total:     3.4136

*** Psi4 exiting successfully. Buy a developer a beer!
