                               Psi4 1.3.2 release

  ==> Input File <==

--------------------------------------------------------------------------
#psi4
#
memory 32 gb

molecule  {
0 1
  O        1.0204702    -1.0598922     0.0000011
  O       -1.3738420     1.6199730     0.0000050
  N       -1.7006930    -0.6600630    -0.0000030
  C        0.5224480     0.2188310    -0.0000040
  C       -0.9336490     0.4655780     0.0000000
  C        1.5816790     1.0895450    -0.0000030
  C        2.7579030     0.2894600     0.0000000
  C        2.3428020    -1.0138960     0.0000040
  C       -3.1488560    -0.5988880     0.0000010
  H        1.5004040     2.1673970    -0.0000090
  H       -1.2325350    -1.5568070    -0.0000080
  H        3.7847070     0.6289700     0.0000040
  H        2.8531580    -1.9656810     0.0000030
  H       -3.4251050     0.4551520     0.0000010
  H       -3.5616590    -1.0800960     0.8913170
  H       -3.5616630    -1.0800960    -0.8913140
units angstrom
no_reorient  #important for SAPT in psi4, default
symmetry c1  #important for SAPT in psi4, default
}

set PROPERTIES_ORIGIN ["COM"]
properties('MP2/aug-cc-pvtz', properties = ['dipole'])
--------------------------------------------------------------------------

    Molecular point group: c1
  Charge       = 0
  Multiplicity = 1
  Basis Set: AUG-CC-PVTZ
    Blend: AUG-CC-PVTZ
  Basis Set: (AUG-CC-PVTZ AUX)
    Blend: AUG-CC-PVTZ-JKFIT

    Orbital Energies [Eh]
    ---------------------

    Doubly Occupied:

       1A    -20.644400     2A    -20.516366     3A    -15.589807
       4A    -11.362036     5A    -11.310217     6A    -11.299373
       7A    -11.259924     8A    -11.252073     9A    -11.242403
      10A     -1.490677    11A     -1.371872    12A     -1.232287
      13A     -1.098485    14A     -1.044532    15A     -0.955378
      16A     -0.840633    17A     -0.824778    18A     -0.775634
      19A     -0.767087    20A     -0.679228    21A     -0.666480
      22A     -0.642038    23A     -0.620506    24A     -0.602598
      25A     -0.586699    26A     -0.573794    27A     -0.558247
      28A     -0.541927    29A     -0.537775    30A     -0.434901
      31A     -0.410432    32A     -0.392707    33A     -0.330812

  @DF-RHF Final Energy:  -435.60277776116425

   => Energetics <=

    Nuclear Repulsion Energy =            430.0767554381665718
    One-Electron Energy =               -1446.4468599858339530
    Two-Electron Energy =                 580.7673267865030766
    Total Energy =                       -435.6027777611642477
  Basis Set: (AUG-CC-PVTZ AUX)
    Blend: AUG-CC-PVTZ-RI
    Molecular point group: c1

    Geometry (in Angstrom), charge = 0, multiplicity = 1:

       Center              X                  Y                   Z               Mass
    ------------   -----------------  -----------------  -----------------  -----------------
         O            0.985846245720    -1.081267315948     0.000000895975    15.994914619570
         O           -1.408465954280     1.598597884052     0.000004795975    15.994914619570
         N           -1.735316954280    -0.681438115948    -0.000003204025    14.003074004430
         C            0.487824045720     0.197455884052    -0.000004204025    12.000000000000
         C           -0.968272954280     0.444202884052    -0.000000204025    12.000000000000
         C            1.547055045720     1.068169884052    -0.000003204025    12.000000000000
         C            2.723279045720     0.268084884052    -0.000000204025    12.000000000000
         C            2.308178045720    -1.035271115948     0.000003795975    12.000000000000
         C           -3.183479954280    -0.620263115948     0.000000795975    12.000000000000
         H            1.465780045720     2.146021884052    -0.000009204025     1.007825032230
         H           -1.267158954280    -1.578182115948    -0.000008204025     1.007825032230
         H            3.750083045720     0.607594884052     0.000003795975     1.007825032230
         H            2.818534045720    -1.987056115948     0.000002795975     1.007825032230
         H           -3.459728954280     0.433776884052     0.000000795975     1.007825032230
         H           -3.596282954280    -1.101471115948     0.891316795975     1.007825032230
         H           -3.596286954280    -1.101471115948    -0.891314204025     1.007825032230

  Basis Set: AUG-CC-PVTZ
    Blend: AUG-CC-PVTZ
  Basis Set: (AUG-CC-PVTZ AUX)
    Blend: AUG-CC-PVTZ-JKFIT
	 Reference Energy          =    -435.6027777611642477 [Eh]
	 Singles Energy            =      -0.0000000000000000 [Eh]
	 Same-Spin Energy          =      -0.4476319151486913 [Eh]
	 Opposite-Spin Energy      =      -1.3697539907473675 [Eh]
	 Correlation Energy        =      -1.8173859058960589 [Eh]
	 Total Energy              =    -437.4201636670603079 [Eh]

	 ================> DF-SCS-MP2 Energies <==================
	-----------------------------------------------------------
	 SCS Same-Spin Scale       =       0.3333333333333333 [-]
	 SCS Opposite-Spin Scale   =       1.2000000000000000 [-]
	 SCS Same-Spin Energy      =      -0.1492106383828971 [Eh]
	 SCS Opposite-Spin Energy  =      -1.6437047888968410 [Eh]
	 SCS Correlation Energy    =      -1.7929154272797381 [Eh]
	 SCS Total Energy          =    -437.3956931884439996 [Eh]
	-----------------------------------------------------------

  Dipole Moment: [D]
     X:     0.9450      Y:    -3.3304      Z:    -0.0000     Total:     3.4619

*** Psi4 exiting successfully. Buy a developer a beer!
