                               Psi4 1.3.2 release

  ==> Input File <==

--------------------------------------------------------------------------
#psi4
#
memory 32 gb

molecule  {
0 1
  O        0.9755400    -1.0764940     0.0000010
  O       -1.3738420     1.6199730     0.0000050
  N       -1.8141526    -0.5737187    -0.0000024
  C        0.5224480     0.2188310    -0.0000040
  C       -0.9336490     0.4655780     0.0000000
  C        1.5816790     1.0895450    -0.0000030
  C        2.7579030     0.2894600     0.0000000
  C        2.3428020    -1.0138960     0.0000040
  C       -3.1488560    -0.5988880     0.0000010
  H        1.5004040     2.1673970    -0.0000090
  H       -1.2325350    -1.5568070    -0.0000080
  H        3.7847070     0.6289700     0.0000040
  H        2.8531580    -1.9656810     0.0000030
  H       -3.4251050     0.4551520     0.0000010
  H       -3.5616590    -1.0800960     0.8913170
  H       -3.5616630    -1.0800960    -0.8913140
units angstrom
no_reorient  #important for SAPT in psi4, default
symmetry c1  #important for SAPT in psi4, default
}

set PROPERTIES_ORIGIN ["COM"]
properties('MP2/aug-cc-pvtz', properties = ['dipole'])
--------------------------------------------------------------------------

    Molecular point group: c1
  Charge       = 0
  Multiplicity = 1
  Basis Set: AUG-CC-PVTZ
    Blend: AUG-CC-PVTZ
  Basis Set: (AUG-CC-PVTZ AUX)
    Blend: AUG-CC-PVTZ-JKFIT

    Orbital Energies [Eh]
    ---------------------

    Doubly Occupied:

       1A    -20.647528     2A    -20.510630     3A    -15.593256
       4A    -11.361238     5A    -11.316422     6A    -11.308554
       7A    -11.257738     8A    -11.251520     9A    -11.249131
      10A     -1.478031    11A     -1.373877    12A     -1.241159
      13A     -1.105543    14A     -1.046147    15A     -0.962610
      16A     -0.836417    17A     -0.823326    18A     -0.770371
      19A     -0.750599    20A     -0.676269    21A     -0.663012
      22A     -0.659766    23A     -0.631986    24A     -0.601220
      25A     -0.591104    26A     -0.585146    27A     -0.566538
      28A     -0.532703    29A     -0.513497    30A     -0.431760
      31A     -0.417350    32A     -0.379766    33A     -0.335027

  @DF-RHF Final Energy:  -435.57119973990632

   => Energetics <=

    Nuclear Repulsion Energy =            429.8205540497097559
    One-Electron Energy =               -1445.8450248372496389
    Two-Electron Energy =                 580.4532710476336206
    Total Energy =                       -435.5711997399063193
  Basis Set: (AUG-CC-PVTZ AUX)
    Blend: AUG-CC-PVTZ-RI
    Molecular point group: c1

    Geometry (in Angstrom), charge = 0, multiplicity = 1:

       Center              X                  Y                   Z               Mass
    ------------   -----------------  -----------------  -----------------  -----------------
         O            0.959368510543    -1.105414567897     0.000000741577    15.994914619570
         O           -1.390013489457     1.591052432103     0.000004741577    15.994914619570
         N           -1.830324089457    -0.602639267897    -0.000002658423    14.003074004430
         C            0.506276510543     0.189910432103    -0.000004258423    12.000000000000
         C           -0.949820489457     0.436657432103    -0.000000258423    12.000000000000
         C            1.565507510543     1.060624432103    -0.000003258423    12.000000000000
         C            2.741731510543     0.260539432103    -0.000000258423    12.000000000000
         C            2.326630510543    -1.042816567897     0.000003741577    12.000000000000
         C           -3.165027489457    -0.627808567897     0.000000741577    12.000000000000
         H            1.484232510543     2.138476432103    -0.000009258423     1.007825032230
         H           -1.248706489457    -1.585727567897    -0.000008258423     1.007825032230
         H            3.768535510543     0.600049432103     0.000003741577     1.007825032230
         H            2.836986510543    -1.994601567897     0.000002741577     1.007825032230
         H           -3.441276489457     0.426231432103     0.000000741577     1.007825032230
         H           -3.577830489457    -1.109016567897     0.891316741577     1.007825032230
         H           -3.577834489457    -1.109016567897    -0.891314258423     1.007825032230

  Basis Set: AUG-CC-PVTZ
    Blend: AUG-CC-PVTZ
  Basis Set: (AUG-CC-PVTZ AUX)
    Blend: AUG-CC-PVTZ-JKFIT
	 Reference Energy          =    -435.5711997399063193 [Eh]
	 Singles Energy            =      -0.0000000000000000 [Eh]
	 Same-Spin Energy          =      -0.4497173850518147 [Eh]
	 Opposite-Spin Energy      =      -1.3743374094327141 [Eh]
	 Correlation Energy        =      -1.8240547944845287 [Eh]
	 Total Energy              =    -437.3952545343908582 [Eh]

	 ================> DF-SCS-MP2 Energies <==================
	-----------------------------------------------------------
	 SCS Same-Spin Scale       =       0.3333333333333333 [-]
	 SCS Opposite-Spin Scale   =       1.2000000000000000 [-]
	 SCS Same-Spin Energy      =      -0.1499057950172716 [Eh]
	 SCS Opposite-Spin Energy  =      -1.6492048913192570 [Eh]
	 SCS Correlation Energy    =      -1.7991106863365285 [Eh]
	 SCS Total Energy          =    -437.3703104262428383 [Eh]
	-----------------------------------------------------------

  Dipole Moment: [D]
     X:     1.4923      Y:    -3.2799      Z:    -0.0000     Total:     3.6034

*** Psi4 exiting successfully. Buy a developer a beer!
