                               Psi4 1.3.2 release

  ==> Input File <==

--------------------------------------------------------------------------
#psi4
#
memory 32 gb

molecule  {
0 1
  O        0.9755400    -1.0764940     0.0000010
  O       -1.3738420     1.6199730     0.0000050
  N       -1.7006930    -0.6600630    -0.0000030
  C        0.5224480     0.2188310    -0.0000040
  C       -0.9336490     0.4655780     0.0000000
  C        1.5816790     1.0895450    -0.0000030
  C        2.7579030     0.2894600     0.0000000
  C        2.3428020    -1.0138960     0.0000040
  C       -3.1488560    -0.5988880     0.0000010
  H        1.4928849     2.2671139    -0.0000096
  H       -1.2325350    -1.5568070    -0.0000080
  H        3.7847070     0.6289700     0.0000040
  H        2.8531580    -1.9656810     0.0000030
  H       -3.4251050     0.4551520     0.0000010
  H       -3.5616590    -1.0800960     0.8913170
  H       -3.5616630    -1.0800960    -0.8913140
units angstrom
no_reorient  #important for SAPT in psi4, default
symmetry c1  #important for SAPT in psi4, default
}

set PROPERTIES_ORIGIN ["COM"]
properties('MP2/aug-cc-pvtz', properties = ['dipole'])
--------------------------------------------------------------------------

    Molecular point group: c1
  Charge       = 0
  Multiplicity = 1
  Basis Set: AUG-CC-PVTZ
    Blend: AUG-CC-PVTZ
  Basis Set: (AUG-CC-PVTZ AUX)
    Blend: AUG-CC-PVTZ-JKFIT

    Orbital Energies [Eh]
    ---------------------

    Doubly Occupied:

       1A    -20.643971     2A    -20.515601     3A    -15.588914
       4A    -11.360347     5A    -11.312966     6A    -11.301740
       7A    -11.262440     8A    -11.259327     9A    -11.248704
      10A     -1.474776    11A     -1.370795    12A     -1.231331
      13A     -1.100242    14A     -1.038665    15A     -0.953503
      16A     -0.839705    17A     -0.816370    18A     -0.773822
      19A     -0.758461    20A     -0.670354    21A     -0.659053
      22A     -0.641496    23A     -0.618631    24A     -0.600972
      25A     -0.577825    26A     -0.569781    27A     -0.559537
      28A     -0.542211    29A     -0.536178    30A     -0.433579
      31A     -0.414614    32A     -0.391666    33A     -0.331164

  @DF-RHF Final Energy:  -435.59446764775583

   => Energetics <=

    Nuclear Repulsion Energy =            428.9678138512486498
    One-Electron Energy =               -1444.3270760595082720
    Two-Electron Energy =                 579.7647945605037876
    Total Energy =                       -435.5944676477558914
  Basis Set: (AUG-CC-PVTZ AUX)
    Blend: AUG-CC-PVTZ-RI
    Molecular point group: c1

    Geometry (in Angstrom), charge = 0, multiplicity = 1:

       Center              X                  Y                   Z               Mass
    ------------   -----------------  -----------------  -----------------  -----------------
         O            0.946723691723    -1.096549241900     0.000000813602    15.994914619570
         O           -1.402658308277     1.599917758100     0.000004813602    15.994914619570
         N           -1.729509308277    -0.680118241900    -0.000003186398    14.003074004430
         C            0.493631691723     0.198775758100    -0.000004186398    12.000000000000
         C           -0.962465308277     0.445522758100    -0.000000186398    12.000000000000
         C            1.552862691723     1.069489758100    -0.000003186398    12.000000000000
         C            2.729086691723     0.269404758100    -0.000000186398    12.000000000000
         C            2.313985691723    -1.033951241900     0.000003813602    12.000000000000
         C           -3.177672308277    -0.618943241900     0.000000813602    12.000000000000
         H            1.464068591723     2.247058658100    -0.000009786398     1.007825032230
         H           -1.261351308277    -1.576862241900    -0.000008186398     1.007825032230
         H            3.755890691723     0.608914758100     0.000003813602     1.007825032230
         H            2.824341691723    -1.985736241900     0.000002813602     1.007825032230
         H           -3.453921308277     0.435096758100     0.000000813602     1.007825032230
         H           -3.590475308277    -1.100151241900     0.891316813602     1.007825032230
         H           -3.590479308277    -1.100151241900    -0.891314186398     1.007825032230

  Basis Set: AUG-CC-PVTZ
    Blend: AUG-CC-PVTZ
  Basis Set: (AUG-CC-PVTZ AUX)
    Blend: AUG-CC-PVTZ-JKFIT
	 Reference Energy          =    -435.5944676477558346 [Eh]
	 Singles Energy            =      -0.0000000000000000 [Eh]
	 Same-Spin Energy          =      -0.4480584148102411 [Eh]
	 Opposite-Spin Energy      =      -1.3723263468034255 [Eh]
	 Correlation Energy        =      -1.8203847616136666 [Eh]
	 Total Energy              =    -437.4148524093694732 [Eh]

	 ================> DF-SCS-MP2 Energies <==================
	-----------------------------------------------------------
	 SCS Same-Spin Scale       =       0.3333333333333333 [-]
	 SCS Opposite-Spin Scale   =       1.2000000000000000 [-]
	 SCS Same-Spin Energy      =      -0.1493528049367470 [Eh]
	 SCS Opposite-Spin Energy  =      -1.6467916161641105 [Eh]
	 SCS Correlation Energy    =      -1.7961444211008575 [Eh]
	 SCS Total Energy          =    -437.3906120688566830 [Eh]
	-----------------------------------------------------------

  Dipole Moment: [D]
     X:     1.0955      Y:    -3.2165      Z:    -0.0000     Total:     3.3979

*** Psi4 exiting successfully. Buy a developer a beer!
