                               Psi4 1.3.2 release

  ==> Input File <==

--------------------------------------------------------------------------
#psi4
#
memory 32 gb

molecule  {
0 1
  O        0.9755400    -1.0764940     0.0000010
  O       -1.3738420     1.6199730     0.0000050
  N       -1.7006930    -0.6600630    -0.0000030
  C        0.5074133     0.2374497    -0.0000040
  C       -0.9336490     0.4655780     0.0000000
  C        1.5816790     1.0895450    -0.0000030
  C        2.7579030     0.2894600     0.0000000
  C        2.3428020    -1.0138960     0.0000040
  C       -3.1488560    -0.5988880     0.0000010
  H        1.5004040     2.1673970    -0.0000090
  H       -1.2325350    -1.5568070    -0.0000080
  H        3.7847070     0.6289700     0.0000040
  H        2.8531580    -1.9656810     0.0000030
  H       -3.4251050     0.4551520     0.0000010
  H       -3.5616590    -1.0800960     0.8913170
  H       -3.5616630    -1.0800960    -0.8913140
units angstrom
no_reorient  #important for SAPT in psi4, default
symmetry c1  #important for SAPT in psi4, default
}

set PROPERTIES_ORIGIN ["COM"]
properties('MP2/aug-cc-pvtz', properties = ['dipole'])
--------------------------------------------------------------------------

    Molecular point group: c1
  Charge       = 0
  Multiplicity = 1
  Basis Set: AUG-CC-PVTZ
    Blend: AUG-CC-PVTZ
  Basis Set: (AUG-CC-PVTZ AUX)
    Blend: AUG-CC-PVTZ-JKFIT

    Orbital Energies [Eh]
    ---------------------

    Doubly Occupied:

       1A    -20.640688     2A    -20.514892     3A    -15.588603
       4A    -11.359219     5A    -11.314588     6A    -11.300878
       7A    -11.259187     8A    -11.255300     9A    -11.248058
      10A     -1.465602    11A     -1.371164    12A     -1.231109
      13A     -1.100938    14A     -1.039919    15A     -0.953895
      16A     -0.844940    17A     -0.817022    18A     -0.775172
      19A     -0.763026    20A     -0.672037    21A     -0.654566
      22A     -0.641885    23A     -0.617794    24A     -0.600543
      25A     -0.585591    26A     -0.574728    27A     -0.563754
      28A     -0.541806    29A     -0.536696    30A     -0.434155
      31A     -0.414439    32A     -0.391484    33A     -0.331793

  @DF-RHF Final Energy:  -435.60071946972931

   => Energetics <=

    Nuclear Repulsion Energy =            429.3049439519762700
    One-Electron Energy =               -1445.0003834842109427
    Two-Electron Energy =                 580.0947200625053028
    Total Energy =                       -435.6007194697293698
  Basis Set: (AUG-CC-PVTZ AUX)
    Blend: AUG-CC-PVTZ-RI
    Molecular point group: c1

    Geometry (in Angstrom), charge = 0, multiplicity = 1:

       Center              X                  Y                   Z               Mass
    ------------   -----------------  -----------------  -----------------  -----------------
         O            0.948105872224    -1.097532284636     0.000000808766    15.994914619570
         O           -1.401276127776     1.598934715364     0.000004808766    15.994914619570
         N           -1.728127127776    -0.681101284636    -0.000003191234    14.003074004430
         C            0.479979172224     0.216411415364    -0.000004191234    12.000000000000
         C           -0.961083127776     0.444539715364    -0.000000191234    12.000000000000
         C            1.554244872224     1.068506715364    -0.000003191234    12.000000000000
         C            2.730468872224     0.268421715364    -0.000000191234    12.000000000000
         C            2.315367872224    -1.034934284636     0.000003808766    12.000000000000
         C           -3.176290127776    -0.619926284636     0.000000808766    12.000000000000
         H            1.472969872224     2.146358715364    -0.000009191234     1.007825032230
         H           -1.259969127776    -1.577845284636    -0.000008191234     1.007825032230
         H            3.757272872224     0.607931715364     0.000003808766     1.007825032230
         H            2.825723872224    -1.986719284636     0.000002808766     1.007825032230
         H           -3.452539127776     0.434113715364     0.000000808766     1.007825032230
         H           -3.589093127776    -1.101134284636     0.891316808766     1.007825032230
         H           -3.589097127776    -1.101134284636    -0.891314191234     1.007825032230

  Basis Set: AUG-CC-PVTZ
    Blend: AUG-CC-PVTZ
  Basis Set: (AUG-CC-PVTZ AUX)
    Blend: AUG-CC-PVTZ-JKFIT
	 Reference Energy          =    -435.6007194697293130 [Eh]
	 Singles Energy            =      -0.0000000000000000 [Eh]
	 Same-Spin Energy          =      -0.4479791179342777 [Eh]
	 Opposite-Spin Energy      =      -1.3719273414978272 [Eh]
	 Correlation Energy        =      -1.8199064594321048 [Eh]
	 Total Energy              =    -437.4206259291614174 [Eh]

	 ================> DF-SCS-MP2 Energies <==================
	-----------------------------------------------------------
	 SCS Same-Spin Scale       =       0.3333333333333333 [-]
	 SCS Opposite-Spin Scale   =       1.2000000000000000 [-]
	 SCS Same-Spin Energy      =      -0.1493263726447592 [Eh]
	 SCS Opposite-Spin Energy  =      -1.6463128097973927 [Eh]
	 SCS Correlation Energy    =      -1.7956391824421520 [Eh]
	 SCS Total Energy          =    -437.3963586521714433 [Eh]
	-----------------------------------------------------------

  Dipole Moment: [D]
     X:     1.1158      Y:    -3.2152      Z:    -0.0000     Total:     3.4033

*** Psi4 exiting successfully. Buy a developer a beer!
