                               Psi4 1.3.2 release

  ==> Input File <==

--------------------------------------------------------------------------
#psi4
#
memory 32 gb

molecule  {
0 1
  O        0.9755400    -1.0764940     0.0000010
  O       -1.4532962     1.5864546     0.0000051
  N       -1.7006930    -0.6600630    -0.0000030
  C        0.5224480     0.2188310    -0.0000040
  C       -0.9336490     0.4655780     0.0000000
  C        1.5816790     1.0895450    -0.0000030
  C        2.7579030     0.2894600     0.0000000
  C        2.3428020    -1.0138960     0.0000040
  C       -3.1488560    -0.5988880     0.0000010
  H        1.5004040     2.1673970    -0.0000090
  H       -1.2325350    -1.5568070    -0.0000080
  H        3.7847070     0.6289700     0.0000040
  H        2.8531580    -1.9656810     0.0000030
  H       -3.4251050     0.4551520     0.0000010
  H       -3.5616590    -1.0800960     0.8913170
  H       -3.5616630    -1.0800960    -0.8913140
units angstrom
no_reorient  #important for SAPT in psi4, default
symmetry c1  #important for SAPT in psi4, default
}

set PROPERTIES_ORIGIN ["COM"]
properties('MP2/aug-cc-pvtz', properties = ['dipole'])
--------------------------------------------------------------------------

    Molecular point group: c1
  Charge       = 0
  Multiplicity = 1
  Basis Set: AUG-CC-PVTZ
    Blend: AUG-CC-PVTZ
  Basis Set: (AUG-CC-PVTZ AUX)
    Blend: AUG-CC-PVTZ-JKFIT

    Orbital Energies [Eh]
    ---------------------

    Doubly Occupied:

       1A    -20.646268     2A    -20.513953     3A    -15.584516
       4A    -11.359767     5A    -11.315352     6A    -11.305104
       7A    -11.255807     8A    -11.255599     9A    -11.250241
      10A     -1.476847    11A     -1.371433    12A     -1.225576
      13A     -1.104256    14A     -1.041588    15A     -0.951985
      16A     -0.841985    17A     -0.822165    18A     -0.773874
      19A     -0.765814    20A     -0.673043    21A     -0.660630
      22A     -0.639566    23A     -0.616483    24A     -0.602134
      25A     -0.589036    26A     -0.578723    27A     -0.563496
      28A     -0.537894    29A     -0.534579    30A     -0.433205
      31A     -0.416548    32A     -0.388286    33A     -0.333822

  @DF-RHF Final Energy:  -435.60086410916546

   => Energetics <=

    Nuclear Repulsion Energy =            429.3861825796497556
    One-Electron Energy =               -1445.1149459522725920
    Two-Electron Energy =                 580.1278992634572660
    Total Energy =                       -435.6008641091655136
  Basis Set: (AUG-CC-PVTZ AUX)
    Blend: AUG-CC-PVTZ-RI
    Molecular point group: c1

    Geometry (in Angstrom), charge = 0, multiplicity = 1:

       Center              X                  Y                   Z               Mass
    ------------   -----------------  -----------------  -----------------  -----------------
         O            0.956826120041    -1.091458214686     0.000000795975    15.994914619570
         O           -1.472010079959     1.571490385314     0.000004895975    15.994914619570
         N           -1.719406879959    -0.675027214686    -0.000003204025    14.003074004430
         C            0.503734120041     0.203866785314    -0.000004204025    12.000000000000
         C           -0.952362879959     0.450613785314    -0.000000204025    12.000000000000
         C            1.562965120041     1.074580785314    -0.000003204025    12.000000000000
         C            2.739189120041     0.274495785314    -0.000000204025    12.000000000000
         C            2.324088120041    -1.028860214686     0.000003795975    12.000000000000
         C           -3.167569879959    -0.613852214686     0.000000795975    12.000000000000
         H            1.481690120041     2.152432785314    -0.000009204025     1.007825032230
         H           -1.251248879959    -1.571771214686    -0.000008204025     1.007825032230
         H            3.765993120041     0.614005785314     0.000003795975     1.007825032230
         H            2.834444120041    -1.980645214686     0.000002795975     1.007825032230
         H           -3.443818879959     0.440187785314     0.000000795975     1.007825032230
         H           -3.580372879959    -1.095060214686     0.891316795975     1.007825032230
         H           -3.580376879959    -1.095060214686    -0.891314204025     1.007825032230

  Basis Set: AUG-CC-PVTZ
    Blend: AUG-CC-PVTZ
  Basis Set: (AUG-CC-PVTZ AUX)
    Blend: AUG-CC-PVTZ-JKFIT
	 Reference Energy          =    -435.6008641091654567 [Eh]
	 Singles Energy            =      -0.0000000000000000 [Eh]
	 Same-Spin Energy          =      -0.4479537133222138 [Eh]
	 Opposite-Spin Energy      =      -1.3714839393348066 [Eh]
	 Correlation Energy        =      -1.8194376526570204 [Eh]
	 Total Energy              =    -437.4203017618224862 [Eh]

	 ================> DF-SCS-MP2 Energies <==================
	-----------------------------------------------------------
	 SCS Same-Spin Scale       =       0.3333333333333333 [-]
	 SCS Opposite-Spin Scale   =       1.2000000000000000 [-]
	 SCS Same-Spin Energy      =      -0.1493179044407379 [Eh]
	 SCS Opposite-Spin Energy  =      -1.6457807272017679 [Eh]
	 SCS Correlation Energy    =      -1.7950986316425059 [Eh]
	 SCS Total Energy          =    -437.3959627408079882 [Eh]
	-----------------------------------------------------------

  Dipole Moment: [D]
     X:     1.3979      Y:    -3.1644      Z:    -0.0000     Total:     3.4594

*** Psi4 exiting successfully. Buy a developer a beer!
