                               Psi4 1.3.2 release

  ==> Input File <==

--------------------------------------------------------------------------
#psi4
#
memory 32 gb

molecule  {
0 1
  O        0.9755400    -1.0764940     0.0000010
  O       -1.3738420     1.6199730     0.0000050
  N       -1.7006930    -0.6600630    -0.0000030
  C        0.5224480     0.2188310    -0.0000040
  C       -0.9336490     0.4655780     0.0000000
  C        1.5816790     1.0895450    -0.0000030
  C        2.7579030     0.2894600     0.0000000
  C        2.1430113    -1.0230431     0.0000036
  C       -3.1488560    -0.5988880     0.0000010
  H        1.5004040     2.1673970    -0.0000090
  H       -1.2325350    -1.5568070    -0.0000080
  H        3.7847070     0.6289700     0.0000040
  H        2.8531580    -1.9656810     0.0000030
  H       -3.4251050     0.4551520     0.0000010
  H       -3.5616590    -1.0800960     0.8913170
  H       -3.5616630    -1.0800960    -0.8913140
units angstrom
no_reorient  #important for SAPT in psi4, default
symmetry c1  #important for SAPT in psi4, default
}

set PROPERTIES_ORIGIN ["COM"]
properties('MP2/aug-cc-pvtz', properties = ['dipole'])
--------------------------------------------------------------------------

    Molecular point group: c1
  Charge       = 0
  Multiplicity = 1
  Basis Set: AUG-CC-PVTZ
    Blend: AUG-CC-PVTZ
  Basis Set: (AUG-CC-PVTZ AUX)
    Blend: AUG-CC-PVTZ-JKFIT

    Orbital Energies [Eh]
    ---------------------

    Doubly Occupied:

       1A    -20.677891     2A    -20.510016     3A    -15.586603
       4A    -11.357094     5A    -11.331516     6A    -11.289357
       7A    -11.258587     8A    -11.258332     9A    -11.239897
      10A     -1.585714    11A     -1.367463    12A     -1.230173
      13A     -1.110302    14A     -1.047301    15A     -0.950047
      16A     -0.848985    17A     -0.828408    18A     -0.797536
      19A     -0.769573    20A     -0.719080    21A     -0.686156
      22A     -0.639356    23A     -0.621150    24A     -0.616034
      25A     -0.602086    26A     -0.567647    27A     -0.544738
      28A     -0.537509    29A     -0.511700    30A     -0.428937
      31A     -0.414702    32A     -0.391696    33A     -0.315858

  @DF-RHF Final Energy:  -435.55483373591176

   => Energetics <=

    Nuclear Repulsion Energy =            433.3584716718601726
    One-Electron Energy =               -1452.5437230814152372
    Two-Electron Energy =                 583.6304176736433647
    Total Energy =                       -435.5548337359117568
  Basis Set: (AUG-CC-PVTZ AUX)
    Blend: AUG-CC-PVTZ-RI
    Molecular point group: c1

    Geometry (in Angstrom), charge = 0, multiplicity = 1:

       Center              X                  Y                   Z               Mass
    ------------   -----------------  -----------------  -----------------  -----------------
         O            0.965835685581    -1.094867784151     0.000000847152    15.994914619570
         O           -1.383546314419     1.601599215849     0.000004847152    15.994914619570
         N           -1.710397314419    -0.678436784151    -0.000003152848    14.003074004430
         C            0.512743685581     0.200457215849    -0.000004152848    12.000000000000
         C           -0.943353314419     0.447204215849    -0.000000152848    12.000000000000
         C            1.571974685581     1.071171215849    -0.000003152848    12.000000000000
         C            2.748198685581     0.271086215849    -0.000000152848    12.000000000000
         C            2.133306985581    -1.041416884151     0.000003447152    12.000000000000
         C           -3.158560314419    -0.617261784151     0.000000847152    12.000000000000
         H            1.490699685581     2.149023215849    -0.000009152848     1.007825032230
         H           -1.242239314419    -1.575180784151    -0.000008152848     1.007825032230
         H            3.775002685581     0.610596215849     0.000003847152     1.007825032230
         H            2.843453685581    -1.984054784151     0.000002847152     1.007825032230
         H           -3.434809314419     0.436778215849     0.000000847152     1.007825032230
         H           -3.571363314419    -1.098469784151     0.891316847152     1.007825032230
         H           -3.571367314419    -1.098469784151    -0.891314152848     1.007825032230

  Basis Set: AUG-CC-PVTZ
    Blend: AUG-CC-PVTZ
  Basis Set: (AUG-CC-PVTZ AUX)
    Blend: AUG-CC-PVTZ-JKFIT
	 Reference Energy          =    -435.5548337359117568 [Eh]
	 Singles Energy            =      -0.0000000000000000 [Eh]
	 Same-Spin Energy          =      -0.4477500191091361 [Eh]
	 Opposite-Spin Energy      =      -1.3671259941611962 [Eh]
	 Correlation Energy        =      -1.8148760132703323 [Eh]
	 Total Energy              =    -437.3697097491821069 [Eh]

	 ================> DF-SCS-MP2 Energies <==================
	-----------------------------------------------------------
	 SCS Same-Spin Scale       =       0.3333333333333333 [-]
	 SCS Opposite-Spin Scale   =       1.2000000000000000 [-]
	 SCS Same-Spin Energy      =      -0.1492500063697120 [Eh]
	 SCS Opposite-Spin Energy  =      -1.6405511929934353 [Eh]
	 SCS Correlation Energy    =      -1.7898011993631473 [Eh]
	 SCS Total Energy          =    -437.3446349352748825 [Eh]
	-----------------------------------------------------------

  Dipole Moment: [D]
     X:     0.8924      Y:    -3.4185      Z:    -0.0000     Total:     3.5331

*** Psi4 exiting successfully. Buy a developer a beer!
