                               Psi4 1.3.2 release

  ==> Input File <==

--------------------------------------------------------------------------
#psi4
#
memory 32 gb

molecule  {
0 1
  O        0.9755400    -1.0764940     0.0000010
  O       -1.3738420     1.6199730     0.0000050
  N       -1.7006930    -0.6600630    -0.0000030
  C        0.5224480     0.2188310    -0.0000040
  C       -0.9336490     0.4655780     0.0000000
  C        1.5816790     1.0895450    -0.0000030
  C        2.7579030     0.2894600     0.0000000
  C        2.3428020    -1.0138960     0.0000040
  C       -3.1488560    -0.5988880     0.0000010
  H        1.5079231     2.0676801    -0.0000084
  H       -1.2325350    -1.5568070    -0.0000080
  H        3.7847070     0.6289700     0.0000040
  H        2.8531580    -1.9656810     0.0000030
  H       -3.4251050     0.4551520     0.0000010
  H       -3.5616590    -1.0800960     0.8913170
  H       -3.5616630    -1.0800960    -0.8913140
units angstrom
no_reorient  #important for SAPT in psi4, default
symmetry c1  #important for SAPT in psi4, default
}

set PROPERTIES_ORIGIN ["COM"]
properties('MP2/aug-cc-pvtz', properties = ['dipole'])
--------------------------------------------------------------------------

    Molecular point group: c1
  Charge       = 0
  Multiplicity = 1
  Basis Set: AUG-CC-PVTZ
    Blend: AUG-CC-PVTZ
  Basis Set: (AUG-CC-PVTZ AUX)
    Blend: AUG-CC-PVTZ-JKFIT

    Orbital Energies [Eh]
    ---------------------

    Doubly Occupied:

       1A    -20.643395     2A    -20.516180     3A    -15.589170
       4A    -11.360685     5A    -11.312293     6A    -11.301396
       7A    -11.259511     8A    -11.247725     9A    -11.241680
      10A     -1.474217    11A     -1.371309    12A     -1.231615
      13A     -1.103733    14A     -1.039608    15A     -0.954716
      16A     -0.844899    17A     -0.824659    18A     -0.779843
      19A     -0.769197    20A     -0.673299    21A     -0.658582
      22A     -0.642202    23A     -0.618751    24A     -0.604137
      25A     -0.599561    26A     -0.577439    27A     -0.561929
      28A     -0.542364    29A     -0.536517    30A     -0.434146
      31A     -0.414307    32A     -0.391968    33A     -0.330900

  @DF-RHF Final Energy:  -435.59590632455627

   => Energetics <=

    Nuclear Repulsion Energy =            429.9764240677774296
    One-Electron Energy =               -1446.2407960369243938
    Two-Electron Energy =                 580.6684656445906967
    Total Energy =                       -435.5959063245562675
  Basis Set: (AUG-CC-PVTZ AUX)
    Blend: AUG-CC-PVTZ-RI
    Molecular point group: c1

    Geometry (in Angstrom), charge = 0, multiplicity = 1:

       Center              X                  Y                   Z               Mass
    ------------   -----------------  -----------------  -----------------  -----------------
         O            0.946602490957    -1.094941899977     0.000000803931    15.994914619570
         O           -1.402779509043     1.601525100023     0.000004803931    15.994914619570
         N           -1.729630509043    -0.678510899977    -0.000003196069    14.003074004430
         C            0.493510490957     0.200383100023    -0.000004196069    12.000000000000
         C           -0.962586509043     0.447130100023    -0.000000196069    12.000000000000
         C            1.552741490957     1.071097100023    -0.000003196069    12.000000000000
         C            2.728965490957     0.271012100023    -0.000000196069    12.000000000000
         C            2.313864490957    -1.032343899977     0.000003803931    12.000000000000
         C           -3.177793509043    -0.617335899977     0.000000803931    12.000000000000
         H            1.478985590957     2.049232200023    -0.000008596069     1.007825032230
         H           -1.261472509043    -1.575254899977    -0.000008196069     1.007825032230
         H            3.755769490957     0.610522100023     0.000003803931     1.007825032230
         H            2.824220490957    -1.984128899977     0.000002803931     1.007825032230
         H           -3.454042509043     0.436704100023     0.000000803931     1.007825032230
         H           -3.590596509043    -1.098543899977     0.891316803931     1.007825032230
         H           -3.590600509043    -1.098543899977    -0.891314196069     1.007825032230

  Basis Set: AUG-CC-PVTZ
    Blend: AUG-CC-PVTZ
  Basis Set: (AUG-CC-PVTZ AUX)
    Blend: AUG-CC-PVTZ-JKFIT
	 Reference Energy          =    -435.5959063245562675 [Eh]
	 Singles Energy            =      -0.0000000000000000 [Eh]
	 Same-Spin Energy          =      -0.4476658215408550 [Eh]
	 Opposite-Spin Energy      =      -1.3709513679646312 [Eh]
	 Correlation Energy        =      -1.8186171895054861 [Eh]
	 Total Energy              =    -437.4145235140617274 [Eh]

	 ================> DF-SCS-MP2 Energies <==================
	-----------------------------------------------------------
	 SCS Same-Spin Scale       =       0.3333333333333333 [-]
	 SCS Opposite-Spin Scale   =       1.2000000000000000 [-]
	 SCS Same-Spin Energy      =      -0.1492219405136183 [Eh]
	 SCS Opposite-Spin Energy  =      -1.6451416415575575 [Eh]
	 SCS Correlation Energy    =      -1.7943635820711759 [Eh]
	 SCS Total Energy          =    -437.3902699066274522 [Eh]
	-----------------------------------------------------------

  Dipole Moment: [D]
     X:     1.0866      Y:    -3.2645      Z:    -0.0000     Total:     3.4406

*** Psi4 exiting successfully. Buy a developer a beer!
