                               Psi4 1.4a3.dev225

  ==> Input File <==

--------------------------------------------------------------------------
#psi4
#
memory 32 gb

molecule  {
0 1
  O        0.9755400    -1.0764940     0.0000010
  O       -1.3738420     1.6199730     0.0000050
  N       -1.7006930    -0.6600630    -0.0000030
  C        0.5224480     0.2188310    -0.0000040
  C       -0.9336490     0.4655780     0.0000000
  C        1.5816790     1.0895450    -0.0000030
  C        2.7579030     0.2894600     0.0000000
  C        2.3367327    -1.0329528     0.0000041
  C       -3.1488560    -0.5988880     0.0000010
  H        1.5004040     2.1673970    -0.0000090
  H       -1.2325350    -1.5568070    -0.0000080
  H        3.7847070     0.6289700     0.0000040
  H        2.8531580    -1.9656810     0.0000030
  H       -3.4251050     0.4551520     0.0000010
  H       -3.5616590    -1.0800960     0.8913170
  H       -3.5616630    -1.0800960    -0.8913140
units angstrom
no_reorient  #important for SAPT in psi4, default
symmetry c1  #important for SAPT in psi4, default
}

set PROPERTIES_ORIGIN ["COM"]
properties('MP2/aug-cc-pvtz', properties = ['dipole'])
--------------------------------------------------------------------------

    Molecular point group: c1
  Charge       = 0
  Multiplicity = 1
  Basis Set: AUG-CC-PVTZ
    Blend: AUG-CC-PVTZ
  Basis Set: (AUG-CC-PVTZ AUX)
    Blend: AUG-CC-PVTZ-JKFIT

    Orbital Energies [Eh]
    ---------------------

    Doubly Occupied:

       1A    -20.645387     2A    -20.515875     3A    -15.588970
       4A    -11.360597     5A    -11.314102     6A    -11.301434
       7A    -11.259410     8A    -11.252808     9A    -11.249839
      10A     -1.476884    11A     -1.371099    12A     -1.231468
      13A     -1.098683    14A     -1.039179    15A     -0.953773
      16A     -0.841574    17A     -0.820537    18A     -0.775492
      19A     -0.765215    20A     -0.676302    21A     -0.659727
      22A     -0.641644    23A     -0.618823    24A     -0.602418
      25A     -0.587130    26A     -0.575246    27A     -0.561029
      28A     -0.542028    29A     -0.536463    30A     -0.433975
      31A     -0.412514    32A     -0.391844    33A     -0.329052

  @DF-RHF Final Energy:  -435.60104154717999

   => Energetics <=

    Nuclear Repulsion Energy =            429.2737705037982323
    One-Electron Energy =               -1444.8885799223546655
    Two-Electron Energy =                 580.0137678713764444
    Total Energy =                       -435.6010415471799888
  Basis Set: (AUG-CC-PVTZ AUX)
    Blend: AUG-CC-PVTZ-RI
    Molecular point group: c1

    Geometry (in Angstrom), charge = 0, multiplicity = 1:

       Center              X                  Y                   Z               Mass
    ------------   -----------------  -----------------  -----------------  -----------------
         O            0.947245521985    -1.093916815677     0.000000799170    15.994914619570
         O           -1.402136478015     1.602550184323     0.000004799170    15.994914619570
         N           -1.728987478015    -0.677485815677    -0.000003200830    14.003074004430
         C            0.494153521985     0.201408184323    -0.000004200830    12.000000000000
         C           -0.961943478015     0.448155184323    -0.000000200830    12.000000000000
         C            1.553384521985     1.072122184323    -0.000003200830    12.000000000000
         C            2.729608521985     0.272037184323    -0.000000200830    12.000000000000
         C            2.308438221985    -1.050375615677     0.000003899170    12.000000000000
         C           -3.177150478015    -0.616310815677     0.000000799170    12.000000000000
         H            1.472109521985     2.149974184323    -0.000009200830     1.007825032230
         H           -1.260829478015    -1.574229815677    -0.000008200830     1.007825032230
         H            3.756412521985     0.611547184323     0.000003799170     1.007825032230
         H            2.824863521985    -1.983103815677     0.000002799170     1.007825032230
         H           -3.453399478015     0.437729184323     0.000000799170     1.007825032230
         H           -3.589953478015    -1.097518815677     0.891316799170     1.007825032230
         H           -3.589957478015    -1.097518815677    -0.891314200830     1.007825032230

  Basis Set: AUG-CC-PVTZ
    Blend: AUG-CC-PVTZ
  Basis Set: (AUG-CC-PVTZ AUX)
    Blend: AUG-CC-PVTZ-JKFIT
	 Reference Energy          =    -435.6010415471799888 [Eh]
	 Singles Energy            =      -0.0000000000000000 [Eh]
	 Same-Spin Energy          =      -0.4480808477712167 [Eh]
	 Opposite-Spin Energy      =      -1.3717084806454694 [Eh]
	 Correlation Energy        =      -1.8197893284166859 [Eh]
	 Total Energy              =    -437.4208308755966641 [Eh]

	 ================> DF-SCS-MP2 Energies <==================
	-----------------------------------------------------------
	 SCS Same-Spin Scale       =       0.3333333333333333 [-]
	 SCS Opposite-Spin Scale   =       1.2000000000000000 [-]
	 SCS Same-Spin Energy      =      -0.1493602825904056 [Eh]
	 SCS Opposite-Spin Energy  =      -1.6460501767745632 [Eh]
	 SCS Correlation Energy    =      -1.7954104593649687 [Eh]
	 SCS Total Energy          =    -437.3964520065449619 [Eh]
	-----------------------------------------------------------

  Dipole Moment: [D]
     X:     1.0656      Y:    -3.2570      Z:    -0.0000     Total:     3.4268

*** Psi4 exiting successfully. Buy a developer a beer!
