                               Psi4 1.3.2 release

  ==> Input File <==

--------------------------------------------------------------------------
#psi4
#
memory 32 gb

molecule  {
0 1
  O        0.9755400    -1.0764940     0.0000010
  O       -1.3738420     1.6199730     0.0000050
  N       -1.7006930    -0.6600630    -0.0000030
  C        0.5224480     0.2188310    -0.0000040
  C       -0.9336490     0.4655780     0.0000000
  C        1.5816790     1.0895450    -0.0000030
  C        2.7716873     0.3101098    -0.0000001
  C        2.3428020    -1.0138960     0.0000040
  C       -3.1488560    -0.5988880     0.0000010
  H        1.5004040     2.1673970    -0.0000090
  H       -1.2325350    -1.5568070    -0.0000080
  H        3.7847070     0.6289700     0.0000040
  H        2.8531580    -1.9656810     0.0000030
  H       -3.4251050     0.4551520     0.0000010
  H       -3.5616590    -1.0800960     0.8913170
  H       -3.5616630    -1.0800960    -0.8913140
units angstrom
no_reorient  #important for SAPT in psi4, default
symmetry c1  #important for SAPT in psi4, default
}

set PROPERTIES_ORIGIN ["COM"]
properties('MP2/aug-cc-pvtz', properties = ['dipole'])
--------------------------------------------------------------------------

    Molecular point group: c1
  Charge       = 0
  Multiplicity = 1
  Basis Set: AUG-CC-PVTZ
    Blend: AUG-CC-PVTZ
  Basis Set: (AUG-CC-PVTZ AUX)
    Blend: AUG-CC-PVTZ-JKFIT

    Orbital Energies [Eh]
    ---------------------

    Doubly Occupied:

       1A    -20.645830     2A    -20.515554     3A    -15.588896
       4A    -11.360423     5A    -11.316743     6A    -11.301079
       7A    -11.259345     8A    -11.253206     9A    -11.249850
      10A     -1.474895    11A     -1.370815    12A     -1.231334
      13A     -1.099778    14A     -1.037538    15A     -0.953268
      16A     -0.840296    17A     -0.822057    18A     -0.775251
      19A     -0.765843    20A     -0.671607    21A     -0.658648
      22A     -0.642821    23A     -0.618562    24A     -0.604641
      25A     -0.584491    26A     -0.579045    27A     -0.560990
      28A     -0.542176    29A     -0.536187    30A     -0.433648
      31A     -0.413422    32A     -0.391746    33A     -0.328479

  @DF-RHF Final Energy:  -435.60019274108146

   => Energetics <=

    Nuclear Repulsion Energy =            429.0160808840685149
    One-Electron Energy =               -1444.3756223387088085
    Two-Electron Energy =                 579.7593487135587793
    Total Energy =                       -435.6001927410815142
  Basis Set: (AUG-CC-PVTZ AUX)
    Blend: AUG-CC-PVTZ-RI
    Molecular point group: c1

    Geometry (in Angstrom), charge = 0, multiplicity = 1:

       Center              X                  Y                   Z               Mass
    ------------   -----------------  -----------------  -----------------  -----------------
         O            0.945340303089    -1.097727195892     0.000000818363    15.994914619570
         O           -1.404041696911     1.598739804108     0.000004818363    15.994914619570
         N           -1.730892696911    -0.681296195892    -0.000003181637    14.003074004430
         C            0.492248303089     0.197597804108    -0.000004181637    12.000000000000
         C           -0.963848696911     0.444344804108    -0.000000181637    12.000000000000
         C            1.551479303089     1.068311804108    -0.000003181637    12.000000000000
         C            2.741487603089     0.288876604108    -0.000000281637    12.000000000000
         C            2.312602303089    -1.035129195892     0.000003818363    12.000000000000
         C           -3.179055696911    -0.620121195892     0.000000818363    12.000000000000
         H            1.470204303089     2.146163804108    -0.000009181637     1.007825032230
         H           -1.262734696911    -1.578040195892    -0.000008181637     1.007825032230
         H            3.754507303089     0.607736804108     0.000003818363     1.007825032230
         H            2.822958303089    -1.986914195892     0.000002818363     1.007825032230
         H           -3.455304696911     0.433918804108     0.000000818363     1.007825032230
         H           -3.591858696911    -1.101329195892     0.891316818363     1.007825032230
         H           -3.591862696911    -1.101329195892    -0.891314181637     1.007825032230

  Basis Set: AUG-CC-PVTZ
    Blend: AUG-CC-PVTZ
  Basis Set: (AUG-CC-PVTZ AUX)
    Blend: AUG-CC-PVTZ-JKFIT
	 Reference Energy          =    -435.6001927410814574 [Eh]
	 Singles Energy            =      -0.0000000000000000 [Eh]
	 Same-Spin Energy          =      -0.4481534013369430 [Eh]
	 Opposite-Spin Energy      =      -1.3720866670915703 [Eh]
	 Correlation Energy        =      -1.8202400684285134 [Eh]
	 Total Energy              =    -437.4204328095099754 [Eh]

	 ================> DF-SCS-MP2 Energies <==================
	-----------------------------------------------------------
	 SCS Same-Spin Scale       =       0.3333333333333333 [-]
	 SCS Opposite-Spin Scale   =       1.2000000000000000 [-]
	 SCS Same-Spin Energy      =      -0.1493844671123143 [Eh]
	 SCS Opposite-Spin Energy  =      -1.6465040005098843 [Eh]
	 SCS Correlation Energy    =      -1.7958884676221987 [Eh]
	 SCS Total Energy          =    -437.3960812087036629 [Eh]
	-----------------------------------------------------------

  Dipole Moment: [D]
     X:     1.0937      Y:    -3.2426      Z:    -0.0000     Total:     3.4221

*** Psi4 exiting successfully. Buy a developer a beer!
