                               Psi4 1.3.2 release

  ==> Input File <==

--------------------------------------------------------------------------
#psi4
#
memory 32 gb

molecule  {
0 1
  O        0.9755400    -1.0764940     0.0000010
  O       -1.3738420     1.6199730     0.0000050
  N       -1.7006930    -0.6600630    -0.0000030
  C        0.5224480     0.2188310    -0.0000040
  C       -0.9336490     0.4655780     0.0000000
  C        1.5816790     1.0895450    -0.0000030
  C        2.6678279     0.1708941     0.0000008
  C        2.3428020    -1.0138960     0.0000040
  C       -3.1488560    -0.5988880     0.0000010
  H        1.5004040     2.1673970    -0.0000090
  H       -1.2325350    -1.5568070    -0.0000080
  H        3.7847070     0.6289700     0.0000040
  H        2.8531580    -1.9656810     0.0000030
  H       -3.4251050     0.4551520     0.0000010
  H       -3.5616590    -1.0800960     0.8913170
  H       -3.5616630    -1.0800960    -0.8913140
units angstrom
no_reorient  #important for SAPT in psi4, default
symmetry c1  #important for SAPT in psi4, default
}

set PROPERTIES_ORIGIN ["COM"]
properties('MP2/aug-cc-pvtz', properties = ['dipole'])
--------------------------------------------------------------------------

    Molecular point group: c1
  Charge       = 0
  Multiplicity = 1
  Basis Set: AUG-CC-PVTZ
    Blend: AUG-CC-PVTZ
  Basis Set: (AUG-CC-PVTZ AUX)
    Blend: AUG-CC-PVTZ-JKFIT

    Orbital Energies [Eh]
    ---------------------

    Doubly Occupied:

       1A    -20.631228     2A    -20.517860     3A    -15.589877
       4A    -11.361049     5A    -11.304086     6A    -11.286810
       7A    -11.259866     8A    -11.250302     9A    -11.237574
      10A     -1.474527    11A     -1.372520    12A     -1.232352
      13A     -1.115511    14A     -1.049647    15A     -0.959192
      16A     -0.848734    17A     -0.811255    18A     -0.775665
      19A     -0.754327    20A     -0.672428    21A     -0.661790
      22A     -0.639158    23A     -0.619801    24A     -0.611919
      25A     -0.592282    26A     -0.570564    27A     -0.542942
      28A     -0.537594    29A     -0.526072    30A     -0.435159
      31A     -0.424479    32A     -0.392368    33A     -0.345680

  @DF-RHF Final Energy:  -435.57063435377751

   => Energetics <=

    Nuclear Repulsion Energy =            432.2956719169602593
    One-Electron Energy =               -1450.9233726259708419
    Two-Electron Energy =                 583.0570663552331325
    Total Energy =                       -435.5706343537774501
  Basis Set: (AUG-CC-PVTZ AUX)
    Blend: AUG-CC-PVTZ-RI
    Molecular point group: c1

    Geometry (in Angstrom), charge = 0, multiplicity = 1:

       Center              X                  Y                   Z               Mass
    ------------   -----------------  -----------------  -----------------  -----------------
         O            0.955307003912    -1.084367584418     0.000000731996    15.994914619570
         O           -1.394074996088     1.612099415582     0.000004731996    15.994914619570
         N           -1.720925996088    -0.667936584418    -0.000003268004    14.003074004430
         C            0.502215003912     0.210957415582    -0.000004268004    12.000000000000
         C           -0.953881996088     0.457704415582    -0.000000268004    12.000000000000
         C            1.561446003912     1.081671415582    -0.000003268004    12.000000000000
         C            2.647594903912     0.163020515582     0.000000531996    12.000000000000
         C            2.322569003912    -1.021769584418     0.000003731996    12.000000000000
         C           -3.169088996088    -0.606761584418     0.000000731996    12.000000000000
         H            1.480171003912     2.159523415582    -0.000009268004     1.007825032230
         H           -1.252767996088    -1.564680584418    -0.000008268004     1.007825032230
         H            3.764474003912     0.621096415582     0.000003731996     1.007825032230
         H            2.832925003912    -1.973554584418     0.000002731996     1.007825032230
         H           -3.445337996088     0.447278415582     0.000000731996     1.007825032230
         H           -3.581891996088    -1.087969584418     0.891316731996     1.007825032230
         H           -3.581895996088    -1.087969584418    -0.891314268004     1.007825032230

  Basis Set: AUG-CC-PVTZ
    Blend: AUG-CC-PVTZ
  Basis Set: (AUG-CC-PVTZ AUX)
    Blend: AUG-CC-PVTZ-JKFIT
	 Reference Energy          =    -435.5706343537775069 [Eh]
	 Singles Energy            =      -0.0000000000000000 [Eh]
	 Same-Spin Energy          =      -0.4466623421727208 [Eh]
	 Opposite-Spin Energy      =      -1.3692152443486121 [Eh]
	 Correlation Energy        =      -1.8158775865213328 [Eh]
	 Total Energy              =    -437.3865119402988171 [Eh]

	 ================> DF-SCS-MP2 Energies <==================
	-----------------------------------------------------------
	 SCS Same-Spin Scale       =       0.3333333333333333 [-]
	 SCS Opposite-Spin Scale   =       1.2000000000000000 [-]
	 SCS Same-Spin Energy      =      -0.1488874473909069 [Eh]
	 SCS Opposite-Spin Energy  =      -1.6430582932183344 [Eh]
	 SCS Correlation Energy    =      -1.7919457406092414 [Eh]
	 SCS Total Energy          =    -437.3625800943867716 [Eh]
	-----------------------------------------------------------

  Dipole Moment: [D]
     X:     1.0155      Y:    -3.2031      Z:    -0.0000     Total:     3.3602

*** Psi4 exiting successfully. Buy a developer a beer!
