                               Psi4 1.3.2 release

  ==> Input File <==

--------------------------------------------------------------------------
#psi4
#
memory 32 gb

molecule  {
0 1
  O        0.9755400    -1.0764940     0.0000010
  O       -1.3738420     1.6199730     0.0000050
  N       -1.7006930    -0.6600630    -0.0000030
  C        0.5224480     0.2188310    -0.0000040
  C       -0.8998803     0.6164299     0.0000005
  C        1.5816790     1.0895450    -0.0000030
  C        2.7579030     0.2894600     0.0000000
  C        2.3428020    -1.0138960     0.0000040
  C       -3.1488560    -0.5988880     0.0000010
  H        1.5004040     2.1673970    -0.0000090
  H       -1.2325350    -1.5568070    -0.0000080
  H        3.7847070     0.6289700     0.0000040
  H        2.8531580    -1.9656810     0.0000030
  H       -3.4251050     0.4551520     0.0000010
  H       -3.5616590    -1.0800960     0.8913170
  H       -3.5616630    -1.0800960    -0.8913140
units angstrom
no_reorient  #important for SAPT in psi4, default
symmetry c1  #important for SAPT in psi4, default
}

set PROPERTIES_ORIGIN ["COM"]
properties('MP2/aug-cc-pvtz', properties = ['dipole'])
--------------------------------------------------------------------------

    Molecular point group: c1
  Charge       = 0
  Multiplicity = 1
  Basis Set: AUG-CC-PVTZ
    Blend: AUG-CC-PVTZ
  Basis Set: (AUG-CC-PVTZ AUX)
    Blend: AUG-CC-PVTZ-JKFIT

    Orbital Energies [Eh]
    ---------------------

    Doubly Occupied:

       1A    -20.646499     2A    -20.548608     3A    -15.554889
       4A    -11.362310     5A    -11.315096     6A    -11.302632
       7A    -11.253685     8A    -11.249060     9A    -11.242798
      10A     -1.478167    11A     -1.467737    12A     -1.184588
      13A     -1.104610    14A     -1.039168    15A     -0.924266
      16A     -0.843697    17A     -0.820426    18A     -0.769205
      19A     -0.747186    20A     -0.688784    21A     -0.661194
      22A     -0.656496    23A     -0.613176    24A     -0.612642
      25A     -0.589944    26A     -0.578001    27A     -0.569635
      28A     -0.563387    29A     -0.531244    30A     -0.439718
      31A     -0.415808    32A     -0.377010    33A     -0.332604

  @DF-RHF Final Energy:  -435.57239422252911

   => Energetics <=

    Nuclear Repulsion Energy =            429.6263164360055384
    One-Electron Energy =               -1445.4288750504706513
    Two-Electron Energy =                 580.2301643919360004
    Total Energy =                       -435.5723942225291694
  Basis Set: (AUG-CC-PVTZ AUX)
    Blend: AUG-CC-PVTZ-RI
    Molecular point group: c1

    Geometry (in Angstrom), charge = 0, multiplicity = 1:

       Center              X                  Y                   Z               Mass
    ------------   -----------------  -----------------  -----------------  -----------------
         O            0.943422532180    -1.110221831691     0.000000760785    15.994914619570
         O           -1.405959467820     1.586245168309     0.000004760785    15.994914619570
         N           -1.732810467820    -0.693790831691    -0.000003239215    14.003074004430
         C            0.490330532180     0.185103168309    -0.000004239215    12.000000000000
         C           -0.931997767820     0.582702068309     0.000000260785    12.000000000000
         C            1.549561532180     1.055817168309    -0.000003239215    12.000000000000
         C            2.725785532180     0.255732168309    -0.000000239215    12.000000000000
         C            2.310684532180    -1.047623831691     0.000003760785    12.000000000000
         C           -3.180973467820    -0.632615831691     0.000000760785    12.000000000000
         H            1.468286532180     2.133669168309    -0.000009239215     1.007825032230
         H           -1.264652467820    -1.590534831691    -0.000008239215     1.007825032230
         H            3.752589532180     0.595242168309     0.000003760785     1.007825032230
         H            2.821040532180    -1.999408831691     0.000002760785     1.007825032230
         H           -3.457222467820     0.421424168309     0.000000760785     1.007825032230
         H           -3.593776467820    -1.113823831691     0.891316760785     1.007825032230
         H           -3.593780467820    -1.113823831691    -0.891314239215     1.007825032230

  Basis Set: AUG-CC-PVTZ
    Blend: AUG-CC-PVTZ
  Basis Set: (AUG-CC-PVTZ AUX)
    Blend: AUG-CC-PVTZ-JKFIT
	 Reference Energy          =    -435.5723942225291125 [Eh]
	 Singles Energy            =      -0.0000000000000000 [Eh]
	 Same-Spin Energy          =      -0.4459392275812927 [Eh]
	 Opposite-Spin Energy      =      -1.3679739428952793 [Eh]
	 Correlation Energy        =      -1.8139131704765719 [Eh]
	 Total Energy              =    -437.3863073930056657 [Eh]

	 ================> DF-SCS-MP2 Energies <==================
	-----------------------------------------------------------
	 SCS Same-Spin Scale       =       0.3333333333333333 [-]
	 SCS Opposite-Spin Scale   =       1.2000000000000000 [-]
	 SCS Same-Spin Energy      =      -0.1486464091937642 [Eh]
	 SCS Opposite-Spin Energy  =      -1.6415687314743350 [Eh]
	 SCS Correlation Energy    =      -1.7902151406680993 [Eh]
	 SCS Total Energy          =    -437.3626093631972367 [Eh]
	-----------------------------------------------------------

  Dipole Moment: [D]
     X:     1.7225      Y:    -1.9429      Z:    -0.0000     Total:     2.5965

*** Psi4 exiting successfully. Buy a developer a beer!
