                               Psi4 1.4a3.dev225

  ==> Input File <==

--------------------------------------------------------------------------
#psi4
#
memory 32 gb

molecule  {
0 1
  O        0.9755400    -1.0764940     0.0000010
  O       -1.3738420     1.6199730     0.0000050
  N       -1.7006930    -0.6600630    -0.0000030
  C        0.5224480     0.2188310    -0.0000040
  C       -0.9336490     0.4655780     0.0000000
  C        1.5816790     1.0895450    -0.0000030
  C        2.7579030     0.2894600     0.0000000
  C        2.3579754    -0.9662539     0.0000039
  C       -3.1488560    -0.5988880     0.0000010
  H        1.5004040     2.1673970    -0.0000090
  H       -1.2325350    -1.5568070    -0.0000080
  H        3.7847070     0.6289700     0.0000040
  H        2.8531580    -1.9656810     0.0000030
  H       -3.4251050     0.4551520     0.0000010
  H       -3.5616590    -1.0800960     0.8913170
  H       -3.5616630    -1.0800960    -0.8913140
units angstrom
no_reorient  #important for SAPT in psi4, default
symmetry c1  #important for SAPT in psi4, default
}

set PROPERTIES_ORIGIN ["COM"]
properties('MP2/aug-cc-pvtz', properties = ['dipole'])
--------------------------------------------------------------------------

    Molecular point group: c1
  Charge       = 0
  Multiplicity = 1
  Basis Set: AUG-CC-PVTZ
    Blend: AUG-CC-PVTZ
  Basis Set: (AUG-CC-PVTZ AUX)
    Blend: AUG-CC-PVTZ-JKFIT

    Orbital Energies [Eh]
    ---------------------

    Doubly Occupied:

       1A    -20.639214     2A    -20.515864     3A    -15.589130
       4A    -11.360223     5A    -11.308819     6A    -11.301540
       7A    -11.259389     8A    -11.251943     9A    -11.243143
      10A     -1.468201    11A     -1.370874    12A     -1.231413
      13A     -1.110276    14A     -1.038175    15A     -0.954650
      16A     -0.841590    17A     -0.815573    18A     -0.775438
      19A     -0.763972    20A     -0.661509    21A     -0.656463
      22A     -0.642050    23A     -0.618279    24A     -0.598923
      25A     -0.585724    26A     -0.579921    27A     -0.561608
      28A     -0.542638    29A     -0.536032    30A     -0.433530
      31A     -0.420243    32A     -0.391718    33A     -0.335310

  @DF-RHF Final Energy:  -435.59950159088282

   => Energetics <=

    Nuclear Repulsion Energy =            429.8803026187570140
    One-Electron Energy =               -1446.1528597881913356
    Two-Electron Energy =                 580.6730555785514980
    Total Energy =                       -435.5995015908828236
  Basis Set: (AUG-CC-PVTZ AUX)
    Blend: AUG-CC-PVTZ-RI
    Molecular point group: c1

    Geometry (in Angstrom), charge = 0, multiplicity = 1:

       Center              X                  Y                   Z               Mass
    ------------   -----------------  -----------------  -----------------  -----------------
         O            0.945207000334    -1.100317468690     0.000000818363    15.994914619570
         O           -1.404174999666     1.596149531310     0.000004818363    15.994914619570
         N           -1.731025999666    -0.683886468690    -0.000003181637    14.003074004430
         C            0.492115000334     0.195007531310    -0.000004181637    12.000000000000
         C           -0.963981999666     0.441754531310    -0.000000181637    12.000000000000
         C            1.551346000334     1.065721531310    -0.000003181637    12.000000000000
         C            2.727570000334     0.265636531310    -0.000000181637    12.000000000000
         C            2.327642400334    -0.990077368690     0.000003718363    12.000000000000
         C           -3.179188999666    -0.622711468690     0.000000818363    12.000000000000
         H            1.470071000334     2.143573531310    -0.000009181637     1.007825032230
         H           -1.262867999666    -1.580630468690    -0.000008181637     1.007825032230
         H            3.754374000334     0.605146531310     0.000003818363     1.007825032230
         H            2.822825000334    -1.989504468690     0.000002818363     1.007825032230
         H           -3.455437999666     0.431328531310     0.000000818363     1.007825032230
         H           -3.591991999666    -1.103919468690     0.891316818363     1.007825032230
         H           -3.591995999666    -1.103919468690    -0.891314181637     1.007825032230

  Basis Set: AUG-CC-PVTZ
    Blend: AUG-CC-PVTZ
  Basis Set: (AUG-CC-PVTZ AUX)
    Blend: AUG-CC-PVTZ-JKFIT
	 Reference Energy          =    -435.5995015908828236 [Eh]
	 Singles Energy            =      -0.0000000000000000 [Eh]
	 Same-Spin Energy          =      -0.4472785606448982 [Eh]
	 Opposite-Spin Energy      =      -1.3709567521265342 [Eh]
	 Correlation Energy        =      -1.8182353127714324 [Eh]
	 Total Energy              =    -437.4177369036542586 [Eh]

	 ================> DF-SCS-MP2 Energies <==================
	-----------------------------------------------------------
	 SCS Same-Spin Scale       =       0.3333333333333333 [-]
	 SCS Opposite-Spin Scale   =       1.2000000000000000 [-]
	 SCS Same-Spin Energy      =      -0.1490928535482994 [Eh]
	 SCS Opposite-Spin Energy  =      -1.6451481025518411 [Eh]
	 SCS Correlation Energy    =      -1.7942409561001404 [Eh]
	 SCS Total Energy          =    -437.3937425469829918 [Eh]
	-----------------------------------------------------------

  Dipole Moment: [D]
     X:     1.1558      Y:    -3.1806      Z:    -0.0000     Total:     3.3841

*** Psi4 exiting successfully. Buy a developer a beer!
