                               Psi4 1.4a3.dev225

  ==> Input File <==

--------------------------------------------------------------------------
#psi4
#
memory 32 gb

molecule  {
0 1
  O        0.9755400    -1.0764940     0.0000010
  O       -1.3738420     1.6199730     0.0000050
  N       -1.7006930    -0.6600630    -0.0000030
  C        0.5224480     0.2188310    -0.0000040
  C       -0.9336490     0.4655780     0.0000000
  C        1.5816790     1.0895450    -0.0000030
  C        2.7579030     0.2894600     0.0000000
  C        2.3488713    -0.9948392     0.0000039
  C       -3.1488560    -0.5988880     0.0000010
  H        1.5004040     2.1673970    -0.0000090
  H       -1.2325350    -1.5568070    -0.0000080
  H        3.7847070     0.6289700     0.0000040
  H        2.8531580    -1.9656810     0.0000030
  H       -3.4251050     0.4551520     0.0000010
  H       -3.5616590    -1.0800960     0.8913170
  H       -3.5616630    -1.0800960    -0.8913140
units angstrom
no_reorient  #important for SAPT in psi4, default
symmetry c1  #important for SAPT in psi4, default
}

set PROPERTIES_ORIGIN ["COM"]
properties('MP2/aug-cc-pvtz', properties = ['dipole'])
--------------------------------------------------------------------------

    Molecular point group: c1
  Charge       = 0
  Multiplicity = 1
  Basis Set: AUG-CC-PVTZ
    Blend: AUG-CC-PVTZ
  Basis Set: (AUG-CC-PVTZ AUX)
    Blend: AUG-CC-PVTZ-JKFIT

    Orbital Energies [Eh]
    ---------------------

    Doubly Occupied:

       1A    -20.641843     2A    -20.515866     3A    -15.589062
       4A    -11.360381     5A    -11.311078     6A    -11.301469
       7A    -11.259397     8A    -11.252271     9A    -11.246160
      10A     -1.471954    11A     -1.370971    12A     -1.231434
      13A     -1.104730    14A     -1.038721    15A     -0.954194
      16A     -0.841087    17A     -0.818289    18A     -0.775379
      19A     -0.764536    20A     -0.667202    21A     -0.657817
      22A     -0.641895    23A     -0.618512    24A     -0.599804
      25A     -0.586081    26A     -0.579158    27A     -0.561922
      28A     -0.542451    29A     -0.536207    30A     -0.433729
      31A     -0.416504    32A     -0.391765    33A     -0.332787

  @DF-RHF Final Energy:  -435.60203462719011

   => Energetics <=

    Nuclear Repulsion Energy =            429.6142006177151984
    One-Electron Energy =               -1445.6031561085076191
    Two-Electron Energy =                 580.3869208636024268
    Total Energy =                       -435.6020346271900507
  Basis Set: (AUG-CC-PVTZ AUX)
    Blend: AUG-CC-PVTZ-RI
    Molecular point group: c1

    Geometry (in Angstrom), charge = 0, multiplicity = 1:

       Center              X                  Y                   Z               Mass
    ------------   -----------------  -----------------  -----------------  -----------------
         O            0.946080660696    -1.097574326201     0.000000818363    15.994914619570
         O           -1.403301339304     1.598892673799     0.000004818363    15.994914619570
         N           -1.730152339304    -0.681143326201    -0.000003181637    14.003074004430
         C            0.492988660696     0.197750673799    -0.000004181637    12.000000000000
         C           -0.963108339304     0.444497673799    -0.000000181637    12.000000000000
         C            1.552219660696     1.068464673799    -0.000003181637    12.000000000000
         C            2.728443660696     0.268379673799    -0.000000181637    12.000000000000
         C            2.319411960696    -1.015919526201     0.000003718363    12.000000000000
         C           -3.178315339304    -0.619968326201     0.000000818363    12.000000000000
         H            1.470944660696     2.146316673799    -0.000009181637     1.007825032230
         H           -1.261994339304    -1.577887326201    -0.000008181637     1.007825032230
         H            3.755247660696     0.607889673799     0.000003818363     1.007825032230
         H            2.823698660696    -1.986761326201     0.000002818363     1.007825032230
         H           -3.454564339304     0.434071673799     0.000000818363     1.007825032230
         H           -3.591118339304    -1.101176326201     0.891316818363     1.007825032230
         H           -3.591122339304    -1.101176326201    -0.891314181637     1.007825032230

  Basis Set: AUG-CC-PVTZ
    Blend: AUG-CC-PVTZ
  Basis Set: (AUG-CC-PVTZ AUX)
    Blend: AUG-CC-PVTZ-JKFIT
	 Reference Energy          =    -435.6020346271901076 [Eh]
	 Singles Energy            =      -0.0000000000000000 [Eh]
	 Same-Spin Energy          =      -0.4475853868934871 [Eh]
	 Opposite-Spin Energy      =      -1.3711913700736702 [Eh]
	 Correlation Energy        =      -1.8187767569671573 [Eh]
	 Total Energy              =    -437.4208113841572754 [Eh]

	 ================> DF-SCS-MP2 Energies <==================
	-----------------------------------------------------------
	 SCS Same-Spin Scale       =       0.3333333333333333 [-]
	 SCS Opposite-Spin Scale   =       1.2000000000000000 [-]
	 SCS Same-Spin Energy      =      -0.1491951289644957 [Eh]
	 SCS Opposite-Spin Energy  =      -1.6454296440884042 [Eh]
	 SCS Correlation Energy    =      -1.7946247730528999 [Eh]
	 SCS Total Energy          =    -437.3966594002429815 [Eh]
	-----------------------------------------------------------

  Dipole Moment: [D]
     X:     1.1177      Y:    -3.2159      Z:    -0.0000     Total:     3.4046

*** Psi4 exiting successfully. Buy a developer a beer!
