                               Psi4 1.4a3.dev225

  ==> Input File <==

--------------------------------------------------------------------------
#psi4
#
memory 32 gb

molecule  {
0 1
  O        0.9755400    -1.0764940     0.0000010
  O       -1.3738420     1.6199730     0.0000050
  N       -1.7006930    -0.6600630    -0.0000030
  C        0.5224480     0.2188310    -0.0000040
  C       -0.9336490     0.4655780     0.0000000
  C        1.5816790     1.0895450    -0.0000030
  C        2.7992452     0.2613384     0.0000001
  C        2.3428020    -1.0138960     0.0000040
  C       -3.1488560    -0.5988880     0.0000010
  H        1.5004040     2.1673970    -0.0000090
  H       -1.2325350    -1.5568070    -0.0000080
  H        3.7847070     0.6289700     0.0000040
  H        2.8531580    -1.9656810     0.0000030
  H       -3.4251050     0.4551520     0.0000010
  H       -3.5616590    -1.0800960     0.8913170
  H       -3.5616630    -1.0800960    -0.8913140
units angstrom
no_reorient  #important for SAPT in psi4, default
symmetry c1  #important for SAPT in psi4, default
}

set PROPERTIES_ORIGIN ["COM"]
properties('MP2/aug-cc-pvtz', properties = ['dipole'])
--------------------------------------------------------------------------

    Molecular point group: c1
  Charge       = 0
  Multiplicity = 1
  Basis Set: AUG-CC-PVTZ
    Blend: AUG-CC-PVTZ
  Basis Set: (AUG-CC-PVTZ AUX)
    Blend: AUG-CC-PVTZ-JKFIT

    Orbital Energies [Eh]
    ---------------------

    Doubly Occupied:

       1A    -20.641754     2A    -20.516152     3A    -15.589515
       4A    -11.360942     5A    -11.312103     6A    -11.301890
       7A    -11.259657     8A    -11.256376     9A    -11.248482
      10A     -1.473127    11A     -1.371304    12A     -1.231817
      13A     -1.094339    14A     -1.040625    15A     -0.954948
      16A     -0.839666    17A     -0.822828    18A     -0.774494
      19A     -0.765153    20A     -0.670731    21A     -0.658241
      22A     -0.643364    23A     -0.618890    24A     -0.606978
      25A     -0.587474    26A     -0.578780    27A     -0.552560
      28A     -0.541266    29A     -0.536662    30A     -0.434150
      31A     -0.409599    32A     -0.391774    33A     -0.335714

  @DF-RHF Final Energy:  -435.60112841365941

   => Energetics <=

    Nuclear Repulsion Energy =            428.7732872908793524
    One-Electron Energy =               -1443.9061201608612919
    Two-Electron Energy =                 579.5317044563225863
    Total Energy =                       -435.6011284136593531
  Basis Set: (AUG-CC-PVTZ AUX)
    Blend: AUG-CC-PVTZ-RI
    Molecular point group: c1

    Geometry (in Angstrom), charge = 0, multiplicity = 1:

       Center              X                  Y                   Z               Mass
    ------------   -----------------  -----------------  -----------------  -----------------
         O            0.942695753393    -1.093046926676     0.000000799170    15.994914619570
         O           -1.406686246607     1.603420073324     0.000004799170    15.994914619570
         N           -1.733537246607    -0.676615926676    -0.000003200830    14.003074004430
         C            0.489603753393     0.202278073324    -0.000004200830    12.000000000000
         C           -0.966493246607     0.449025073324    -0.000000200830    12.000000000000
         C            1.548834753393     1.072992073324    -0.000003200830    12.000000000000
         C            2.766400953393     0.244785473324    -0.000000100830    12.000000000000
         C            2.309957753393    -1.030448926676     0.000003799170    12.000000000000
         C           -3.181700246607    -0.615440926676     0.000000799170    12.000000000000
         H            1.467559753393     2.150844073324    -0.000009200830     1.007825032230
         H           -1.265379246607    -1.573359926676    -0.000008200830     1.007825032230
         H            3.751862753393     0.612417073324     0.000003799170     1.007825032230
         H            2.820313753393    -1.982233926676     0.000002799170     1.007825032230
         H           -3.457949246607     0.438599073324     0.000000799170     1.007825032230
         H           -3.594503246607    -1.096648926676     0.891316799170     1.007825032230
         H           -3.594507246607    -1.096648926676    -0.891314200830     1.007825032230

  Basis Set: AUG-CC-PVTZ
    Blend: AUG-CC-PVTZ
  Basis Set: (AUG-CC-PVTZ AUX)
    Blend: AUG-CC-PVTZ-JKFIT
	 Reference Energy          =    -435.6011284136594099 [Eh]
	 Singles Energy            =      -0.0000000000000000 [Eh]
	 Same-Spin Energy          =      -0.4467889152512220 [Eh]
	 Opposite-Spin Energy      =      -1.3706243440563441 [Eh]
	 Correlation Energy        =      -1.8174132593075663 [Eh]
	 Total Energy              =    -437.4185416729669669 [Eh]

	 ================> DF-SCS-MP2 Energies <==================
	-----------------------------------------------------------
	 SCS Same-Spin Scale       =       0.3333333333333333 [-]
	 SCS Opposite-Spin Scale   =       1.2000000000000000 [-]
	 SCS Same-Spin Energy      =      -0.1489296384170740 [Eh]
	 SCS Opposite-Spin Energy  =      -1.6447492128676129 [Eh]
	 SCS Correlation Energy    =      -1.7936788512846868 [Eh]
	 SCS Total Energy          =    -437.3948072649441201 [Eh]
	-----------------------------------------------------------

  Dipole Moment: [D]
     X:     1.0777      Y:    -3.2207      Z:    -0.0000     Total:     3.3963

*** Psi4 exiting successfully. Buy a developer a beer!
