                               Psi4 1.3.2 release

  ==> Input File <==

--------------------------------------------------------------------------
#psi4
#
memory 32 gb

molecule  {
0 1
  O        0.9755400    -1.0764940     0.0000010
  O       -1.3738420     1.6199730     0.0000050
  N       -1.7006930    -0.6600630    -0.0000030
  C        0.5224480     0.2188310    -0.0000040
  C       -0.9336490     0.4655780     0.0000000
  C        1.5816790     1.0895450    -0.0000030
  C        2.7579030     0.2894600     0.0000000
  C        2.4426974    -1.0093224     0.0000042
  C       -3.1488560    -0.5988880     0.0000010
  H        1.5004040     2.1673970    -0.0000090
  H       -1.2325350    -1.5568070    -0.0000080
  H        3.7847070     0.6289700     0.0000040
  H        2.8531580    -1.9656810     0.0000030
  H       -3.4251050     0.4551520     0.0000010
  H       -3.5616590    -1.0800960     0.8913170
  H       -3.5616630    -1.0800960    -0.8913140
units angstrom
no_reorient  #important for SAPT in psi4, default
symmetry c1  #important for SAPT in psi4, default
}

set PROPERTIES_ORIGIN ["COM"]
properties('MP2/aug-cc-pvtz', properties = ['dipole'])
--------------------------------------------------------------------------

    Molecular point group: c1
  Charge       = 0
  Multiplicity = 1
  Basis Set: AUG-CC-PVTZ
    Blend: AUG-CC-PVTZ
  Basis Set: (AUG-CC-PVTZ AUX)
    Blend: AUG-CC-PVTZ-JKFIT

    Orbital Energies [Eh]
    ---------------------

    Doubly Occupied:

       1A    -20.627618     2A    -20.518004     3A    -15.589707
       4A    -11.361575     5A    -11.308879     6A    -11.306126
       7A    -11.259657     8A    -11.252825     9A    -11.249597
      10A     -1.438026    11A     -1.371741    12A     -1.231675
      13A     -1.102504    14A     -1.035683    15A     -0.956614
      16A     -0.846719    17A     -0.813124    18A     -0.774987
      19A     -0.756217    20A     -0.668768    21A     -0.642684
      22A     -0.642612    23A     -0.613996    24A     -0.601438
      25A     -0.589276    26A     -0.568409    27A     -0.562729
      28A     -0.540987    29A     -0.535272    30A     -0.435085
      31A     -0.418386    32A     -0.391762    33A     -0.335129

  @DF-RHF Final Energy:  -435.59055073634403

   => Energetics <=

    Nuclear Repulsion Energy =            427.7647909914786624
    One-Electron Energy =               -1442.0150599930025237
    Two-Electron Energy =                 578.6597182651797766
    Total Energy =                       -435.5905507363440847
  Basis Set: (AUG-CC-PVTZ AUX)
    Blend: AUG-CC-PVTZ-RI
    Molecular point group: c1

    Geometry (in Angstrom), charge = 0, multiplicity = 1:

       Center              X                  Y                   Z               Mass
    ------------   -----------------  -----------------  -----------------  -----------------
         O            0.937076789422    -1.096184469131     0.000000789574    15.994914619570
         O           -1.412305210578     1.600282530869     0.000004789574    15.994914619570
         N           -1.739156210578    -0.679753469131    -0.000003210426    14.003074004430
         C            0.483984789422     0.199140530869    -0.000004210426    12.000000000000
         C           -0.972112210578     0.445887530869    -0.000000210426    12.000000000000
         C            1.543215789422     1.069854530869    -0.000003210426    12.000000000000
         C            2.719439789422     0.269769530869    -0.000000210426    12.000000000000
         C            2.404234189422    -1.029012869131     0.000003989574    12.000000000000
         C           -3.187319210578    -0.618578469131     0.000000789574    12.000000000000
         H            1.461940789422     2.147706530869    -0.000009210426     1.007825032230
         H           -1.270998210578    -1.576497469131    -0.000008210426     1.007825032230
         H            3.746243789422     0.609279530869     0.000003789574     1.007825032230
         H            2.814694789422    -1.985371469131     0.000002789574     1.007825032230
         H           -3.463568210578     0.435461530869     0.000000789574     1.007825032230
         H           -3.600122210578    -1.099786469131     0.891316789574     1.007825032230
         H           -3.600126210578    -1.099786469131    -0.891314210426     1.007825032230

  Basis Set: AUG-CC-PVTZ
    Blend: AUG-CC-PVTZ
  Basis Set: (AUG-CC-PVTZ AUX)
    Blend: AUG-CC-PVTZ-JKFIT
	 Reference Energy          =    -435.5905507363440279 [Eh]
	 Singles Energy            =      -0.0000000000000000 [Eh]
	 Same-Spin Energy          =      -0.4478968596626671 [Eh]
	 Opposite-Spin Energy      =      -1.3736384372211061 [Eh]
	 Correlation Energy        =      -1.8215352968837732 [Eh]
	 Total Energy              =    -437.4120860332278085 [Eh]

	 ================> DF-SCS-MP2 Energies <==================
	-----------------------------------------------------------
	 SCS Same-Spin Scale       =       0.3333333333333333 [-]
	 SCS Opposite-Spin Scale   =       1.2000000000000000 [-]
	 SCS Same-Spin Energy      =      -0.1492989532208890 [Eh]
	 SCS Opposite-Spin Energy  =      -1.6483661246653274 [Eh]
	 SCS Correlation Energy    =      -1.7976650778862164 [Eh]
	 SCS Total Energy          =    -437.3882158142302501 [Eh]
	-----------------------------------------------------------

  Dipole Moment: [D]
     X:     1.2137      Y:    -3.1817      Z:    -0.0000     Total:     3.4054

*** Psi4 exiting successfully. Buy a developer a beer!
