                               Psi4 1.4a3.dev225

  ==> Input File <==

--------------------------------------------------------------------------
#psi4
#
memory 32 gb

molecule  {
0 1
  O        0.9755400    -1.0764940     0.0000010
  O       -1.3738420     1.6199730     0.0000050
  N       -1.7006930    -0.6600630    -0.0000030
  C        0.5224480     0.2188310    -0.0000040
  C       -0.9336490     0.4655780     0.0000000
  C        1.5816790     1.0895450    -0.0000030
  C        2.7579030     0.2894600     0.0000000
  C        2.3228229    -1.0148107     0.0000040
  C       -3.1488560    -0.5988880     0.0000010
  H        1.5004040     2.1673970    -0.0000090
  H       -1.2325350    -1.5568070    -0.0000080
  H        3.7847070     0.6289700     0.0000040
  H        2.8531580    -1.9656810     0.0000030
  H       -3.4251050     0.4551520     0.0000010
  H       -3.5616590    -1.0800960     0.8913170
  H       -3.5616630    -1.0800960    -0.8913140
units angstrom
no_reorient  #important for SAPT in psi4, default
symmetry c1  #important for SAPT in psi4, default
}

set PROPERTIES_ORIGIN ["COM"]
properties('MP2/aug-cc-pvtz', properties = ['dipole'])
--------------------------------------------------------------------------

    Molecular point group: c1
  Charge       = 0
  Multiplicity = 1
  Basis Set: AUG-CC-PVTZ
    Blend: AUG-CC-PVTZ
  Basis Set: (AUG-CC-PVTZ AUX)
    Blend: AUG-CC-PVTZ-JKFIT

    Orbital Energies [Eh]
    ---------------------

    Doubly Occupied:

       1A    -20.646826     2A    -20.515370     3A    -15.588821
       4A    -11.360207     5A    -11.313829     6A    -11.300381
       7A    -11.259320     8A    -11.253080     9A    -11.247222
      10A     -1.483034    11A     -1.370781    12A     -1.231357
      13A     -1.101614    14A     -1.039754    15A     -0.953437
      16A     -0.839943    17A     -0.821812    18A     -0.775512
      19A     -0.766757    20A     -0.672413    21A     -0.663015
      22A     -0.641566    23A     -0.619202    24A     -0.602776
      25A     -0.587495    26A     -0.577165    27A     -0.559214
      28A     -0.542029    29A     -0.536490    30A     -0.433500
      31A     -0.413852    32A     -0.391794    33A     -0.329848

  @DF-RHF Final Energy:  -435.60234305654012

   => Energetics <=

    Nuclear Repulsion Energy =            429.7952050563660578
    One-Electron Energy =               -1445.9162633664111581
    Two-Electron Energy =                 580.5187152535049790
    Total Energy =                       -435.6023430565401213
  Basis Set: (AUG-CC-PVTZ AUX)
    Blend: AUG-CC-PVTZ-RI
    Molecular point group: c1

    Geometry (in Angstrom), charge = 0, multiplicity = 1:

       Center              X                  Y                   Z               Mass
    ------------   -----------------  -----------------  -----------------  -----------------
         O            0.948580353643    -1.095657793219     0.000000808766    15.994914619570
         O           -1.400801646357     1.600809206781     0.000004808766    15.994914619570
         N           -1.727652646357    -0.679226793220    -0.000003191234    14.003074004430
         C            0.495488353643     0.199667206781    -0.000004191234    12.000000000000
         C           -0.960608646357     0.446414206781    -0.000000191234    12.000000000000
         C            1.554719353643     1.070381206780    -0.000003191234    12.000000000000
         C            2.730943353643     0.270296206781    -0.000000191234    12.000000000000
         C            2.295863253643    -1.033974493219     0.000003808766    12.000000000000
         C           -3.175815646357    -0.618051793219     0.000000808766    12.000000000000
         H            1.473444353643     2.148233206781    -0.000009191234     1.007825032230
         H           -1.259494646357    -1.575970793220    -0.000008191234     1.007825032230
         H            3.757747353643     0.609806206781     0.000003808766     1.007825032230
         H            2.826198353643    -1.984844793219     0.000002808766     1.007825032230
         H           -3.452064646357     0.435988206780     0.000000808766     1.007825032230
         H           -3.588618646357    -1.099259793220     0.891316808766     1.007825032230
         H           -3.588622646357    -1.099259793220    -0.891314191234     1.007825032230

  Basis Set: AUG-CC-PVTZ
    Blend: AUG-CC-PVTZ
  Basis Set: (AUG-CC-PVTZ AUX)
    Blend: AUG-CC-PVTZ-JKFIT
	 Reference Energy          =    -435.6023430565401213 [Eh]
	 Singles Energy            =      -0.0000000000000000 [Eh]
	 Same-Spin Energy          =      -0.4478336083114005 [Eh]
	 Opposite-Spin Energy      =      -1.3709987971015054 [Eh]
	 Correlation Energy        =      -1.8188324054129059 [Eh]
	 Total Energy              =    -437.4211754619530552 [Eh]

	 ================> DF-SCS-MP2 Energies <==================
	-----------------------------------------------------------
	 SCS Same-Spin Scale       =       0.3333333333333333 [-]
	 SCS Opposite-Spin Scale   =       1.2000000000000000 [-]
	 SCS Same-Spin Energy      =      -0.1492778694371335 [Eh]
	 SCS Opposite-Spin Energy  =      -1.6451985565218064 [Eh]
	 SCS Correlation Energy    =      -1.7944764259589399 [Eh]
	 SCS Total Energy          =    -437.3968194824990405 [Eh]
	-----------------------------------------------------------

  Dipole Moment: [D]
     X:     1.0694      Y:    -3.2504      Z:    -0.0000     Total:     3.4218

*** Psi4 exiting successfully. Buy a developer a beer!
