                               Psi4 1.3.2 release

  ==> Input File <==

--------------------------------------------------------------------------
#psi4
#
memory 32 gb

molecule  {
0 1
  O        0.9755400    -1.0764940     0.0000010
  O       -1.3738420     1.6199730     0.0000050
  N       -1.7006930    -0.6600630    -0.0000030
  C        0.5224480     0.2188310    -0.0000040
  C       -0.9336490     0.4655780     0.0000000
  C        1.5816790     1.0895450    -0.0000030
  C        2.7437604     0.2690539     0.0000001
  C        2.3428020    -1.0138960     0.0000040
  C       -3.1488560    -0.5988880     0.0000010
  H        1.5004040     2.1673970    -0.0000090
  H       -1.2325350    -1.5568070    -0.0000080
  H        3.7847070     0.6289700     0.0000040
  H        2.8531580    -1.9656810     0.0000030
  H       -3.4251050     0.4551520     0.0000010
  H       -3.5616590    -1.0800960     0.8913170
  H       -3.5616630    -1.0800960    -0.8913140
units angstrom
no_reorient  #important for SAPT in psi4, default
symmetry c1  #important for SAPT in psi4, default
}

set PROPERTIES_ORIGIN ["COM"]
properties('MP2/aug-cc-pvtz', properties = ['dipole'])
--------------------------------------------------------------------------

    Molecular point group: c1
  Charge       = 0
  Multiplicity = 1
  Basis Set: AUG-CC-PVTZ
    Blend: AUG-CC-PVTZ
  Basis Set: (AUG-CC-PVTZ AUX)
    Blend: AUG-CC-PVTZ-JKFIT

    Orbital Energies [Eh]
    ---------------------

    Doubly Occupied:

       1A    -20.641418     2A    -20.516186     3A    -15.589140
       4A    -11.360558     5A    -11.308362     6A    -11.301822
       7A    -11.259465     8A    -11.251931     9A    -11.246252
      10A     -1.474081    11A     -1.371259    12A     -1.231573
      13A     -1.103416    14A     -1.040545    15A     -0.954703
      16A     -0.842144    17A     -0.817500    18A     -0.775482
      19A     -0.763699    20A     -0.671583    21A     -0.658960
      22A     -0.640980    23A     -0.618794    24A     -0.598174
      25A     -0.589701    26A     -0.575733    27A     -0.560019
      28A     -0.542291    29A     -0.536491    30A     -0.434061
      31A     -0.415513    32A     -0.391866    33A     -0.333466

  @DF-RHF Final Energy:  -435.60220657634335

   => Energetics <=

    Nuclear Repulsion Energy =            429.8817903955481938
    One-Electron Energy =               -1446.1336566680397482
    Two-Electron Energy =                 580.6496596961480918
    Total Energy =                       -435.6022065763434057
  Basis Set: (AUG-CC-PVTZ AUX)
    Blend: AUG-CC-PVTZ-RI
    Molecular point group: c1

    Geometry (in Angstrom), charge = 0, multiplicity = 1:

       Center              X                  Y                   Z               Mass
    ------------   -----------------  -----------------  -----------------  -----------------
         O            0.948020263277    -1.093787332265     0.000000799170    15.994914619570
         O           -1.401361736723     1.602679667735     0.000004799170    15.994914619570
         N           -1.728212736723    -0.677356332265    -0.000003200830    14.003074004430
         C            0.494928263277     0.201537667735    -0.000004200830    12.000000000000
         C           -0.961168736723     0.448284667735    -0.000000200830    12.000000000000
         C            1.554159263277     1.072251667735    -0.000003200830    12.000000000000
         C            2.716240663277     0.251760567735    -0.000000100830    12.000000000000
         C            2.315282263277    -1.031189332265     0.000003799170    12.000000000000
         C           -3.176375736723    -0.616181332265     0.000000799170    12.000000000000
         H            1.472884263277     2.150103667735    -0.000009200830     1.007825032230
         H           -1.260054736723    -1.574100332265    -0.000008200830     1.007825032230
         H            3.757187263277     0.611676667735     0.000003799170     1.007825032230
         H            2.825638263277    -1.982974332265     0.000002799170     1.007825032230
         H           -3.452624736723     0.437858667735     0.000000799170     1.007825032230
         H           -3.589178736723    -1.097389332265     0.891316799170     1.007825032230
         H           -3.589182736723    -1.097389332265    -0.891314200830     1.007825032230

  Basis Set: AUG-CC-PVTZ
    Blend: AUG-CC-PVTZ
  Basis Set: (AUG-CC-PVTZ AUX)
    Blend: AUG-CC-PVTZ-JKFIT
	 Reference Energy          =    -435.6022065763433488 [Eh]
	 Singles Energy            =      -0.0000000000000000 [Eh]
	 Same-Spin Energy          =      -0.4475254959715911 [Eh]
	 Opposite-Spin Energy      =      -1.3708375950859524 [Eh]
	 Correlation Energy        =      -1.8183630910575435 [Eh]
	 Total Energy              =    -437.4205696674009118 [Eh]

	 ================> DF-SCS-MP2 Energies <==================
	-----------------------------------------------------------
	 SCS Same-Spin Scale       =       0.3333333333333333 [-]
	 SCS Opposite-Spin Scale   =       1.2000000000000000 [-]
	 SCS Same-Spin Energy      =      -0.1491751653238637 [Eh]
	 SCS Opposite-Spin Energy  =      -1.6450051141031428 [Eh]
	 SCS Correlation Energy    =      -1.7941802794270065 [Eh]
	 SCS Total Energy          =    -437.3963868557703449 [Eh]
	-----------------------------------------------------------

  Dipole Moment: [D]
     X:     1.0871      Y:    -3.2314      Z:    -0.0000     Total:     3.4093

*** Psi4 exiting successfully. Buy a developer a beer!
