                               Psi4 1.3.2 release

  ==> Input File <==

--------------------------------------------------------------------------
#psi4
#
memory 32 gb

molecule  {
0 1
  O        0.9755400    -1.0764940     0.0000010
  O       -1.3738420     1.6199730     0.0000050
  N       -1.7006930    -0.6600630    -0.0000030
  C        0.4372362     0.3343207    -0.0000043
  C       -0.9336490     0.4655780     0.0000000
  C        1.5816790     1.0895450    -0.0000030
  C        2.7579030     0.2894600     0.0000000
  C        2.3428020    -1.0138960     0.0000040
  C       -3.1488560    -0.5988880     0.0000010
  H        1.5004040     2.1673970    -0.0000090
  H       -1.2325350    -1.5568070    -0.0000080
  H        3.7847070     0.6289700     0.0000040
  H        2.8531580    -1.9656810     0.0000030
  H       -3.4251050     0.4551520     0.0000010
  H       -3.5616590    -1.0800960     0.8913170
  H       -3.5616630    -1.0800960    -0.8913140
units angstrom
no_reorient  #important for SAPT in psi4, default
symmetry c1  #important for SAPT in psi4, default
}

set PROPERTIES_ORIGIN ["COM"]
properties('MP2/aug-cc-pvtz', properties = ['dipole'])
--------------------------------------------------------------------------

    Molecular point group: c1
  Charge       = 0
  Multiplicity = 1
  Basis Set: AUG-CC-PVTZ
    Blend: AUG-CC-PVTZ
  Basis Set: (AUG-CC-PVTZ AUX)
    Blend: AUG-CC-PVTZ-JKFIT

    Orbital Energies [Eh]
    ---------------------

    Doubly Occupied:

       1A    -20.624610     2A    -20.510579     3A    -15.586669
       4A    -11.352628     5A    -11.323643     6A    -11.300190
       7A    -11.269825     8A    -11.258191     9A    -11.248189
      10A     -1.428336    11A     -1.372804    12A     -1.229306
      13A     -1.100041    14A     -1.045323    15A     -0.954140
      16A     -0.864028    17A     -0.807727    18A     -0.773906
      19A     -0.754561    20A     -0.674274    21A     -0.642634
      22A     -0.640024    23A     -0.610652    24A     -0.598567
      25A     -0.583345    26A     -0.580280    27A     -0.552348
      28A     -0.539287    29A     -0.533679    30A     -0.433412
      31A     -0.415411    32A     -0.390237    33A     -0.334937

  @DF-RHF Final Energy:  -435.57707395529042

   => Energetics <=

    Nuclear Repulsion Energy =            428.7408135863680627
    One-Electron Energy =               -1443.9682081004361862
    Two-Electron Energy =                 579.6503205587777074
    Total Energy =                       -435.5770739552904161
  Basis Set: (AUG-CC-PVTZ AUX)
    Blend: AUG-CC-PVTZ-RI
    Molecular point group: c1

    Geometry (in Angstrom), charge = 0, multiplicity = 1:

       Center              X                  Y                   Z               Mass
    ------------   -----------------  -----------------  -----------------  -----------------
         O            0.954840305124    -1.106828354857     0.000000837555    15.994914619570
         O           -1.394541694876     1.589638645143     0.000004837555    15.994914619570
         N           -1.721392694876    -0.690397354857    -0.000003162445    14.003074004430
         C            0.416536505124     0.303986345143    -0.000004462445    12.000000000000
         C           -0.954348694876     0.435243645143    -0.000000162445    12.000000000000
         C            1.560979305124     1.059210645143    -0.000003162445    12.000000000000
         C            2.737203305124     0.259125645143    -0.000000162445    12.000000000000
         C            2.322102305124    -1.044230354857     0.000003837555    12.000000000000
         C           -3.169555694876    -0.629222354857     0.000000837555    12.000000000000
         H            1.479704305124     2.137062645143    -0.000009162445     1.007825032230
         H           -1.253234694876    -1.587141354857    -0.000008162445     1.007825032230
         H            3.764007305124     0.598635645143     0.000003837555     1.007825032230
         H            2.832458305124    -1.996015354857     0.000002837555     1.007825032230
         H           -3.445804694876     0.424817645143     0.000000837555     1.007825032230
         H           -3.582358694876    -1.110430354857     0.891316837555     1.007825032230
         H           -3.582362694876    -1.110430354857    -0.891314162445     1.007825032230

  Basis Set: AUG-CC-PVTZ
    Blend: AUG-CC-PVTZ
  Basis Set: (AUG-CC-PVTZ AUX)
    Blend: AUG-CC-PVTZ-JKFIT
	 Reference Energy          =    -435.5770739552904161 [Eh]
	 Singles Energy            =      -0.0000000000000000 [Eh]
	 Same-Spin Energy          =      -0.4491971331122783 [Eh]
	 Opposite-Spin Energy      =      -1.3749026595238290 [Eh]
	 Correlation Energy        =      -1.8240997926361073 [Eh]
	 Total Energy              =    -437.4011737479265207 [Eh]

	 ================> DF-SCS-MP2 Energies <==================
	-----------------------------------------------------------
	 SCS Same-Spin Scale       =       0.3333333333333333 [-]
	 SCS Opposite-Spin Scale   =       1.2000000000000000 [-]
	 SCS Same-Spin Energy      =      -0.1497323777040928 [Eh]
	 SCS Opposite-Spin Energy  =      -1.6498831914285947 [Eh]
	 SCS Correlation Energy    =      -1.7996155691326874 [Eh]
	 SCS Total Energy          =    -437.3766895244231137 [Eh]
	-----------------------------------------------------------

  Dipole Moment: [D]
     X:     1.1771      Y:    -3.0820      Z:    -0.0000     Total:     3.2992

*** Psi4 exiting successfully. Buy a developer a beer!
