                               Psi4 1.4a3.dev225

  ==> Input File <==

--------------------------------------------------------------------------
#psi4
#
memory 32 gb

molecule  {
0 1
  O        0.9755400    -1.0764940     0.0000010
  O       -1.3738420     1.6199730     0.0000050
  N       -1.7006930    -0.6600630    -0.0000030
  C        0.5224480     0.2188310    -0.0000040
  C       -0.9533679     0.4689195     0.0000001
  C        1.5816790     1.0895450    -0.0000030
  C        2.7579030     0.2894600     0.0000000
  C        2.3428020    -1.0138960     0.0000040
  C       -3.1488560    -0.5988880     0.0000010
  H        1.5004040     2.1673970    -0.0000090
  H       -1.2325350    -1.5568070    -0.0000080
  H        3.7847070     0.6289700     0.0000040
  H        2.8531580    -1.9656810     0.0000030
  H       -3.4251050     0.4551520     0.0000010
  H       -3.5616590    -1.0800960     0.8913170
  H       -3.5616630    -1.0800960    -0.8913140
units angstrom
no_reorient  #important for SAPT in psi4, default
symmetry c1  #important for SAPT in psi4, default
}

set PROPERTIES_ORIGIN ["COM"]
properties('MP2/aug-cc-pvtz', properties = ['dipole'])
--------------------------------------------------------------------------

    Molecular point group: c1
  Charge       = 0
  Multiplicity = 1
  Basis Set: AUG-CC-PVTZ
    Blend: AUG-CC-PVTZ
  Basis Set: (AUG-CC-PVTZ AUX)
    Blend: AUG-CC-PVTZ-JKFIT

    Orbital Energies [Eh]
    ---------------------

    Doubly Occupied:

       1A    -20.642135     2A    -20.517621     3A    -15.590296
       4A    -11.360845     5A    -11.310290     6A    -11.300955
       7A    -11.260359     8A    -11.249895     9A    -11.246513
      10A     -1.472762    11A     -1.378057    12A     -1.236277
      13A     -1.099544    14A     -1.035252    15A     -0.954940
      16A     -0.837130    17A     -0.817795    18A     -0.778407
      19A     -0.763638    20A     -0.671000    21A     -0.657398
      22A     -0.643582    23A     -0.620676    24A     -0.602288
      25A     -0.584783    26A     -0.576277    27A     -0.560339
      28A     -0.543954    29A     -0.539632    30A     -0.434406
      31A     -0.413013    32A     -0.394411    33A     -0.329284

  @DF-RHF Final Energy:  -435.60276119630157

   => Energetics <=

    Nuclear Repulsion Energy =            429.4163579329757567
    One-Electron Energy =               -1445.1907294194909355
    Two-Electron Energy =                 580.1716102902136072
    Total Energy =                       -435.6027611963015715
  Basis Set: (AUG-CC-PVTZ AUX)
    Blend: AUG-CC-PVTZ-RI
    Molecular point group: c1

    Geometry (in Angstrom), charge = 0, multiplicity = 1:

       Center              X                  Y                   Z               Mass
    ------------   -----------------  -----------------  -----------------  -----------------
         O            0.948555383967    -1.096066232629     0.000000799170    15.994914619570
         O           -1.400826616033     1.600400767371     0.000004799170    15.994914619570
         N           -1.727677616033    -0.679635232629    -0.000003200830    14.003074004430
         C            0.495463383967     0.199258767371    -0.000004200830    12.000000000000
         C           -0.980352516033     0.449347267371    -0.000000100830    12.000000000000
         C            1.554694383967     1.069972767371    -0.000003200830    12.000000000000
         C            2.730918383967     0.269887767371    -0.000000200830    12.000000000000
         C            2.315817383967    -1.033468232629     0.000003799170    12.000000000000
         C           -3.175840616033    -0.618460232629     0.000000799170    12.000000000000
         H            1.473419383967     2.147824767371    -0.000009200830     1.007825032230
         H           -1.259519616033    -1.576379232629    -0.000008200830     1.007825032230
         H            3.757722383967     0.609397767371     0.000003799170     1.007825032230
         H            2.826173383967    -1.985253232629     0.000002799170     1.007825032230
         H           -3.452089616033     0.435579767371     0.000000799170     1.007825032230
         H           -3.588643616033    -1.099668232629     0.891316799170     1.007825032230
         H           -3.588647616033    -1.099668232629    -0.891314200830     1.007825032230

  Basis Set: AUG-CC-PVTZ
    Blend: AUG-CC-PVTZ
  Basis Set: (AUG-CC-PVTZ AUX)
    Blend: AUG-CC-PVTZ-JKFIT
	 Reference Energy          =    -435.6027611963015715 [Eh]
	 Singles Energy            =      -0.0000000000000000 [Eh]
	 Same-Spin Energy          =      -0.4474680561250608 [Eh]
	 Opposite-Spin Energy      =      -1.3707895487017727 [Eh]
	 Correlation Energy        =      -1.8182576048268335 [Eh]
	 Total Energy              =    -437.4210188011284117 [Eh]

	 ================> DF-SCS-MP2 Energies <==================
	-----------------------------------------------------------
	 SCS Same-Spin Scale       =       0.3333333333333333 [-]
	 SCS Opposite-Spin Scale   =       1.2000000000000000 [-]
	 SCS Same-Spin Energy      =      -0.1491560187083536 [Eh]
	 SCS Opposite-Spin Energy  =      -1.6449474584421273 [Eh]
	 SCS Correlation Energy    =      -1.7941034771504809 [Eh]
	 SCS Total Energy          =    -437.3968646734520576 [Eh]
	-----------------------------------------------------------

  Dipole Moment: [D]
     X:     0.9343      Y:    -3.2224      Z:    -0.0000     Total:     3.3551

*** Psi4 exiting successfully. Buy a developer a beer!
