                               Psi4 1.3.2 release

  ==> Input File <==

--------------------------------------------------------------------------
#psi4
#
memory 32 gb

molecule  {
0 1
  O        0.9755400    -1.0764940     0.0000010
  O       -1.3738420     1.6199730     0.0000050
  N       -1.7006930    -0.6600630    -0.0000030
  C        0.5224480     0.2188310    -0.0000040
  C       -0.9336490     0.4655780     0.0000000
  C        1.5816790     1.0895450    -0.0000030
  C        2.7579030     0.2894600     0.0000000
  C        2.3201185    -1.0064530     0.0000038
  C       -3.1488560    -0.5988880     0.0000010
  H        1.5004040     2.1673970    -0.0000090
  H       -1.2325350    -1.5568070    -0.0000080
  H        3.7847070     0.6289700     0.0000040
  H        2.8531580    -1.9656810     0.0000030
  H       -3.4251050     0.4551520     0.0000010
  H       -3.5616590    -1.0800960     0.8913170
  H       -3.5616630    -1.0800960    -0.8913140
units angstrom
no_reorient  #important for SAPT in psi4, default
symmetry c1  #important for SAPT in psi4, default
}

set PROPERTIES_ORIGIN ["COM"]
properties('MP2/aug-cc-pvtz', properties = ['dipole'])
--------------------------------------------------------------------------

    Molecular point group: c1
  Charge       = 0
  Multiplicity = 1
  Basis Set: AUG-CC-PVTZ
    Blend: AUG-CC-PVTZ
  Basis Set: (AUG-CC-PVTZ AUX)
    Blend: AUG-CC-PVTZ-JKFIT

    Orbital Energies [Eh]
    ---------------------

    Doubly Occupied:

       1A    -20.646900     2A    -20.515246     3A    -15.588800
       4A    -11.360094     5A    -11.313484     6A    -11.300128
       7A    -11.259301     8A    -11.253137     9A    -11.246211
      10A     -1.484263    11A     -1.370695    12A     -1.231333
      13A     -1.102995    14A     -1.039865    15A     -0.953394
      16A     -0.839590    17A     -0.821947    18A     -0.775578
      19A     -0.767039    20A     -0.670569    21A     -0.663750
      22A     -0.641577    23A     -0.619276    24A     -0.602897
      25A     -0.587471    26A     -0.577883    27A     -0.558676
      28A     -0.542051    29A     -0.536481    30A     -0.433361
      31A     -0.414577    32A     -0.391780    33A     -0.330420

  @DF-RHF Final Energy:  -435.60246948236704

   => Energetics <=

    Nuclear Repulsion Energy =            429.9685531849683002
    One-Electron Energy =               -1446.2605082565385146
    Two-Electron Energy =                 580.6894855892031728
    Total Energy =                       -435.6024694823670416
  Basis Set: (AUG-CC-PVTZ AUX)
    Blend: AUG-CC-PVTZ-RI
    Molecular point group: c1

    Geometry (in Angstrom), charge = 0, multiplicity = 1:

       Center              X                  Y                   Z               Mass
    ------------   -----------------  -----------------  -----------------  -----------------
         O            0.948839877054    -1.096459826502     0.000000827959    15.994914619570
         O           -1.400542122946     1.600007173498     0.000004827959    15.994914619570
         N           -1.727393122946    -0.680028826502    -0.000003172041    14.003074004430
         C            0.495747877054     0.198865173498    -0.000004172041    12.000000000000
         C           -0.960349122946     0.445612173498    -0.000000172041    12.000000000000
         C            1.554978877054     1.069579173498    -0.000003172041    12.000000000000
         C            2.731202877054     0.269494173498    -0.000000172041    12.000000000000
         C            2.293418377054    -1.026418826502     0.000003627959    12.000000000000
         C           -3.175556122946    -0.618853826502     0.000000827959    12.000000000000
         H            1.473703877054     2.147431173498    -0.000009172041     1.007825032230
         H           -1.259235122946    -1.576772826502    -0.000008172041     1.007825032230
         H            3.758006877054     0.609004173498     0.000003827959     1.007825032230
         H            2.826457877054    -1.985646826502     0.000002827959     1.007825032230
         H           -3.451805122946     0.435186173498     0.000000827959     1.007825032230
         H           -3.588359122946    -1.100061826502     0.891316827959     1.007825032230
         H           -3.588363122946    -1.100061826502    -0.891314172041     1.007825032230

  Basis Set: AUG-CC-PVTZ
    Blend: AUG-CC-PVTZ
  Basis Set: (AUG-CC-PVTZ AUX)
    Blend: AUG-CC-PVTZ-JKFIT
	 Reference Energy          =    -435.6024694823670416 [Eh]
	 Singles Energy            =      -0.0000000000000000 [Eh]
	 Same-Spin Energy          =      -0.4477289648339853 [Eh]
	 Opposite-Spin Energy      =      -1.3707822365949105 [Eh]
	 Correlation Energy        =      -1.8185112014288958 [Eh]
	 Total Energy              =    -437.4209806837959604 [Eh]

	 ================> DF-SCS-MP2 Energies <==================
	-----------------------------------------------------------
	 SCS Same-Spin Scale       =       0.3333333333333333 [-]
	 SCS Opposite-Spin Scale   =       1.2000000000000000 [-]
	 SCS Same-Spin Energy      =      -0.1492429882779951 [Eh]
	 SCS Opposite-Spin Energy  =      -1.6449386839138926 [Eh]
	 SCS Correlation Energy    =      -1.7941816721918877 [Eh]
	 SCS Total Energy          =    -437.3966511545589242 [Eh]
	-----------------------------------------------------------

  Dipole Moment: [D]
     X:     1.0743      Y:    -3.2437      Z:    -0.0000     Total:     3.4170

*** Psi4 exiting successfully. Buy a developer a beer!
