                               Psi4 1.4a3.dev225

  ==> Input File <==

--------------------------------------------------------------------------
#psi4
#
memory 32 gb

molecule  {
0 1
  O        0.9755400    -1.0764940     0.0000010
  O       -1.3738420     1.6199730     0.0000050
  N       -1.7006930    -0.6600630    -0.0000030
  C        0.5059393     0.2660270    -0.0000042
  C       -0.9336490     0.4655780     0.0000000
  C        1.5816790     1.0895450    -0.0000030
  C        2.7579030     0.2894600     0.0000000
  C        2.3428020    -1.0138960     0.0000040
  C       -3.1488560    -0.5988880     0.0000010
  H        1.5004040     2.1673970    -0.0000090
  H       -1.2325350    -1.5568070    -0.0000080
  H        3.7847070     0.6289700     0.0000040
  H        2.8531580    -1.9656810     0.0000030
  H       -3.4251050     0.4551520     0.0000010
  H       -3.5616590    -1.0800960     0.8913170
  H       -3.5616630    -1.0800960    -0.8913140
units angstrom
no_reorient  #important for SAPT in psi4, default
symmetry c1  #important for SAPT in psi4, default
}

set PROPERTIES_ORIGIN ["COM"]
properties('MP2/aug-cc-pvtz', properties = ['dipole'])
--------------------------------------------------------------------------

    Molecular point group: c1
  Charge       = 0
  Multiplicity = 1
  Basis Set: AUG-CC-PVTZ
    Blend: AUG-CC-PVTZ
  Basis Set: (AUG-CC-PVTZ AUX)
    Blend: AUG-CC-PVTZ-JKFIT

    Orbital Energies [Eh]
    ---------------------

    Doubly Occupied:

       1A    -20.636357     2A    -20.514490     3A    -15.588877
       4A    -11.359191     5A    -11.315543     6A    -11.299886
       7A    -11.259403     8A    -11.255607     9A    -11.247366
      10A     -1.455672    11A     -1.371560    12A     -1.230938
      13A     -1.102701    14A     -1.039321    15A     -0.954202
      16A     -0.846578    17A     -0.814916    18A     -0.775100
      19A     -0.760985    20A     -0.670780    21A     -0.649966
      22A     -0.642155    23A     -0.616968    24A     -0.599588
      25A     -0.586379    26A     -0.571764    27A     -0.565238
      28A     -0.541762    29A     -0.537075    30A     -0.434090
      31A     -0.415777    32A     -0.391458    33A     -0.333923

  @DF-RHF Final Energy:  -435.59897176453933

   => Energetics <=

    Nuclear Repulsion Energy =            429.1420348867798111
    One-Electron Energy =               -1444.7107800703915927
    Two-Electron Energy =                 579.9697734190724532
    Total Energy =                       -435.5989717645393284
  Basis Set: (AUG-CC-PVTZ AUX)
    Blend: AUG-CC-PVTZ-RI
    Molecular point group: c1

    Geometry (in Angstrom), charge = 0, multiplicity = 1:

       Center              X                  Y                   Z               Mass
    ------------   -----------------  -----------------  -----------------  -----------------
         O            0.948247322271    -1.100274659419     0.000000827959    15.994914619570
         O           -1.401134677729     1.596192340581     0.000004827959    15.994914619570
         N           -1.727985677729    -0.683843659419    -0.000003172041    14.003074004430
         C            0.478646622271     0.242246340581    -0.000004372041    12.000000000000
         C           -0.960941677729     0.441797340581    -0.000000172041    12.000000000000
         C            1.554386322271     1.065764340581    -0.000003172041    12.000000000000
         C            2.730610322271     0.265679340581    -0.000000172041    12.000000000000
         C            2.315509322271    -1.037676659419     0.000003827959    12.000000000000
         C           -3.176148677729    -0.622668659419     0.000000827959    12.000000000000
         H            1.473111322271     2.143616340581    -0.000009172041     1.007825032230
         H           -1.259827677729    -1.580587659419    -0.000008172041     1.007825032230
         H            3.757414322271     0.605189340581     0.000003827959     1.007825032230
         H            2.825865322271    -1.989461659419     0.000002827959     1.007825032230
         H           -3.452397677729     0.431371340581     0.000000827959     1.007825032230
         H           -3.588951677729    -1.103876659419     0.891316827959     1.007825032230
         H           -3.588955677729    -1.103876659419    -0.891314172041     1.007825032230

  Basis Set: AUG-CC-PVTZ
    Blend: AUG-CC-PVTZ
  Basis Set: (AUG-CC-PVTZ AUX)
    Blend: AUG-CC-PVTZ-JKFIT
	 Reference Energy          =    -435.5989717645393284 [Eh]
	 Singles Energy            =      -0.0000000000000000 [Eh]
	 Same-Spin Energy          =      -0.4477709160115527 [Eh]
	 Opposite-Spin Energy      =      -1.3720074227152705 [Eh]
	 Correlation Energy        =      -1.8197783387268232 [Eh]
	 Total Energy              =    -437.4187501032661771 [Eh]

	 ================> DF-SCS-MP2 Energies <==================
	-----------------------------------------------------------
	 SCS Same-Spin Scale       =       0.3333333333333333 [-]
	 SCS Opposite-Spin Scale   =       1.2000000000000000 [-]
	 SCS Same-Spin Energy      =      -0.1492569720038509 [Eh]
	 SCS Opposite-Spin Energy  =      -1.6464089072583246 [Eh]
	 SCS Correlation Energy    =      -1.7956658792621754 [Eh]
	 SCS Total Energy          =    -437.3946376438015022 [Eh]
	-----------------------------------------------------------

  Dipole Moment: [D]
     X:     1.1054      Y:    -3.1651      Z:    -0.0000     Total:     3.3525

*** Psi4 exiting successfully. Buy a developer a beer!
