                               Psi4 1.4a3.dev225

  ==> Input File <==

--------------------------------------------------------------------------
#psi4
#
memory 32 gb

molecule  {
0 1
  O        0.9755400    -1.0764940     0.0000010
  O       -1.3738420     1.6199730     0.0000050
  N       -1.7006930    -0.6600630    -0.0000030
  C        0.5224480     0.2188310    -0.0000040
  C       -0.9336490     0.4655780     0.0000000
  C        1.5816790     1.0895450    -0.0000030
  C        2.7579030     0.2894600     0.0000000
  C        2.3428020    -1.0138960     0.0000040
  C       -3.1488560    -0.5988880     0.0000010
  H        1.5004040     2.1673970    -0.0000090
  H       -1.2325350    -1.5568070    -0.0000080
  H        3.8036959     0.6352486     0.0000041
  H        2.8531580    -1.9656810     0.0000030
  H       -3.4251050     0.4551520     0.0000010
  H       -3.5616590    -1.0800960     0.8913170
  H       -3.5616630    -1.0800960    -0.8913140
units angstrom
no_reorient  #important for SAPT in psi4, default
symmetry c1  #important for SAPT in psi4, default
}

set PROPERTIES_ORIGIN ["COM"]
properties('MP2/aug-cc-pvtz', properties = ['dipole'])
--------------------------------------------------------------------------

    Molecular point group: c1
  Charge       = 0
  Multiplicity = 1
  Basis Set: AUG-CC-PVTZ
    Blend: AUG-CC-PVTZ
  Basis Set: (AUG-CC-PVTZ AUX)
    Blend: AUG-CC-PVTZ-JKFIT

    Orbital Energies [Eh]
    ---------------------

    Doubly Occupied:

       1A    -20.643711     2A    -20.515918     3A    -15.589062
       4A    -11.360550     5A    -11.312677     6A    -11.301553
       7A    -11.259435     8A    -11.252739     9A    -11.250198
      10A     -1.474534    11A     -1.371084    12A     -1.231495
      13A     -1.101244    14A     -1.038923    15A     -0.953908
      16A     -0.841204    17A     -0.818175    18A     -0.775306
      19A     -0.763680    20A     -0.671614    21A     -0.658855
      22A     -0.641238    23A     -0.618711    24A     -0.599726
      25A     -0.586470    26A     -0.576058    27A     -0.561406
      28A     -0.542310    29A     -0.536378    30A     -0.433901
      31A     -0.414460    32A     -0.391844    33A     -0.331038

  @DF-RHF Final Energy:  -435.60148984310734

   => Energetics <=

    Nuclear Repulsion Energy =            429.3417227320650227
    One-Electron Energy =               -1445.0476137061762074
    Two-Electron Energy =                 580.1044011310037831
    Total Energy =                       -435.6014898431074016
  Basis Set: (AUG-CC-PVTZ AUX)
    Blend: AUG-CC-PVTZ-RI
    Molecular point group: c1

    Geometry (in Angstrom), charge = 0, multiplicity = 1:

       Center              X                  Y                   Z               Mass
    ------------   -----------------  -----------------  -----------------  -----------------
         O            0.946510049805    -1.095796173479     0.000000807960    15.994914619570
         O           -1.402871950195     1.600670826521     0.000004807960    15.994914619570
         N           -1.729722950195    -0.679365173479    -0.000003192040    14.003074004430
         C            0.493418049805     0.199528826521    -0.000004192040    12.000000000000
         C           -0.962678950195     0.446275826521    -0.000000192040    12.000000000000
         C            1.552649049805     1.070242826521    -0.000003192040    12.000000000000
         C            2.728873049805     0.270157826521    -0.000000192040    12.000000000000
         C            2.313772049805    -1.033198173479     0.000003807960    12.000000000000
         C           -3.177885950195    -0.618190173479     0.000000807960    12.000000000000
         H            1.471374049805     2.148094826521    -0.000009192040     1.007825032230
         H           -1.261564950195    -1.576109173479    -0.000008192040     1.007825032230
         H            3.774665949805     0.615946426521     0.000003907960     1.007825032230
         H            2.824128049805    -1.984983173479     0.000002807960     1.007825032230
         H           -3.454134950195     0.435849826521     0.000000807960     1.007825032230
         H           -3.590688950195    -1.099398173479     0.891316807960     1.007825032230
         H           -3.590692950195    -1.099398173479    -0.891314192040     1.007825032230

  Basis Set: AUG-CC-PVTZ
    Blend: AUG-CC-PVTZ
  Basis Set: (AUG-CC-PVTZ AUX)
    Blend: AUG-CC-PVTZ-JKFIT
	 Reference Energy          =    -435.6014898431073448 [Eh]
	 Singles Energy            =      -0.0000000000000000 [Eh]
	 Same-Spin Energy          =      -0.4478529435275981 [Eh]
	 Opposite-Spin Energy      =      -1.3715536566734623 [Eh]
	 Correlation Energy        =      -1.8194066002010605 [Eh]
	 Total Energy              =    -437.4208964433083793 [Eh]

	 ================> DF-SCS-MP2 Energies <==================
	-----------------------------------------------------------
	 SCS Same-Spin Scale       =       0.3333333333333333 [-]
	 SCS Opposite-Spin Scale   =       1.2000000000000000 [-]
	 SCS Same-Spin Energy      =      -0.1492843145091994 [Eh]
	 SCS Opposite-Spin Energy  =      -1.6458643880081547 [Eh]
	 SCS Correlation Energy    =      -1.7951487025173540 [Eh]
	 SCS Total Energy          =    -437.3966385456246826 [Eh]
	-----------------------------------------------------------

  Dipole Moment: [D]
     X:     1.0900      Y:    -3.2357      Z:    -0.0000     Total:     3.4143

*** Psi4 exiting successfully. Buy a developer a beer!
