                               Psi4 1.3.2 release

  ==> Input File <==

--------------------------------------------------------------------------
#psi4
#
memory 32 gb

molecule  {
0 1
  O        0.9755400    -1.0764940     0.0000010
  O       -1.3738420     1.6199730     0.0000050
  N       -1.7006930    -0.6600630    -0.0000030
  C        0.5224480     0.2188310    -0.0000040
  C       -0.9336490     0.4655780     0.0000000
  C        1.5816790     1.0895450    -0.0000030
  C        2.7579030     0.2894600     0.0000000
  C        2.3428020    -1.0138960     0.0000040
  C       -3.1488560    -0.5988880     0.0000010
  H        1.5004040     2.1673970    -0.0000090
  H       -1.2325350    -1.5568070    -0.0000080
  H        3.9745961     0.6917563     0.0000047
  H        2.8531580    -1.9656810     0.0000030
  H       -3.4251050     0.4551520     0.0000010
  H       -3.5616590    -1.0800960     0.8913170
  H       -3.5616630    -1.0800960    -0.8913140
units angstrom
no_reorient  #important for SAPT in psi4, default
symmetry c1  #important for SAPT in psi4, default
}

set PROPERTIES_ORIGIN ["COM"]
properties('MP2/aug-cc-pvtz', properties = ['dipole'])
--------------------------------------------------------------------------

    Molecular point group: c1
  Charge       = 0
  Multiplicity = 1
  Basis Set: AUG-CC-PVTZ
    Blend: AUG-CC-PVTZ
  Basis Set: (AUG-CC-PVTZ AUX)
    Blend: AUG-CC-PVTZ-JKFIT

    Orbital Energies [Eh]
    ---------------------

    Doubly Occupied:

       1A    -20.644955     2A    -20.516488     3A    -15.589610
       4A    -11.361264     5A    -11.313956     6A    -11.302787
       7A    -11.268409     8A    -11.259813     9A    -11.254484
      10A     -1.475746    11A     -1.371663    12A     -1.232029
      13A     -1.100241    14A     -1.038916    15A     -0.953898
      16A     -0.841985    17A     -0.810905    18A     -0.775337
      19A     -0.753660    20A     -0.672246    21A     -0.659989
      22A     -0.638477    23A     -0.619228    24A     -0.594466
      25A     -0.586835    26A     -0.566882    27A     -0.545309
      28A     -0.542418    29A     -0.536919    30A     -0.434443
      31A     -0.415653    32A     -0.392350    33A     -0.331969

  @DF-RHF Final Energy:  -435.57925213395919

   => Energetics <=

    Nuclear Repulsion Energy =            428.5350292896537781
    One-Electron Energy =               -1443.4219038574362912
    Two-Electron Energy =                 579.3076224338233260
    Total Energy =                       -435.5792521339592440
  Basis Set: (AUG-CC-PVTZ AUX)
    Blend: AUG-CC-PVTZ-RI
    Molecular point group: c1

    Geometry (in Angstrom), charge = 0, multiplicity = 1:

       Center              X                  Y                   Z               Mass
    ------------   -----------------  -----------------  -----------------  -----------------
         O            0.945132675177    -1.096251598764     0.000000803125    15.994914619570
         O           -1.404249324823     1.600215401236     0.000004803125    15.994914619570
         N           -1.731100324823    -0.679820598764    -0.000003196875    14.003074004430
         C            0.492040675177     0.199073401236    -0.000004196875    12.000000000000
         C           -0.964056324823     0.445820401236    -0.000000196875    12.000000000000
         C            1.551271675177     1.069787401236    -0.000003196875    12.000000000000
         C            2.727495675177     0.269702401236    -0.000000196875    12.000000000000
         C            2.312394675177    -1.033653598764     0.000003803125    12.000000000000
         C           -3.179263324823    -0.618645598764     0.000000803125    12.000000000000
         H            1.469996675177     2.147639401236    -0.000009196875     1.007825032230
         H           -1.262942324823    -1.576564598764    -0.000008196875     1.007825032230
         H            3.944188775177     0.671998701236     0.000004503125     1.007825032230
         H            2.822750675177    -1.985438598764     0.000002803125     1.007825032230
         H           -3.455512324823     0.435394401236     0.000000803125     1.007825032230
         H           -3.592066324823    -1.099853598764     0.891316803125     1.007825032230
         H           -3.592070324823    -1.099853598764    -0.891314196875     1.007825032230

  Basis Set: AUG-CC-PVTZ
    Blend: AUG-CC-PVTZ
  Basis Set: (AUG-CC-PVTZ AUX)
    Blend: AUG-CC-PVTZ-JKFIT
	 Reference Energy          =    -435.5792521339591872 [Eh]
	 Singles Energy            =      -0.0000000000000000 [Eh]
	 Same-Spin Energy          =      -0.4482197984005527 [Eh]
	 Opposite-Spin Energy      =      -1.3733965464942650 [Eh]
	 Correlation Energy        =      -1.8216163448948177 [Eh]
	 Total Energy              =    -437.4008684788540222 [Eh]

	 ================> DF-SCS-MP2 Energies <==================
	-----------------------------------------------------------
	 SCS Same-Spin Scale       =       0.3333333333333333 [-]
	 SCS Opposite-Spin Scale   =       1.2000000000000000 [-]
	 SCS Same-Spin Energy      =      -0.1494065994668509 [Eh]
	 SCS Opposite-Spin Energy  =      -1.6480758557931179 [Eh]
	 SCS Correlation Energy    =      -1.7974824552599689 [Eh]
	 SCS Total Energy          =    -437.3767345892191543 [Eh]
	-----------------------------------------------------------

  Dipole Moment: [D]
     X:     1.0542      Y:    -3.2259      Z:    -0.0000     Total:     3.3938

*** Psi4 exiting successfully. Buy a developer a beer!
