                               Psi4 1.3.2 release

  ==> Input File <==

--------------------------------------------------------------------------
#psi4
#
memory 32 gb

molecule  {
0 1
  O        0.9755400    -1.0764940     0.0000010
  O       -1.3738420     1.6199730     0.0000050
  N       -1.7006930    -0.6600630    -0.0000030
  C        0.5224480     0.2188310    -0.0000040
  C       -0.9336490     0.4655780     0.0000000
  C        1.5287331     1.0055468    -0.0000028
  C        2.7579030     0.2894600     0.0000000
  C        2.3428020    -1.0138960     0.0000040
  C       -3.1488560    -0.5988880     0.0000010
  H        1.5004040     2.1673970    -0.0000090
  H       -1.2325350    -1.5568070    -0.0000080
  H        3.7847070     0.6289700     0.0000040
  H        2.8531580    -1.9656810     0.0000030
  H       -3.4251050     0.4551520     0.0000010
  H       -3.5616590    -1.0800960     0.8913170
  H       -3.5616630    -1.0800960    -0.8913140
units angstrom
no_reorient  #important for SAPT in psi4, default
symmetry c1  #important for SAPT in psi4, default
}

set PROPERTIES_ORIGIN ["COM"]
properties('MP2/aug-cc-pvtz', properties = ['dipole'])
--------------------------------------------------------------------------

    Molecular point group: c1
  Charge       = 0
  Multiplicity = 1
  Basis Set: AUG-CC-PVTZ
    Blend: AUG-CC-PVTZ
  Basis Set: (AUG-CC-PVTZ AUX)
    Blend: AUG-CC-PVTZ-JKFIT

    Orbital Energies [Eh]
    ---------------------

    Doubly Occupied:

       1A    -20.635836     2A    -20.516662     3A    -15.589788
       4A    -11.361330     5A    -11.312703     6A    -11.287536
       7A    -11.259829     8A    -11.245973     9A    -11.243873
      10A     -1.474458    11A     -1.371719    12A     -1.232067
      13A     -1.110434    14A     -1.045296    15A     -0.956999
      16A     -0.838586    17A     -0.823154    18A     -0.773713
      19A     -0.759317    20A     -0.671723    21A     -0.661271
      22A     -0.643576    23A     -0.619128    24A     -0.604655
      25A     -0.586427    26A     -0.570532    27A     -0.544903
      28A     -0.543049    29A     -0.537021    30A     -0.434682
      31A     -0.418777    32A     -0.392302    33A     -0.341940

  @DF-RHF Final Energy:  -435.59127766303112

   => Energetics <=

    Nuclear Repulsion Energy =            431.5365778152291227
    One-Electron Energy =               -1449.4371906365624909
    Two-Electron Energy =                 582.3093351583022468
    Total Energy =                       -435.5912776630311782
  Basis Set: (AUG-CC-PVTZ AUX)
    Blend: AUG-CC-PVTZ-RI
    Molecular point group: c1

    Geometry (in Angstrom), charge = 0, multiplicity = 1:

       Center              X                  Y                   Z               Mass
    ------------   -----------------  -----------------  -----------------  -----------------
         O            0.951743959756    -1.087684818333     0.000000789574    15.994914619570
         O           -1.397638040244     1.608782181667     0.000004789574    15.994914619570
         N           -1.724489040244    -0.671253818333    -0.000003210426    14.003074004430
         C            0.498651959756     0.207640181667    -0.000004210426    12.000000000000
         C           -0.957445040244     0.454387181667    -0.000000210426    12.000000000000
         C            1.504937059756     0.994355981667    -0.000003010426    12.000000000000
         C            2.734106959756     0.278269181667    -0.000000210426    12.000000000000
         C            2.319005959756    -1.025086818333     0.000003789574    12.000000000000
         C           -3.172652040244    -0.610078818333     0.000000789574    12.000000000000
         H            1.476607959756     2.156206181667    -0.000009210426     1.007825032230
         H           -1.256331040244    -1.567997818333    -0.000008210426     1.007825032230
         H            3.760910959756     0.617779181667     0.000003789574     1.007825032230
         H            2.829361959756    -1.976871818333     0.000002789574     1.007825032230
         H           -3.448901040244     0.443961181667     0.000000789574     1.007825032230
         H           -3.585455040244    -1.091286818333     0.891316789574     1.007825032230
         H           -3.585459040244    -1.091286818333    -0.891314210426     1.007825032230

  Basis Set: AUG-CC-PVTZ
    Blend: AUG-CC-PVTZ
  Basis Set: (AUG-CC-PVTZ AUX)
    Blend: AUG-CC-PVTZ-JKFIT
	 Reference Energy          =    -435.5912776630311214 [Eh]
	 Singles Energy            =      -0.0000000000000000 [Eh]
	 Same-Spin Energy          =      -0.4465895486172374 [Eh]
	 Opposite-Spin Energy      =      -1.3694157700670113 [Eh]
	 Correlation Energy        =      -1.8160053186842489 [Eh]
	 Total Energy              =    -437.4072829817153547 [Eh]

	 ================> DF-SCS-MP2 Energies <==================
	-----------------------------------------------------------
	 SCS Same-Spin Scale       =       0.3333333333333333 [-]
	 SCS Opposite-Spin Scale   =       1.2000000000000000 [-]
	 SCS Same-Spin Energy      =      -0.1488631828724125 [Eh]
	 SCS Opposite-Spin Energy  =      -1.6432989240804134 [Eh]
	 SCS Correlation Energy    =      -1.7921621069528260 [Eh]
	 SCS Total Energy          =    -437.3834397699839656 [Eh]
	-----------------------------------------------------------

  Dipole Moment: [D]
     X:     1.0966      Y:    -3.2182      Z:    -0.0000     Total:     3.3999

*** Psi4 exiting successfully. Buy a developer a beer!
