                               Psi4 1.4a3.dev225

  ==> Input File <==

--------------------------------------------------------------------------
#psi4
#
memory 32 gb

molecule  {
0 1
  O        0.9755400    -1.0764940     0.0000010
  O       -1.3738420     1.6199730     0.0000050
  N       -1.7006930    -0.6600630    -0.0000030
  C        0.5224480     0.2188310    -0.0000040
  C       -0.9829462     0.4739318     0.0000001
  C        1.5816790     1.0895450    -0.0000030
  C        2.7579030     0.2894600     0.0000000
  C        2.3428020    -1.0138960     0.0000040
  C       -3.1488560    -0.5988880     0.0000010
  H        1.5004040     2.1673970    -0.0000090
  H       -1.2325350    -1.5568070    -0.0000080
  H        3.7847070     0.6289700     0.0000040
  H        2.8531580    -1.9656810     0.0000030
  H       -3.4251050     0.4551520     0.0000010
  H       -3.5616590    -1.0800960     0.8913170
  H       -3.5616630    -1.0800960    -0.8913140
units angstrom
no_reorient  #important for SAPT in psi4, default
symmetry c1  #important for SAPT in psi4, default
}

set PROPERTIES_ORIGIN ["COM"]
properties('MP2/aug-cc-pvtz', properties = ['dipole'])
--------------------------------------------------------------------------

    Molecular point group: c1
  Charge       = 0
  Multiplicity = 1
  Basis Set: AUG-CC-PVTZ
    Blend: AUG-CC-PVTZ
  Basis Set: (AUG-CC-PVTZ AUX)
    Blend: AUG-CC-PVTZ-JKFIT

    Orbital Energies [Eh]
    ---------------------

    Doubly Occupied:

       1A    -20.639870     2A    -20.520289     3A    -15.592230
       4A    -11.361464     5A    -11.306935     6A    -11.299809
       7A    -11.261795     8A    -11.246081     9A    -11.244189
      10A     -1.470243    11A     -1.388557    12A     -1.243513
      13A     -1.096635    14A     -1.029952    15A     -0.956374
      16A     -0.831825    17A     -0.815075    18A     -0.782852
      19A     -0.761227    20A     -0.670474    21A     -0.655591
      22A     -0.646599    23A     -0.623579    24A     -0.603679
      25A     -0.582259    26A     -0.574449    27A     -0.559185
      28A     -0.545600    29A     -0.544650    30A     -0.434369
      31A     -0.411151    32A     -0.398132    33A     -0.326679

  @DF-RHF Final Energy:  -435.60175344437118

   => Energetics <=

    Nuclear Repulsion Energy =            429.3850802015457475
    One-Electron Energy =               -1445.1230395674949705
    Two-Electron Energy =                 580.1362059215780391
    Total Energy =                       -435.6017534443711838
  Basis Set: (AUG-CC-PVTZ AUX)
    Blend: AUG-CC-PVTZ-RI
    Molecular point group: c1

    Geometry (in Angstrom), charge = 0, multiplicity = 1:

       Center              X                  Y                   Z               Mass
    ------------   -----------------  -----------------  -----------------  -----------------
         O            0.951393818110    -1.096547229964     0.000000799170    15.994914619570
         O           -1.397988181890     1.599919770036     0.000004799170    15.994914619570
         N           -1.724839181890    -0.680116229964    -0.000003200830    14.003074004430
         C            0.498301818110     0.198777770036    -0.000004200830    12.000000000000
         C           -1.007092381890     0.453878570036    -0.000000100830    12.000000000000
         C            1.557532818110     1.069491770036    -0.000003200830    12.000000000000
         C            2.733756818110     0.269406770036    -0.000000200830    12.000000000000
         C            2.318655818110    -1.033949229964     0.000003799170    12.000000000000
         C           -3.173002181890    -0.618941229964     0.000000799170    12.000000000000
         H            1.476257818110     2.147343770036    -0.000009200830     1.007825032230
         H           -1.256681181890    -1.576860229964    -0.000008200830     1.007825032230
         H            3.760560818110     0.608916770036     0.000003799170     1.007825032230
         H            2.829011818110    -1.985734229964     0.000002799170     1.007825032230
         H           -3.449251181890     0.435098770036     0.000000799170     1.007825032230
         H           -3.585805181890    -1.100149229964     0.891316799170     1.007825032230
         H           -3.585809181890    -1.100149229964    -0.891314200830     1.007825032230

  Basis Set: AUG-CC-PVTZ
    Blend: AUG-CC-PVTZ
  Basis Set: (AUG-CC-PVTZ AUX)
    Blend: AUG-CC-PVTZ-JKFIT
	 Reference Energy          =    -435.6017534443711838 [Eh]
	 Singles Energy            =      -0.0000000000000000 [Eh]
	 Same-Spin Energy          =      -0.4470243073156353 [Eh]
	 Opposite-Spin Energy      =      -1.3699919248440775 [Eh]
	 Correlation Energy        =      -1.8170162321597128 [Eh]
	 Total Energy              =    -437.4187696765308715 [Eh]

	 ================> DF-SCS-MP2 Energies <==================
	-----------------------------------------------------------
	 SCS Same-Spin Scale       =       0.3333333333333333 [-]
	 SCS Opposite-Spin Scale   =       1.2000000000000000 [-]
	 SCS Same-Spin Energy      =      -0.1490081024385451 [Eh]
	 SCS Opposite-Spin Energy  =      -1.6439903098128930 [Eh]
	 SCS Correlation Energy    =      -1.7929984122514380 [Eh]
	 SCS Total Energy          =    -437.3947518566226336 [Eh]
	-----------------------------------------------------------

  Dipole Moment: [D]
     X:     0.6940      Y:    -3.1979      Z:    -0.0000     Total:     3.2724

*** Psi4 exiting successfully. Buy a developer a beer!
