                               Psi4 1.3.2 release

  ==> Input File <==

--------------------------------------------------------------------------
#psi4
#
memory 32 gb

molecule  {
0 1
  O        0.9755400    -1.0764940     0.0000010
  O       -1.3738420     1.6199730     0.0000050
  N       -1.7006930    -0.6600630    -0.0000030
  C        0.5224480     0.2188310    -0.0000040
  C       -0.9336490     0.4655780     0.0000000
  C        1.6589290     1.1530464    -0.0000029
  C        2.7579030     0.2894600     0.0000000
  C        2.3428020    -1.0138960     0.0000040
  C       -3.1488560    -0.5988880     0.0000010
  H        1.5004040     2.1673970    -0.0000090
  H       -1.2325350    -1.5568070    -0.0000080
  H        3.7847070     0.6289700     0.0000040
  H        2.8531580    -1.9656810     0.0000030
  H       -3.4251050     0.4551520     0.0000010
  H       -3.5616590    -1.0800960     0.8913170
  H       -3.5616630    -1.0800960    -0.8913140
units angstrom
no_reorient  #important for SAPT in psi4, default
symmetry c1  #important for SAPT in psi4, default
}

set PROPERTIES_ORIGIN ["COM"]
properties('MP2/aug-cc-pvtz', properties = ['dipole'])
--------------------------------------------------------------------------

    Molecular point group: c1
  Charge       = 0
  Multiplicity = 1
  Basis Set: AUG-CC-PVTZ
    Blend: AUG-CC-PVTZ
  Basis Set: (AUG-CC-PVTZ AUX)
    Blend: AUG-CC-PVTZ-JKFIT

    Orbital Energies [Eh]
    ---------------------

    Doubly Occupied:

       1A    -20.652357     2A    -20.515433     3A    -15.588525
       4A    -11.360312     5A    -11.312870     6A    -11.312823
       7A    -11.260045     8A    -11.259189     9A    -11.249581
      10A     -1.476361    11A     -1.370592    12A     -1.231118
      13A     -1.100067    14A     -1.033189    15A     -0.951601
      16A     -0.846464    17A     -0.819140    18A     -0.777150
      19A     -0.765738    20A     -0.676331    21A     -0.657849
      22A     -0.640469    23A     -0.618536    24A     -0.607451
      25A     -0.599301    26A     -0.579538    27A     -0.551539
      28A     -0.538215    29A     -0.535827    30A     -0.433237
      31A     -0.415939    32A     -0.391707    33A     -0.318015

  @DF-RHF Final Energy:  -435.58399401741065

   => Energetics <=

    Nuclear Repulsion Energy =            427.6862971573895038
    One-Electron Energy =               -1441.6475640763173942
    Two-Electron Energy =                 578.3772729015172445
    Total Energy =                       -435.5839940174106459
  Basis Set: (AUG-CC-PVTZ AUX)
    Blend: AUG-CC-PVTZ-RI
    Molecular point group: c1

    Geometry (in Angstrom), charge = 0, multiplicity = 1:

       Center              X                  Y                   Z               Mass
    ------------   -----------------  -----------------  -----------------  -----------------
         O            0.939249918930    -1.101839380990     0.000000799170    15.994914619570
         O           -1.410132081070     1.594627619010     0.000004799170    15.994914619570
         N           -1.736983081070    -0.685408380990    -0.000003200830    14.003074004430
         C            0.486157918930     0.193485619010    -0.000004200830    12.000000000000
         C           -0.969939081070     0.440232619010    -0.000000200830    12.000000000000
         C            1.622638918930     1.127701019010    -0.000003100830    12.000000000000
         C            2.721612918930     0.264114619010    -0.000000200830    12.000000000000
         C            2.306511918930    -1.039241380990     0.000003799170    12.000000000000
         C           -3.185146081070    -0.624233380990     0.000000799170    12.000000000000
         H            1.464113918930     2.142051619010    -0.000009200830     1.007825032230
         H           -1.268825081070    -1.582152380990    -0.000008200830     1.007825032230
         H            3.748416918930     0.603624619010     0.000003799170     1.007825032230
         H            2.816867918930    -1.991026380990     0.000002799170     1.007825032230
         H           -3.461395081070     0.429806619010     0.000000799170     1.007825032230
         H           -3.597949081070    -1.105441380990     0.891316799170     1.007825032230
         H           -3.597953081070    -1.105441380990    -0.891314200830     1.007825032230

  Basis Set: AUG-CC-PVTZ
    Blend: AUG-CC-PVTZ
  Basis Set: (AUG-CC-PVTZ AUX)
    Blend: AUG-CC-PVTZ-JKFIT
	 Reference Energy          =    -435.5839940174106459 [Eh]
	 Singles Energy            =      -0.0000000000000000 [Eh]
	 Same-Spin Energy          =      -0.4502969731094496 [Eh]
	 Opposite-Spin Energy      =      -1.3753441466567251 [Eh]
	 Correlation Energy        =      -1.8256411197661748 [Eh]
	 Total Energy              =    -437.4096351371767923 [Eh]

	 ================> DF-SCS-MP2 Energies <==================
	-----------------------------------------------------------
	 SCS Same-Spin Scale       =       0.3333333333333333 [-]
	 SCS Opposite-Spin Scale   =       1.2000000000000000 [-]
	 SCS Same-Spin Energy      =      -0.1500989910364832 [Eh]
	 SCS Opposite-Spin Energy  =      -1.6504129759880701 [Eh]
	 SCS Correlation Energy    =      -1.8005119670245533 [Eh]
	 SCS Total Energy          =    -437.3845059844351795 [Eh]
	-----------------------------------------------------------

  Dipole Moment: [D]
     X:     1.0972      Y:    -3.2780      Z:    -0.0000     Total:     3.4567

*** Psi4 exiting successfully. Buy a developer a beer!
