                               Psi4 1.3.2 release

  ==> Input File <==

--------------------------------------------------------------------------
#psi4
#
memory 32 gb

molecule  {
0 1
  O        0.9755400    -1.0764940     0.0000010
  O       -1.3738420     1.6199730     0.0000050
  N       -1.7006930    -0.6600630    -0.0000030
  C        0.5451235     0.2265413    -0.0000040
  C       -0.9336490     0.4655780     0.0000000
  C        1.5816790     1.0895450    -0.0000030
  C        2.7579030     0.2894600     0.0000000
  C        2.3428020    -1.0138960     0.0000040
  C       -3.1488560    -0.5988880     0.0000010
  H        1.5004040     2.1673970    -0.0000090
  H       -1.2325350    -1.5568070    -0.0000080
  H        3.7847070     0.6289700     0.0000040
  H        2.8531580    -1.9656810     0.0000030
  H       -3.4251050     0.4551520     0.0000010
  H       -3.5616590    -1.0800960     0.8913170
  H       -3.5616630    -1.0800960    -0.8913140
units angstrom
no_reorient  #important for SAPT in psi4, default
symmetry c1  #important for SAPT in psi4, default
}

set PROPERTIES_ORIGIN ["COM"]
properties('MP2/aug-cc-pvtz', properties = ['dipole'])
--------------------------------------------------------------------------

    Molecular point group: c1
  Charge       = 0
  Multiplicity = 1
  Basis Set: AUG-CC-PVTZ
    Blend: AUG-CC-PVTZ
  Basis Set: (AUG-CC-PVTZ AUX)
    Blend: AUG-CC-PVTZ-JKFIT

    Orbital Energies [Eh]
    ---------------------

    Doubly Occupied:

       1A    -20.642710     2A    -20.516564     3A    -15.589792
       4A    -11.362026     5A    -11.311004     6A    -11.300581
       7A    -11.259882     8A    -11.248740     9A    -11.247182
      10A     -1.474731    11A     -1.371048    12A     -1.231554
      13A     -1.104953    14A     -1.036779    15A     -0.954201
      16A     -0.837144    17A     -0.820673    18A     -0.775513
      19A     -0.765035    20A     -0.669052    21A     -0.658807
      22A     -0.641792    23A     -0.619093    24A     -0.600377
      25A     -0.589499    26A     -0.576692    27A     -0.561806
      28A     -0.543172    29A     -0.536060    30A     -0.433063
      31A     -0.416012    32A     -0.392087    33A     -0.332832

  @DF-RHF Final Energy:  -435.60264119102493

   => Energetics <=

    Nuclear Repulsion Energy =            429.4484776714280656
    One-Electron Energy =               -1445.2613291129569006
    Two-Electron Energy =                 580.2102102505040193
    Total Energy =                       -435.6026411910248726
  Basis Set: (AUG-CC-PVTZ AUX)
    Blend: AUG-CC-PVTZ-RI
    Molecular point group: c1

    Geometry (in Angstrom), charge = 0, multiplicity = 1:

       Center              X                  Y                   Z               Mass
    ------------   -----------------  -----------------  -----------------  -----------------
         O            0.944487073334    -1.096485477518     0.000000808766    15.994914619570
         O           -1.404894926666     1.599981522482     0.000004808766    15.994914619570
         N           -1.731745926666    -0.680054477518    -0.000003191234    14.003074004430
         C            0.514070573334     0.206549822482    -0.000004191234    12.000000000000
         C           -0.964701926666     0.445586522482    -0.000000191234    12.000000000000
         C            1.550626073334     1.069553522482    -0.000003191234    12.000000000000
         C            2.726850073334     0.269468522482    -0.000000191234    12.000000000000
         C            2.311749073334    -1.033887477518     0.000003808766    12.000000000000
         C           -3.179908926666    -0.618879477518     0.000000808766    12.000000000000
         H            1.469351073334     2.147405522482    -0.000009191234     1.007825032230
         H           -1.263587926666    -1.576798477518    -0.000008191234     1.007825032230
         H            3.753654073334     0.608978522482     0.000003808766     1.007825032230
         H            2.822105073334    -1.985672477518     0.000002808766     1.007825032230
         H           -3.456157926666     0.435160522482     0.000000808766     1.007825032230
         H           -3.592711926666    -1.100087477518     0.891316808766     1.007825032230
         H           -3.592715926666    -1.100087477518    -0.891314191234     1.007825032230

  Basis Set: AUG-CC-PVTZ
    Blend: AUG-CC-PVTZ
  Basis Set: (AUG-CC-PVTZ AUX)
    Blend: AUG-CC-PVTZ-JKFIT
	 Reference Energy          =    -435.6026411910249294 [Eh]
	 Singles Energy            =      -0.0000000000000000 [Eh]
	 Same-Spin Energy          =      -0.4472666313731403 [Eh]
	 Opposite-Spin Energy      =      -1.3706991861679332 [Eh]
	 Correlation Energy        =      -1.8179658175410736 [Eh]
	 Total Energy              =    -437.4206070085659803 [Eh]

	 ================> DF-SCS-MP2 Energies <==================
	-----------------------------------------------------------
	 SCS Same-Spin Scale       =       0.3333333333333333 [-]
	 SCS Opposite-Spin Scale   =       1.2000000000000000 [-]
	 SCS Same-Spin Energy      =      -0.1490888771243801 [Eh]
	 SCS Opposite-Spin Energy  =      -1.6448390234015198 [Eh]
	 SCS Correlation Energy    =      -1.7939279005258999 [Eh]
	 SCS Total Energy          =    -437.3965690915508162 [Eh]
	-----------------------------------------------------------

  Dipole Moment: [D]
     X:     1.0494      Y:    -3.2075      Z:    -0.0000     Total:     3.3748

*** Psi4 exiting successfully. Buy a developer a beer!
