                               Psi4 1.3.2 release

  ==> Input File <==

--------------------------------------------------------------------------
#psi4
#
memory 32 gb

molecule  {
0 1
  O        0.9755400    -1.0764940     0.0000010
  O       -1.3738420     1.6199730     0.0000050
  N       -1.7006930    -0.6600630    -0.0000030
  C        0.5378054     0.2004775    -0.0000038
  C       -0.9336490     0.4655780     0.0000000
  C        1.5816790     1.0895450    -0.0000030
  C        2.7579030     0.2894600     0.0000000
  C        2.3428020    -1.0138960     0.0000040
  C       -3.1488560    -0.5988880     0.0000010
  H        1.5004040     2.1673970    -0.0000090
  H       -1.2325350    -1.5568070    -0.0000080
  H        3.7847070     0.6289700     0.0000040
  H        2.8531580    -1.9656810     0.0000030
  H       -3.4251050     0.4551520     0.0000010
  H       -3.5616590    -1.0800960     0.8913170
  H       -3.5616630    -1.0800960    -0.8913140
units angstrom
no_reorient  #important for SAPT in psi4, default
symmetry c1  #important for SAPT in psi4, default
}

set PROPERTIES_ORIGIN ["COM"]
properties('MP2/aug-cc-pvtz', properties = ['dipole'])
--------------------------------------------------------------------------

    Molecular point group: c1
  Charge       = 0
  Multiplicity = 1
  Basis Set: AUG-CC-PVTZ
    Blend: AUG-CC-PVTZ
  Basis Set: (AUG-CC-PVTZ AUX)
    Blend: AUG-CC-PVTZ-JKFIT

    Orbital Energies [Eh]
    ---------------------

    Doubly Occupied:

       1A    -20.646480     2A    -20.516845     3A    -15.589422
       4A    -11.361685     5A    -11.310556     6A    -11.302152
       7A    -11.259614     8A    -11.249872     9A    -11.248009
      10A     -1.483784    11A     -1.370944    12A     -1.231768
      13A     -1.102258    14A     -1.038138    15A     -0.954042
      16A     -0.837404    17A     -0.822434    18A     -0.775716
      19A     -0.766723    20A     -0.671121    21A     -0.663362
      22A     -0.641663    23A     -0.619408    24A     -0.601605
      25A     -0.588475    26A     -0.579540    27A     -0.559011
      28A     -0.542487    29A     -0.536007    30A     -0.433345
      31A     -0.414380    32A     -0.392123    33A     -0.330081

  @DF-RHF Final Energy:  -435.60225683109206

   => Energetics <=

    Nuclear Repulsion Energy =            429.5888713789745452
    One-Electron Energy =               -1445.5013489435834799
    Two-Electron Energy =                 580.3102207335168714
    Total Energy =                       -435.6022568310920633
  Basis Set: (AUG-CC-PVTZ AUX)
    Blend: AUG-CC-PVTZ-RI
    Molecular point group: c1

    Geometry (in Angstrom), charge = 0, multiplicity = 1:

       Center              X                  Y                   Z               Mass
    ------------   -----------------  -----------------  -----------------  -----------------
         O            0.945189343069    -1.093984306734     0.000000789574    15.994914619570
         O           -1.404192656931     1.602482693266     0.000004789574    15.994914619570
         N           -1.731043656931    -0.677553306734    -0.000003210426    14.003074004430
         C            0.507454743069     0.182987193266    -0.000004010426    12.000000000000
         C           -0.963999656931     0.448087693266    -0.000000210426    12.000000000000
         C            1.551328343069     1.072054693266    -0.000003210426    12.000000000000
         C            2.727552343069     0.271969693266    -0.000000210426    12.000000000000
         C            2.312451343069    -1.031386306734     0.000003789574    12.000000000000
         C           -3.179206656931    -0.616378306734     0.000000789574    12.000000000000
         H            1.470053343069     2.149906693266    -0.000009210426     1.007825032230
         H           -1.262885656931    -1.574297306734    -0.000008210426     1.007825032230
         H            3.754356343069     0.611479693266     0.000003789574     1.007825032230
         H            2.822807343069    -1.983171306734     0.000002789574     1.007825032230
         H           -3.455455656931     0.437661693266     0.000000789574     1.007825032230
         H           -3.592009656931    -1.097586306734     0.891316789574     1.007825032230
         H           -3.592013656931    -1.097586306734    -0.891314210426     1.007825032230

  Basis Set: AUG-CC-PVTZ
    Blend: AUG-CC-PVTZ
  Basis Set: (AUG-CC-PVTZ AUX)
    Blend: AUG-CC-PVTZ-JKFIT
	 Reference Energy          =    -435.6022568310920633 [Eh]
	 Singles Energy            =      -0.0000000000000000 [Eh]
	 Same-Spin Energy          =      -0.4476929874424195 [Eh]
	 Opposite-Spin Energy      =      -1.3709547463856080 [Eh]
	 Correlation Energy        =      -1.8186477338280276 [Eh]
	 Total Energy              =    -437.4209045649200789 [Eh]

	 ================> DF-SCS-MP2 Energies <==================
	-----------------------------------------------------------
	 SCS Same-Spin Scale       =       0.3333333333333333 [-]
	 SCS Opposite-Spin Scale   =       1.2000000000000000 [-]
	 SCS Same-Spin Energy      =      -0.1492309958141398 [Eh]
	 SCS Opposite-Spin Energy  =      -1.6451456956627295 [Eh]
	 SCS Correlation Energy    =      -1.7943766914768693 [Eh]
	 SCS Total Energy          =    -437.3966335225689477 [Eh]
	-----------------------------------------------------------

  Dipole Moment: [D]
     X:     1.0654      Y:    -3.2585      Z:    -0.0000     Total:     3.4283

*** Psi4 exiting successfully. Buy a developer a beer!
