                               Psi4 1.3.2 release

  ==> Input File <==

--------------------------------------------------------------------------
#psi4
#
memory 32 gb

molecule  {
0 1
  O        0.9755400    -1.0764940     0.0000010
  O       -1.3738420     1.6199730     0.0000050
  N       -1.7006930    -0.6600630    -0.0000030
  C        0.5224480     0.2188310    -0.0000040
  C       -0.9336490     0.4655780     0.0000000
  C        1.5816790     1.0895450    -0.0000030
  C        2.7579030     0.2894600     0.0000000
  C        2.5425927    -1.0047489     0.0000044
  C       -3.1488560    -0.5988880     0.0000010
  H        1.5004040     2.1673970    -0.0000090
  H       -1.2325350    -1.5568070    -0.0000080
  H        3.7847070     0.6289700     0.0000040
  H        2.8531580    -1.9656810     0.0000030
  H       -3.4251050     0.4551520     0.0000010
  H       -3.5616590    -1.0800960     0.8913170
  H       -3.5616630    -1.0800960    -0.8913140
units angstrom
no_reorient  #important for SAPT in psi4, default
symmetry c1  #important for SAPT in psi4, default
}

set PROPERTIES_ORIGIN ["COM"]
properties('MP2/aug-cc-pvtz', properties = ['dipole'])
--------------------------------------------------------------------------

    Molecular point group: c1
  Charge       = 0
  Multiplicity = 1
  Basis Set: AUG-CC-PVTZ
    Blend: AUG-CC-PVTZ
  Basis Set: (AUG-CC-PVTZ AUX)
    Blend: AUG-CC-PVTZ-JKFIT

    Orbital Energies [Eh]
    ---------------------

    Doubly Occupied:

       1A    -20.611035     2A    -20.519535     3A    -15.589846
       4A    -11.362056     5A    -11.309798     6A    -11.309293
       7A    -11.259581     8A    -11.258492     9A    -11.246900
      10A     -1.410630    11A     -1.370995    12A     -1.231415
      13A     -1.105165    14A     -1.033194    15A     -0.959081
      16A     -0.851544    17A     -0.813667    18A     -0.774052
      19A     -0.749126    20A     -0.666650    21A     -0.643114
      22A     -0.634286    23A     -0.614473    24A     -0.605445
      25A     -0.583859    26A     -0.569906    27A     -0.549504
      28A     -0.533655    29A     -0.528942    30A     -0.435278
      31A     -0.423919    32A     -0.391457    33A     -0.337177

  @DF-RHF Final Energy:  -435.56668682515686

   => Energetics <=

    Nuclear Repulsion Energy =            426.1935485852774832
    One-Electron Energy =               -1438.9543314405582350
    Two-Electron Energy =                 577.1940960301238874
    Total Energy =                       -435.5666868251568076
  Basis Set: (AUG-CC-PVTZ AUX)
    Blend: AUG-CC-PVTZ-RI
    Molecular point group: c1

    Geometry (in Angstrom), charge = 0, multiplicity = 1:

       Center              X                  Y                   Z               Mass
    ------------   -----------------  -----------------  -----------------  -----------------
         O            0.927490497100    -1.096623357726     0.000000770381    15.994914619570
         O           -1.421891502900     1.599843642274     0.000004770381    15.994914619570
         N           -1.748742502900    -0.680192357726    -0.000003229619    14.003074004430
         C            0.474398497100     0.198701642274    -0.000004229619    12.000000000000
         C           -0.981698502900     0.445448642274    -0.000000229619    12.000000000000
         C            1.533629497100     1.069415642274    -0.000003229619    12.000000000000
         C            2.709853497100     0.269330642274    -0.000000229619    12.000000000000
         C            2.494543197100    -1.024878257726     0.000004170381    12.000000000000
         C           -3.196905502900    -0.619017357726     0.000000770381    12.000000000000
         H            1.452354497100     2.147267642274    -0.000009229619     1.007825032230
         H           -1.280584502900    -1.576936357726    -0.000008229619     1.007825032230
         H            3.736657497100     0.608840642274     0.000003770381     1.007825032230
         H            2.805108497100    -1.985810357726     0.000002770381     1.007825032230
         H           -3.473154502900     0.435022642274     0.000000770381     1.007825032230
         H           -3.609708502900    -1.100225357726     0.891316770381     1.007825032230
         H           -3.609712502900    -1.100225357726    -0.891314229619     1.007825032230

  Basis Set: AUG-CC-PVTZ
    Blend: AUG-CC-PVTZ
  Basis Set: (AUG-CC-PVTZ AUX)
    Blend: AUG-CC-PVTZ-JKFIT
	 Reference Energy          =    -435.5666868251568644 [Eh]
	 Singles Energy            =      -0.0000000000000000 [Eh]
	 Same-Spin Energy          =      -0.4482512271560108 [Eh]
	 Opposite-Spin Energy      =      -1.3759480811683744 [Eh]
	 Correlation Energy        =      -1.8241993083243853 [Eh]
	 Total Energy              =    -437.3908861334812741 [Eh]

	 ================> DF-SCS-MP2 Energies <==================
	-----------------------------------------------------------
	 SCS Same-Spin Scale       =       0.3333333333333333 [-]
	 SCS Opposite-Spin Scale   =       1.2000000000000000 [-]
	 SCS Same-Spin Energy      =      -0.1494170757186703 [Eh]
	 SCS Opposite-Spin Energy  =      -1.6511376974020493 [Eh]
	 SCS Correlation Energy    =      -1.8005547731207197 [Eh]
	 SCS Total Energy          =    -437.3672415982775874 [Eh]
	-----------------------------------------------------------

  Dipole Moment: [D]
     X:     1.3521      Y:    -3.1396      Z:    -0.0000     Total:     3.4183

*** Psi4 exiting successfully. Buy a developer a beer!
