                               Psi4 1.3.2 release

  ==> Input File <==

--------------------------------------------------------------------------
#psi4
#
memory 32 gb

molecule  {
0 1
  O        0.9746558    -1.0526225     0.0000009
  O       -1.3738420     1.6199730     0.0000050
  N       -1.7006930    -0.6600630    -0.0000030
  C        0.5224480     0.2188310    -0.0000040
  C       -0.9336490     0.4655780     0.0000000
  C        1.5816790     1.0895450    -0.0000030
  C        2.7579030     0.2894600     0.0000000
  C        2.3428020    -1.0138960     0.0000040
  C       -3.1488560    -0.5988880     0.0000010
  H        1.5004040     2.1673970    -0.0000090
  H       -1.2325350    -1.5568070    -0.0000080
  H        3.7847070     0.6289700     0.0000040
  H        2.8531580    -1.9656810     0.0000030
  H       -3.4251050     0.4551520     0.0000010
  H       -3.5616590    -1.0800960     0.8913170
  H       -3.5616630    -1.0800960    -0.8913140
units angstrom
no_reorient  #important for SAPT in psi4, default
symmetry c1  #important for SAPT in psi4, default
}

set PROPERTIES_ORIGIN ["COM"]
properties('MP2/aug-cc-pvtz', properties = ['dipole'])
--------------------------------------------------------------------------

    Molecular point group: c1
  Charge       = 0
  Multiplicity = 1
  Basis Set: AUG-CC-PVTZ
    Blend: AUG-CC-PVTZ
  Basis Set: (AUG-CC-PVTZ AUX)
    Blend: AUG-CC-PVTZ-JKFIT

    Orbital Energies [Eh]
    ---------------------

    Doubly Occupied:

       1A    -20.643728     2A    -20.516136     3A    -15.589475
       4A    -11.360533     5A    -11.311471     6A    -11.300297
       7A    -11.259700     8A    -11.249595     9A    -11.247720
      10A     -1.482301    11A     -1.371253    12A     -1.231850
      13A     -1.099680    14A     -1.041711    15A     -0.954780
      16A     -0.840866    17A     -0.821705    18A     -0.775372
      19A     -0.766276    20A     -0.674952    21A     -0.662921
      22A     -0.641972    23A     -0.619272    24A     -0.601263
      25A     -0.584553    26A     -0.578039    27A     -0.560763
      28A     -0.542163    29A     -0.536322    30A     -0.434117
      31A     -0.412725    32A     -0.391910    33A     -0.330746

  @DF-RHF Final Energy:  -435.60268509830109

   => Energetics <=

    Nuclear Repulsion Energy =            430.0801039152488556
    One-Electron Energy =               -1446.4932416604458467
    Two-Electron Energy =                 580.8104526468958966
    Total Energy =                       -435.6026850983010945
  Basis Set: (AUG-CC-PVTZ AUX)
    Blend: AUG-CC-PVTZ-RI
    Molecular point group: c1

    Geometry (in Angstrom), charge = 0, multiplicity = 1:

       Center              X                  Y                   Z               Mass
    ------------   -----------------  -----------------  -----------------  -----------------
         O            0.945891989830    -1.074927487116     0.000000721557    15.994914619570
         O           -1.402605810170     1.597668012884     0.000004821557    15.994914619570
         N           -1.729456810170    -0.682367987116    -0.000003178443    14.003074004430
         C            0.493684189830     0.196526012884    -0.000004178443    12.000000000000
         C           -0.962412810170     0.443273012884    -0.000000178443    12.000000000000
         C            1.552915189830     1.067240012884    -0.000003178443    12.000000000000
         C            2.729139189830     0.267155012884    -0.000000178443    12.000000000000
         C            2.314038189830    -1.036200987116     0.000003821557    12.000000000000
         C           -3.177619810170    -0.621192987116     0.000000821557    12.000000000000
         H            1.471640189830     2.145092012884    -0.000009178443     1.007825032230
         H           -1.261298810170    -1.579111987116    -0.000008178443     1.007825032230
         H            3.755943189830     0.606665012884     0.000003821557     1.007825032230
         H            2.824394189830    -1.987985987116     0.000002821557     1.007825032230
         H           -3.453868810170     0.432847012884     0.000000821557     1.007825032230
         H           -3.590422810170    -1.102400987116     0.891316821557     1.007825032230
         H           -3.590426810170    -1.102400987116    -0.891314178443     1.007825032230

  Basis Set: AUG-CC-PVTZ
    Blend: AUG-CC-PVTZ
  Basis Set: (AUG-CC-PVTZ AUX)
    Blend: AUG-CC-PVTZ-JKFIT
	 Reference Energy          =    -435.6026850983010945 [Eh]
	 Singles Energy            =      -0.0000000000000000 [Eh]
	 Same-Spin Energy          =      -0.4478267909090070 [Eh]
	 Opposite-Spin Energy      =      -1.3708617970896040 [Eh]
	 Correlation Energy        =      -1.8186885879986110 [Eh]
	 Total Energy              =    -437.4213736862997166 [Eh]

	 ================> DF-SCS-MP2 Energies <==================
	-----------------------------------------------------------
	 SCS Same-Spin Scale       =       0.3333333333333333 [-]
	 SCS Opposite-Spin Scale   =       1.2000000000000000 [-]
	 SCS Same-Spin Energy      =      -0.1492755969696690 [Eh]
	 SCS Opposite-Spin Energy  =      -1.6450341565075248 [Eh]
	 SCS Correlation Energy    =      -1.7943097534771939 [Eh]
	 SCS Total Energy          =    -437.3969948517782882 [Eh]
	-----------------------------------------------------------

  Dipole Moment: [D]
     X:     1.0770      Y:    -3.3096      Z:    -0.0000     Total:     3.4804

*** Psi4 exiting successfully. Buy a developer a beer!
