                               Psi4 1.3.2 release

  ==> Input File <==

--------------------------------------------------------------------------
#psi4
#
memory 32 gb

molecule  {
0 1
  O        0.9755400    -1.0764940     0.0000010
  O       -1.3738420     1.6199730     0.0000050
  N       -1.7006930    -0.6600630    -0.0000030
  C        0.5224480     0.2188310    -0.0000040
  C       -0.9336490     0.4655780     0.0000000
  C        1.5816790     1.0895450    -0.0000030
  C        2.8108489     0.3734582    -0.0000005
  C        2.3428020    -1.0138960     0.0000040
  C       -3.1488560    -0.5988880     0.0000010
  H        1.5004040     2.1673970    -0.0000090
  H       -1.2325350    -1.5568070    -0.0000080
  H        3.7847070     0.6289700     0.0000040
  H        2.8531580    -1.9656810     0.0000030
  H       -3.4251050     0.4551520     0.0000010
  H       -3.5616590    -1.0800960     0.8913170
  H       -3.5616630    -1.0800960    -0.8913140
units angstrom
no_reorient  #important for SAPT in psi4, default
symmetry c1  #important for SAPT in psi4, default
}

set PROPERTIES_ORIGIN ["COM"]
properties('MP2/aug-cc-pvtz', properties = ['dipole'])
--------------------------------------------------------------------------

    Molecular point group: c1
  Charge       = 0
  Multiplicity = 1
  Basis Set: AUG-CC-PVTZ
    Blend: AUG-CC-PVTZ
  Basis Set: (AUG-CC-PVTZ AUX)
    Blend: AUG-CC-PVTZ-JKFIT

    Orbital Energies [Eh]
    ---------------------

    Doubly Occupied:

       1A    -20.652582     2A    -20.514597     3A    -15.588534
       4A    -11.360225     5A    -11.328641     6A    -11.300023
       7A    -11.259171     8A    -11.256016     9A    -11.254957
      10A     -1.476817    11A     -1.370156    12A     -1.230997
      13A     -1.095506    14A     -1.033800    15A     -0.951591
      16A     -0.839304    17A     -0.830378    18A     -0.774356
      19A     -0.767526    20A     -0.672056    21A     -0.658743
      22A     -0.648402    23A     -0.618324    24A     -0.616588
      25A     -0.584319    26A     -0.581189    27A     -0.550707
      28A     -0.540550    29A     -0.535808    30A     -0.433006
      31A     -0.411582    32A     -0.391610    33A     -0.321185

  @DF-RHF Final Energy:  -435.58418309658310

   => Energetics <=

    Nuclear Repulsion Energy =            427.8159767265410096
    One-Electron Energy =               -1441.9018270204069267
    Two-Electron Energy =                 578.5016671972826998
    Total Energy =                       -435.5841830965831605
  Basis Set: (AUG-CC-PVTZ AUX)
    Blend: AUG-CC-PVTZ-RI
    Molecular point group: c1

    Geometry (in Angstrom), charge = 0, multiplicity = 1:

       Center              X                  Y                   Z               Mass
    ------------   -----------------  -----------------  -----------------  -----------------
         O            0.941582222925    -1.103806323544     0.000000856748    15.994914619570
         O           -1.407799777075     1.592660676456     0.000004856748    15.994914619570
         N           -1.734650777075    -0.687375323544    -0.000003143252    14.003074004430
         C            0.488490222925     0.191518676456    -0.000004143252    12.000000000000
         C           -0.967606777075     0.438265676456    -0.000000143252    12.000000000000
         C            1.547721222925     1.062232676456    -0.000003143252    12.000000000000
         C            2.776891122925     0.346145876456    -0.000000643252    12.000000000000
         C            2.308844222925    -1.041208323544     0.000003856748    12.000000000000
         C           -3.182813777075    -0.626200323544     0.000000856748    12.000000000000
         H            1.466446222925     2.140084676456    -0.000009143252     1.007825032230
         H           -1.266492777075    -1.584119323544    -0.000008143252     1.007825032230
         H            3.750749222925     0.601657676456     0.000003856748     1.007825032230
         H            2.819200222925    -1.992993323544     0.000002856748     1.007825032230
         H           -3.459062777075     0.427839676456     0.000000856748     1.007825032230
         H           -3.595616777075    -1.107408323544     0.891316856748     1.007825032230
         H           -3.595620777075    -1.107408323544    -0.891314143252     1.007825032230

  Basis Set: AUG-CC-PVTZ
    Blend: AUG-CC-PVTZ
  Basis Set: (AUG-CC-PVTZ AUX)
    Blend: AUG-CC-PVTZ-JKFIT
	 Reference Energy          =    -435.5841830965831036 [Eh]
	 Singles Energy            =      -0.0000000000000000 [Eh]
	 Same-Spin Energy          =      -0.4493435541264527 [Eh]
	 Opposite-Spin Energy      =      -1.3745515930473005 [Eh]
	 Correlation Energy        =      -1.8238951471737530 [Eh]
	 Total Energy              =    -437.4080782437568473 [Eh]

	 ================> DF-SCS-MP2 Energies <==================
	-----------------------------------------------------------
	 SCS Same-Spin Scale       =       0.3333333333333333 [-]
	 SCS Opposite-Spin Scale   =       1.2000000000000000 [-]
	 SCS Same-Spin Energy      =      -0.1497811847088175 [Eh]
	 SCS Opposite-Spin Energy  =      -1.6494619116567606 [Eh]
	 SCS Correlation Energy    =      -1.7992430963655781 [Eh]
	 SCS Total Energy          =    -437.3834261929486615 [Eh]
	-----------------------------------------------------------

  Dipole Moment: [D]
     X:     1.0829      Y:    -3.2519      Z:    -0.0000     Total:     3.4275

*** Psi4 exiting successfully. Buy a developer a beer!
