                               Psi4 1.3.2 release

  ==> Input File <==

--------------------------------------------------------------------------
#psi4
#
memory 32 gb

molecule  {
0 1
  O        0.9745040    -0.9809661     0.0000006
  O       -1.3738420     1.6199730     0.0000050
  N       -1.7006930    -0.6600630    -0.0000030
  C        0.5224480     0.2188310    -0.0000040
  C       -0.9336490     0.4655780     0.0000000
  C        1.5816790     1.0895450    -0.0000030
  C        2.7579030     0.2894600     0.0000000
  C        2.3428020    -1.0138960     0.0000040
  C       -3.1488560    -0.5988880     0.0000010
  H        1.5004040     2.1673970    -0.0000090
  H       -1.2325350    -1.5568070    -0.0000080
  H        3.7847070     0.6289700     0.0000040
  H        2.8531580    -1.9656810     0.0000030
  H       -3.4251050     0.4551520     0.0000010
  H       -3.5616590    -1.0800960     0.8913170
  H       -3.5616630    -1.0800960    -0.8913140
units angstrom
no_reorient  #important for SAPT in psi4, default
symmetry c1  #important for SAPT in psi4, default
}

set PROPERTIES_ORIGIN ["COM"]
properties('MP2/aug-cc-pvtz', properties = ['dipole'])
--------------------------------------------------------------------------

    Molecular point group: c1
  Charge       = 0
  Multiplicity = 1
  Basis Set: AUG-CC-PVTZ
    Blend: AUG-CC-PVTZ
  Basis Set: (AUG-CC-PVTZ AUX)
    Blend: AUG-CC-PVTZ-JKFIT

    Orbital Energies [Eh]
    ---------------------

    Doubly Occupied:

       1A    -20.643929     2A    -20.517273     3A    -15.591128
       4A    -11.360918     5A    -11.308013     6A    -11.297223
       7A    -11.260770     8A    -11.247061     9A    -11.239911
      10A     -1.508663    11A     -1.372195    12A     -1.233303
      13A     -1.095151    14A     -1.050128    15A     -0.957770
      16A     -0.840819    17A     -0.828210    18A     -0.775661
      19A     -0.770436    20A     -0.684887    21A     -0.677172
      22A     -0.642789    23A     -0.621085    24A     -0.602679
      25A     -0.580388    26A     -0.576545    27A     -0.557401
      28A     -0.541066    29A     -0.536559    30A     -0.434905
      31A     -0.408356    32A     -0.392357    33A     -0.329437

  @DF-RHF Final Energy:  -435.59761447831420

   => Energetics <=

    Nuclear Repulsion Energy =            432.0418377671049370
    One-Electron Energy =               -1450.3105283661766407
    Two-Electron Energy =                 582.6710761207575615
    Total Energy =                       -435.5976144783141990
  Basis Set: (AUG-CC-PVTZ AUX)
    Blend: AUG-CC-PVTZ-RI
    Molecular point group: c1

    Geometry (in Angstrom), charge = 0, multiplicity = 1:

       Center              X                  Y                   Z               Mass
    ------------   -----------------  -----------------  -----------------  -----------------
         O            0.945759606648    -1.012436695098     0.000000459931    15.994914619570
         O           -1.402586393352     1.588502404902     0.000004859931    15.994914619570
         N           -1.729437393352    -0.691533595098    -0.000003140069    14.003074004430
         C            0.493703606648     0.187360404902    -0.000004140069    12.000000000000
         C           -0.962393393352     0.434107404902    -0.000000140069    12.000000000000
         C            1.552934606648     1.058074404902    -0.000003140069    12.000000000000
         C            2.729158606648     0.257989404902    -0.000000140069    12.000000000000
         C            2.314057606648    -1.045366595098     0.000003859931    12.000000000000
         C           -3.177600393352    -0.630358595098     0.000000859931    12.000000000000
         H            1.471659606648     2.135926404902    -0.000009140069     1.007825032230
         H           -1.261279393352    -1.588277595098    -0.000008140069     1.007825032230
         H            3.755962606648     0.597499404902     0.000003859931     1.007825032230
         H            2.824413606648    -1.997151595098     0.000002859931     1.007825032230
         H           -3.453849393352     0.423681404902     0.000000859931     1.007825032230
         H           -3.590403393352    -1.111566595098     0.891316859931     1.007825032230
         H           -3.590407393352    -1.111566595098    -0.891314140069     1.007825032230

  Basis Set: AUG-CC-PVTZ
    Blend: AUG-CC-PVTZ
  Basis Set: (AUG-CC-PVTZ AUX)
    Blend: AUG-CC-PVTZ-JKFIT
	 Reference Energy          =    -435.5976144783141990 [Eh]
	 Singles Energy            =      -0.0000000000000000 [Eh]
	 Same-Spin Energy          =      -0.4479466944782631 [Eh]
	 Opposite-Spin Energy      =      -1.3693873375675896 [Eh]
	 Correlation Energy        =      -1.8173340320458526 [Eh]
	 Total Energy              =    -437.4149485103600341 [Eh]

	 ================> DF-SCS-MP2 Energies <==================
	-----------------------------------------------------------
	 SCS Same-Spin Scale       =       0.3333333333333333 [-]
	 SCS Opposite-Spin Scale   =       1.2000000000000000 [-]
	 SCS Same-Spin Energy      =      -0.1493155648260877 [Eh]
	 SCS Opposite-Spin Energy  =      -1.6432648050811074 [Eh]
	 SCS Correlation Energy    =      -1.7925803699071952 [Eh]
	 SCS Total Energy          =    -437.3901948482213697 [Eh]
	-----------------------------------------------------------

  Dipole Moment: [D]
     X:     1.0106      Y:    -3.5322      Z:    -0.0000     Total:     3.6739

*** Psi4 exiting successfully. Buy a developer a beer!
