                               Psi4 1.3.2 release

  ==> Input File <==

--------------------------------------------------------------------------
#psi4
#
memory 32 gb

molecule  {
0 1
  O        0.9755400    -1.0764940     0.0000010
  O       -1.3738420     1.6199730     0.0000050
  N       -1.7006930    -0.6600630    -0.0000030
  C        0.5224480     0.2188310    -0.0000040
  C       -0.9336490     0.4655780     0.0000000
  C        1.5816790     1.0895450    -0.0000030
  C        2.7579030     0.2894600     0.0000000
  C        2.2429066    -1.0184696     0.0000038
  C       -3.1488560    -0.5988880     0.0000010
  H        1.5004040     2.1673970    -0.0000090
  H       -1.2325350    -1.5568070    -0.0000080
  H        3.7847070     0.6289700     0.0000040
  H        2.8531580    -1.9656810     0.0000030
  H       -3.4251050     0.4551520     0.0000010
  H       -3.5616590    -1.0800960     0.8913170
  H       -3.5616630    -1.0800960    -0.8913140
units angstrom
no_reorient  #important for SAPT in psi4, default
symmetry c1  #important for SAPT in psi4, default
}

set PROPERTIES_ORIGIN ["COM"]
properties('MP2/aug-cc-pvtz', properties = ['dipole'])
--------------------------------------------------------------------------

    Molecular point group: c1
  Charge       = 0
  Multiplicity = 1
  Basis Set: AUG-CC-PVTZ
    Blend: AUG-CC-PVTZ
  Basis Set: (AUG-CC-PVTZ AUX)
    Blend: AUG-CC-PVTZ-JKFIT

    Orbital Energies [Eh]
    ---------------------

    Doubly Occupied:

       1A    -20.660050     2A    -20.513151     3A    -15.587899
       4A    -11.358912     5A    -11.320354     6A    -11.295743
       7A    -11.258907     8A    -11.255423     9A    -11.243964
      10A     -1.522708    11A     -1.369486    12A     -1.230868
      13A     -1.103456    14A     -1.043052    15A     -0.951551
      16A     -0.834935    17A     -0.832807    18A     -0.780026
      19A     -0.771260    20A     -0.683722    21A     -0.677225
      22A     -0.640634    23A     -0.620521    24A     -0.609941
      25A     -0.594963    26A     -0.572340    27A     -0.548356
      28A     -0.536992    29A     -0.536485    30A     -0.431760
      31A     -0.412943    32A     -0.391747    33A     -0.324406

  @DF-RHF Final Energy:  -435.59379144752319

   => Energetics <=

    Nuclear Repulsion Energy =            431.2833750024553296
    One-Electron Energy =               -1448.7211544405015502
    Two-Electron Energy =                 581.8439879905229191
    Total Energy =                       -435.5937914475232446
  Basis Set: (AUG-CC-PVTZ AUX)
    Blend: AUG-CC-PVTZ-RI
    Molecular point group: c1

    Geometry (in Angstrom), charge = 0, multiplicity = 1:

       Center              X                  Y                   Z               Mass
    ------------   -----------------  -----------------  -----------------  -----------------
         O            0.956249393259    -1.095306672747     0.000000827959    15.994914619570
         O           -1.393132606741     1.601160327253     0.000004827959    15.994914619570
         N           -1.719983606741    -0.678875672747    -0.000003172041    14.003074004430
         C            0.503157393259     0.200018327253    -0.000004172041    12.000000000000
         C           -0.952939606741     0.446765327253    -0.000000172041    12.000000000000
         C            1.562388393259     1.070732327253    -0.000003172041    12.000000000000
         C            2.738612393259     0.270647327253    -0.000000172041    12.000000000000
         C            2.223615993259    -1.037282272747     0.000003627959    12.000000000000
         C           -3.168146606741    -0.617700672747     0.000000827959    12.000000000000
         H            1.481113393259     2.148584327253    -0.000009172041     1.007825032230
         H           -1.251825606741    -1.575619672747    -0.000008172041     1.007825032230
         H            3.765416393259     0.610157327253     0.000003827959     1.007825032230
         H            2.833867393259    -1.984493672747     0.000002827959     1.007825032230
         H           -3.444395606741     0.436339327253     0.000000827959     1.007825032230
         H           -3.580949606741    -1.098908672747     0.891316827959     1.007825032230
         H           -3.580953606741    -1.098908672747    -0.891314172041     1.007825032230

  Basis Set: AUG-CC-PVTZ
    Blend: AUG-CC-PVTZ
  Basis Set: (AUG-CC-PVTZ AUX)
    Blend: AUG-CC-PVTZ-JKFIT
	 Reference Energy          =    -435.5937914475231878 [Eh]
	 Singles Energy            =      -0.0000000000000000 [Eh]
	 Same-Spin Energy          =      -0.4478990699688388 [Eh]
	 Opposite-Spin Energy      =      -1.3693393648524854 [Eh]
	 Correlation Energy        =      -1.8172384348213242 [Eh]
	 Total Energy              =    -437.4110298823445078 [Eh]

	 ================> DF-SCS-MP2 Energies <==================
	-----------------------------------------------------------
	 SCS Same-Spin Scale       =       0.3333333333333333 [-]
	 SCS Opposite-Spin Scale   =       1.2000000000000000 [-]
	 SCS Same-Spin Energy      =      -0.1492996899896129 [Eh]
	 SCS Opposite-Spin Energy  =      -1.6432072378229825 [Eh]
	 SCS Correlation Energy    =      -1.7925069278125954 [Eh]
	 SCS Total Energy          =    -437.3862983753357980 [Eh]
	-----------------------------------------------------------

  Dipole Moment: [D]
     X:     0.9852      Y:    -3.3115      Z:    -0.0000     Total:     3.4549

*** Psi4 exiting successfully. Buy a developer a beer!
