                               Psi4 1.3.2 release

  ==> Input File <==

--------------------------------------------------------------------------
#psi4
#
memory 32 gb

molecule  {
0 1
  O        0.9755400    -1.0764940     0.0000010
  O       -1.3738420     1.6199730     0.0000050
  N       -1.7006930    -0.6600630    -0.0000030
  C        0.5224480     0.2188310    -0.0000040
  C       -0.9336490     0.4655780     0.0000000
  C        1.5816790     1.0895450    -0.0000030
  C        2.7579030     0.2894600     0.0000000
  C        2.4813138    -1.0501459     0.0000049
  C       -3.1488560    -0.5988880     0.0000010
  H        1.5004040     2.1673970    -0.0000090
  H       -1.2325350    -1.5568070    -0.0000080
  H        3.7847070     0.6289700     0.0000040
  H        2.8531580    -1.9656810     0.0000030
  H       -3.4251050     0.4551520     0.0000010
  H       -3.5616590    -1.0800960     0.8913170
  H       -3.5616630    -1.0800960    -0.8913140
units angstrom
no_reorient  #important for SAPT in psi4, default
symmetry c1  #important for SAPT in psi4, default
}

set PROPERTIES_ORIGIN ["COM"]
properties('MP2/aug-cc-pvtz', properties = ['dipole'])
--------------------------------------------------------------------------

    Molecular point group: c1
  Charge       = 0
  Multiplicity = 1
  Basis Set: AUG-CC-PVTZ
    Blend: AUG-CC-PVTZ
  Basis Set: (AUG-CC-PVTZ AUX)
    Blend: AUG-CC-PVTZ-JKFIT

    Orbital Energies [Eh]
    ---------------------

    Doubly Occupied:

       1A    -20.623072     2A    -20.519398     3A    -15.590160
       4A    -11.362598     5A    -11.310834     6A    -11.309099
       7A    -11.261145     8A    -11.259933     9A    -11.249220
      10A     -1.426384    11A     -1.372305    12A     -1.232001
      13A     -1.096076    14A     -1.034850    15A     -0.957688
      16A     -0.852314    17A     -0.816000    18A     -0.774504
      19A     -0.752367    20A     -0.675891    21A     -0.642894
      22A     -0.638538    23A     -0.610776    24A     -0.608931
      25A     -0.586183    26A     -0.569679    27A     -0.554900
      28A     -0.537477    29A     -0.535017    30A     -0.436143
      31A     -0.415191    32A     -0.391936    33A     -0.333767

  @DF-RHF Final Energy:  -435.57589020026802

   => Energetics <=

    Nuclear Repulsion Energy =            426.5339136841091658
    One-Electron Energy =               -1439.5450691445219036
    Two-Electron Energy =                 577.4352652601446607
    Total Energy =                       -435.5758902002680770
  Basis Set: (AUG-CC-PVTZ AUX)
    Blend: AUG-CC-PVTZ-RI
    Molecular point group: c1

    Geometry (in Angstrom), charge = 0, multiplicity = 1:

       Center              X                  Y                   Z               Mass
    ------------   -----------------  -----------------  -----------------  -----------------
         O            0.933371028502    -1.092266907397     0.000000722399    15.994914619570
         O           -1.416010971498     1.604200092603     0.000004722399    15.994914619570
         N           -1.742861971498    -0.675835907397    -0.000003277601    14.003074004430
         C            0.480279028502     0.203058092603    -0.000004277601    12.000000000000
         C           -0.975817971498     0.449805092603    -0.000000277601    12.000000000000
         C            1.539510028502     1.073772092603    -0.000003277601    12.000000000000
         C            2.715734028502     0.273687092603    -0.000000277601    12.000000000000
         C            2.439144828502    -1.065918807397     0.000004622399    12.000000000000
         C           -3.191024971498    -0.614660907397     0.000000722399    12.000000000000
         H            1.458235028502     2.151624092603    -0.000009277601     1.007825032230
         H           -1.274703971498    -1.572579907397    -0.000008277601     1.007825032230
         H            3.742538028502     0.613197092603     0.000003722399     1.007825032230
         H            2.810989028502    -1.981453907397     0.000002722399     1.007825032230
         H           -3.467273971498     0.439379092603     0.000000722399     1.007825032230
         H           -3.603827971498    -1.095868907397     0.891316722399     1.007825032230
         H           -3.603831971498    -1.095868907397    -0.891314277601     1.007825032230

  Basis Set: AUG-CC-PVTZ
    Blend: AUG-CC-PVTZ
  Basis Set: (AUG-CC-PVTZ AUX)
    Blend: AUG-CC-PVTZ-JKFIT
	 Reference Energy          =    -435.5758902002680202 [Eh]
	 Singles Energy            =      -0.0000000000000000 [Eh]
	 Same-Spin Energy          =      -0.4485928029026321 [Eh]
	 Opposite-Spin Energy      =      -1.3757611519832611 [Eh]
	 Correlation Energy        =      -1.8243539548858931 [Eh]
	 Total Energy              =    -437.4002441551539277 [Eh]

	 ================> DF-SCS-MP2 Energies <==================
	-----------------------------------------------------------
	 SCS Same-Spin Scale       =       0.3333333333333333 [-]
	 SCS Opposite-Spin Scale   =       1.2000000000000000 [-]
	 SCS Same-Spin Energy      =      -0.1495309343008774 [Eh]
	 SCS Opposite-Spin Energy  =      -1.6509133823799134 [Eh]
	 SCS Correlation Energy    =      -1.8004443166807906 [Eh]
	 SCS Total Energy          =    -437.3763345169488161 [Eh]
	-----------------------------------------------------------

  Dipole Moment: [D]
     X:     1.2039      Y:    -3.1795      Z:    -0.0000     Total:     3.3998

*** Psi4 exiting successfully. Buy a developer a beer!
