                               Psi4 1.3.2 release

  ==> Input File <==

--------------------------------------------------------------------------
#psi4
#
memory 32 gb

molecule  {
0 1
  O        0.9755400    -1.0764940     0.0000010
  O       -1.3738420     1.6199730     0.0000050
  N       -1.7006930    -0.6600630    -0.0000030
  C        0.5224480     0.2188310    -0.0000040
  C       -0.9336490     0.4655780     0.0000000
  C        1.5816790     1.0895450    -0.0000030
  C        2.7579030     0.2894600     0.0000000
  C        2.2821086    -1.2044644     0.0000046
  C       -3.1488560    -0.5988880     0.0000010
  H        1.5004040     2.1673970    -0.0000090
  H       -1.2325350    -1.5568070    -0.0000080
  H        3.7847070     0.6289700     0.0000040
  H        2.8531580    -1.9656810     0.0000030
  H       -3.4251050     0.4551520     0.0000010
  H       -3.5616590    -1.0800960     0.8913170
  H       -3.5616630    -1.0800960    -0.8913140
units angstrom
no_reorient  #important for SAPT in psi4, default
symmetry c1  #important for SAPT in psi4, default
}

set PROPERTIES_ORIGIN ["COM"]
properties('MP2/aug-cc-pvtz', properties = ['dipole'])
--------------------------------------------------------------------------

    Molecular point group: c1
  Charge       = 0
  Multiplicity = 1
  Basis Set: AUG-CC-PVTZ
    Blend: AUG-CC-PVTZ
  Basis Set: (AUG-CC-PVTZ AUX)
    Blend: AUG-CC-PVTZ-JKFIT

    Orbital Energies [Eh]
    ---------------------

    Doubly Occupied:

       1A    -20.661681     2A    -20.516081     3A    -15.588609
       4A    -11.361662     5A    -11.328204     6A    -11.302229
       7A    -11.262251     8A    -11.259513     9A    -11.255182
      10A     -1.496692    11A     -1.371722    12A     -1.231700
      13A     -1.088585    14A     -1.037104    15A     -0.954873
      16A     -0.857190    17A     -0.817403    18A     -0.783263
      19A     -0.766057    20A     -0.720205    21A     -0.668900
      22A     -0.640725    23A     -0.620098    24A     -0.609805
      25A     -0.593798    26A     -0.565374    27A     -0.546528
      28A     -0.537777    29A     -0.521406    30A     -0.434945
      31A     -0.404684    32A     -0.392557    33A     -0.310077

  @DF-RHF Final Energy:  -435.54591138937298

   => Energetics <=

    Nuclear Repulsion Energy =            427.8623818175199176
    One-Electron Energy =               -1441.8028223598741988
    Two-Electron Energy =                 578.3945291529812494
    Total Energy =                       -435.5459113893730319
  Basis Set: (AUG-CC-PVTZ AUX)
    Blend: AUG-CC-PVTZ-RI
    Molecular point group: c1

    Geometry (in Angstrom), charge = 0, multiplicity = 1:

       Center              X                  Y                   Z               Mass
    ------------   -----------------  -----------------  -----------------  -----------------
         O            0.952487436174    -1.077457979933     0.000000751188    15.994914619570
         O           -1.396894563826     1.619009020067     0.000004751188    15.994914619570
         N           -1.723745563826    -0.661026979933    -0.000003248812    14.003074004430
         C            0.499395436174     0.217867020067    -0.000004248812    12.000000000000
         C           -0.956701563826     0.464614020067    -0.000000248812    12.000000000000
         C            1.558626436174     1.088581020067    -0.000003248812    12.000000000000
         C            2.734850436174     0.288496020067    -0.000000248812    12.000000000000
         C            2.259056036174    -1.205428379933     0.000004351188    12.000000000000
         C           -3.171908563826    -0.599851979933     0.000000751188    12.000000000000
         H            1.477351436174     2.166433020067    -0.000009248812     1.007825032230
         H           -1.255587563826    -1.557770979933    -0.000008248812     1.007825032230
         H            3.761654436174     0.628006020067     0.000003751188     1.007825032230
         H            2.830105436174    -1.966644979933     0.000002751188     1.007825032230
         H           -3.448157563826     0.454188020067     0.000000751188     1.007825032230
         H           -3.584711563826    -1.081059979933     0.891316751188     1.007825032230
         H           -3.584715563826    -1.081059979933    -0.891314248812     1.007825032230

  Basis Set: AUG-CC-PVTZ
    Blend: AUG-CC-PVTZ
  Basis Set: (AUG-CC-PVTZ AUX)
    Blend: AUG-CC-PVTZ-JKFIT
	 Reference Energy          =    -435.5459113893729750 [Eh]
	 Singles Energy            =      -0.0000000000000000 [Eh]
	 Same-Spin Energy          =      -0.4513620397656102 [Eh]
	 Opposite-Spin Energy      =      -1.3769448933752519 [Eh]
	 Correlation Energy        =      -1.8283069331408621 [Eh]
	 Total Energy              =    -437.3742183225138547 [Eh]

	 ================> DF-SCS-MP2 Energies <==================
	-----------------------------------------------------------
	 SCS Same-Spin Scale       =       0.3333333333333333 [-]
	 SCS Opposite-Spin Scale   =       1.2000000000000000 [-]
	 SCS Same-Spin Energy      =      -0.1504540132552034 [Eh]
	 SCS Opposite-Spin Energy  =      -1.6523338720503022 [Eh]
	 SCS Correlation Energy    =      -1.8027878853055057 [Eh]
	 SCS Total Energy          =    -437.3486992746784949 [Eh]
	-----------------------------------------------------------

  Dipole Moment: [D]
     X:     0.7979      Y:    -3.3594      Z:    -0.0000     Total:     3.4528

*** Psi4 exiting successfully. Buy a developer a beer!
