                               Psi4 1.3.2 release

  ==> Input File <==

--------------------------------------------------------------------------
#psi4
#
memory 32 gb

molecule  {
0 1
  O        0.9755400    -1.0764940     0.0000010
  O       -1.3738420     1.6199730     0.0000050
  N       -1.7006930    -0.6600630    -0.0000030
  C        0.5224480     0.2188310    -0.0000040
  C       -0.9377336     0.4401280    -0.0000001
  C        1.5816790     1.0895450    -0.0000030
  C        2.7579030     0.2894600     0.0000000
  C        2.3428020    -1.0138960     0.0000040
  C       -3.1488560    -0.5988880     0.0000010
  H        1.5004040     2.1673970    -0.0000090
  H       -1.2325350    -1.5568070    -0.0000080
  H        3.7847070     0.6289700     0.0000040
  H        2.8531580    -1.9656810     0.0000030
  H       -3.4251050     0.4551520     0.0000010
  H       -3.5616590    -1.0800960     0.8913170
  H       -3.5616630    -1.0800960    -0.8913140
units angstrom
no_reorient  #important for SAPT in psi4, default
symmetry c1  #important for SAPT in psi4, default
}

set PROPERTIES_ORIGIN ["COM"]
properties('MP2/aug-cc-pvtz', properties = ['dipole'])
--------------------------------------------------------------------------

    Molecular point group: c1
  Charge       = 0
  Multiplicity = 1
  Basis Set: AUG-CC-PVTZ
    Blend: AUG-CC-PVTZ
  Basis Set: (AUG-CC-PVTZ AUX)
    Blend: AUG-CC-PVTZ-JKFIT

    Orbital Energies [Eh]
    ---------------------

    Doubly Occupied:

       1A    -20.643240     2A    -20.510187     3A    -15.594138
       4A    -11.359704     5A    -11.312315     6A    -11.301736
       7A    -11.262136     8A    -11.252536     9A    -11.247993
      10A     -1.474493    11A     -1.358573    12A     -1.236976
      13A     -1.101198    14A     -1.039299    15A     -0.959096
      16A     -0.841170    17A     -0.819334    18A     -0.780237
      19A     -0.765555    20A     -0.670705    21A     -0.659042
      22A     -0.644002    23A     -0.621695    24A     -0.594870
      25A     -0.586168    26A     -0.576241    27A     -0.560773
      28A     -0.544550    29A     -0.532234    30A     -0.429246
      31A     -0.414450    32A     -0.391954    33A     -0.330566

  @DF-RHF Final Energy:  -435.59982584051073

   => Energetics <=

    Nuclear Repulsion Energy =            429.4633907865824085
    One-Electron Energy =               -1445.2936029940808567
    Two-Electron Energy =                 580.2303863669876591
    Total Energy =                       -435.5998258405107890
  Basis Set: (AUG-CC-PVTZ AUX)
    Blend: AUG-CC-PVTZ-RI
    Molecular point group: c1

    Geometry (in Angstrom), charge = 0, multiplicity = 1:

       Center              X                  Y                   Z               Mass
    ------------   -----------------  -----------------  -----------------  -----------------
         O            0.947055063431    -1.093303302488     0.000000818363    15.994914619570
         O           -1.402326936569     1.603163697512     0.000004818363    15.994914619570
         N           -1.729177936569    -0.676872302488    -0.000003181637    14.003074004430
         C            0.493963063431     0.202021697512    -0.000004181637    12.000000000000
         C           -0.966218536569     0.423318697512    -0.000000281637    12.000000000000
         C            1.553194063431     1.072735697512    -0.000003181637    12.000000000000
         C            2.729418063431     0.272650697512    -0.000000181637    12.000000000000
         C            2.314317063431    -1.030705302488     0.000003818363    12.000000000000
         C           -3.177340936569    -0.615697302488     0.000000818363    12.000000000000
         H            1.471919063431     2.150587697512    -0.000009181637     1.007825032230
         H           -1.261019936569    -1.573616302488    -0.000008181637     1.007825032230
         H            3.756222063431     0.612160697512     0.000003818363     1.007825032230
         H            2.824673063431    -1.982490302488     0.000002818363     1.007825032230
         H           -3.453589936569     0.438342697512     0.000000818363     1.007825032230
         H           -3.590143936569    -1.096905302488     0.891316818363     1.007825032230
         H           -3.590147936569    -1.096905302488    -0.891314181637     1.007825032230

  Basis Set: AUG-CC-PVTZ
    Blend: AUG-CC-PVTZ
  Basis Set: (AUG-CC-PVTZ AUX)
    Blend: AUG-CC-PVTZ-JKFIT
	 Reference Energy          =    -435.5998258405107322 [Eh]
	 Singles Energy            =      -0.0000000000000000 [Eh]
	 Same-Spin Energy          =      -0.4481899731787324 [Eh]
	 Opposite-Spin Energy      =      -1.3721054948194342 [Eh]
	 Correlation Energy        =      -1.8202954679981667 [Eh]
	 Total Energy              =    -437.4201213085088966 [Eh]

	 ================> DF-SCS-MP2 Energies <==================
	-----------------------------------------------------------
	 SCS Same-Spin Scale       =       0.3333333333333333 [-]
	 SCS Opposite-Spin Scale   =       1.2000000000000000 [-]
	 SCS Same-Spin Energy      =      -0.1493966577262441 [Eh]
	 SCS Opposite-Spin Energy  =      -1.6465265937833211 [Eh]
	 SCS Correlation Energy    =      -1.7959232515095653 [Eh]
	 SCS Total Energy          =    -437.3957490920203099 [Eh]
	-----------------------------------------------------------

  Dipole Moment: [D]
     X:     1.0070      Y:    -3.4379      Z:    -0.0000     Total:     3.5823

*** Psi4 exiting successfully. Buy a developer a beer!
