                               Psi4 1.3.2 release

  ==> Input File <==

--------------------------------------------------------------------------
#psi4
#
memory 32 gb

molecule  {
0 1
  O        0.9755400    -1.0764940     0.0000010
  O       -1.3738420     1.6199730     0.0000050
  N       -1.7006930    -0.6600630    -0.0000030
  C        0.5224480     0.2188310    -0.0000040
  C       -0.9336490     0.4655780     0.0000000
  C        1.5816790     1.0895450    -0.0000030
  C        2.7579030     0.2894600     0.0000000
  C        2.4347307    -1.0396771     0.0000046
  C       -3.1488560    -0.5988880     0.0000010
  H        1.5004040     2.1673970    -0.0000090
  H       -1.2325350    -1.5568070    -0.0000080
  H        3.7847070     0.6289700     0.0000040
  H        2.8531580    -1.9656810     0.0000030
  H       -3.4251050     0.4551520     0.0000010
  H       -3.5616590    -1.0800960     0.8913170
  H       -3.5616630    -1.0800960    -0.8913140
units angstrom
no_reorient  #important for SAPT in psi4, default
symmetry c1  #important for SAPT in psi4, default
}

set PROPERTIES_ORIGIN ["COM"]
properties('MP2/aug-cc-pvtz', properties = ['dipole'])
--------------------------------------------------------------------------

    Molecular point group: c1
  Charge       = 0
  Multiplicity = 1
  Basis Set: AUG-CC-PVTZ
    Blend: AUG-CC-PVTZ
  Basis Set: (AUG-CC-PVTZ AUX)
    Blend: AUG-CC-PVTZ-JKFIT

    Orbital Energies [Eh]
    ---------------------

    Doubly Occupied:

       1A    -20.630140     2A    -20.518287     3A    -15.589834
       4A    -11.361976     5A    -11.310734     6A    -11.306640
       7A    -11.259790     8A    -11.256501     9A    -11.250199
      10A     -1.440450    11A     -1.372100    12A     -1.231870
      13A     -1.097313    14A     -1.036014    15A     -0.956403
      16A     -0.848306    17A     -0.815231    18A     -0.775052
      19A     -0.756191    20A     -0.675102    21A     -0.643401
      22A     -0.642560    23A     -0.614379    24A     -0.603466
      25A     -0.587819    26A     -0.568580    27A     -0.562327
      28A     -0.540883    29A     -0.535566    30A     -0.435544
      31A     -0.414579    32A     -0.391910    33A     -0.332935

  @DF-RHF Final Energy:  -435.58862167138420

   => Energetics <=

    Nuclear Repulsion Energy =            427.4578639503681075
    One-Electron Energy =               -1441.3688084745235756
    Two-Electron Energy =                 578.3223228527712081
    Total Energy =                       -435.5886216713842032
  Basis Set: (AUG-CC-PVTZ AUX)
    Blend: AUG-CC-PVTZ-RI
    Molecular point group: c1

    Geometry (in Angstrom), charge = 0, multiplicity = 1:

       Center              X                  Y                   Z               Mass
    ------------   -----------------  -----------------  -----------------  -----------------
         O            0.937841301016    -1.093271529007     0.000000751188    15.994914619570
         O           -1.411540698984     1.603195470993     0.000004751188    15.994914619570
         N           -1.738391698984    -0.676840529007    -0.000003248812    14.003074004430
         C            0.484749301016     0.202053470993    -0.000004248812    12.000000000000
         C           -0.971347698984     0.448800470993    -0.000000248812    12.000000000000
         C            1.543980301016     1.072767470993    -0.000003248812    12.000000000000
         C            2.720204301016     0.272682470993    -0.000000248812    12.000000000000
         C            2.397032001016    -1.056454629007     0.000004351188    12.000000000000
         C           -3.186554698984    -0.615665529007     0.000000751188    12.000000000000
         H            1.462705301016     2.150619470993    -0.000009248812     1.007825032230
         H           -1.270233698984    -1.573584529007    -0.000008248812     1.007825032230
         H            3.747008301016     0.612192470993     0.000003751188     1.007825032230
         H            2.815459301016    -1.982458529007     0.000002751188     1.007825032230
         H           -3.462803698984     0.438374470993     0.000000751188     1.007825032230
         H           -3.599357698984    -1.096873529007     0.891316751188     1.007825032230
         H           -3.599361698984    -1.096873529007    -0.891314248812     1.007825032230

  Basis Set: AUG-CC-PVTZ
    Blend: AUG-CC-PVTZ
  Basis Set: (AUG-CC-PVTZ AUX)
    Blend: AUG-CC-PVTZ-JKFIT
	 Reference Energy          =    -435.5886216713842032 [Eh]
	 Singles Energy            =      -0.0000000000000000 [Eh]
	 Same-Spin Energy          =      -0.4482985648133617 [Eh]
	 Opposite-Spin Energy      =      -1.3742520651663466 [Eh]
	 Correlation Energy        =      -1.8225506299797083 [Eh]
	 Total Energy              =    -437.4111723013639335 [Eh]

	 ================> DF-SCS-MP2 Energies <==================
	-----------------------------------------------------------
	 SCS Same-Spin Scale       =       0.3333333333333333 [-]
	 SCS Opposite-Spin Scale   =       1.2000000000000000 [-]
	 SCS Same-Spin Energy      =      -0.1494328549377872 [Eh]
	 SCS Opposite-Spin Energy  =      -1.6491024781996158 [Eh]
	 SCS Correlation Energy    =      -1.7985353331374030 [Eh]
	 SCS Total Energy          =    -437.3871570045216117 [Eh]
	-----------------------------------------------------------

  Dipole Moment: [D]
     X:     1.1640      Y:    -3.2010      Z:    -0.0000     Total:     3.4061

*** Psi4 exiting successfully. Buy a developer a beer!
