                               Psi4 1.3.2 release

  ==> Input File <==

--------------------------------------------------------------------------
#psi4
#
memory 32 gb

molecule  {
0 1
  O        0.9980775    -1.0683892     0.0000009
  O       -1.3738420     1.6199730     0.0000050
  N       -1.7006930    -0.6600630    -0.0000030
  C        0.5224480     0.2188310    -0.0000040
  C       -0.9336490     0.4655780     0.0000000
  C        1.5816790     1.0895450    -0.0000030
  C        2.7579030     0.2894600     0.0000000
  C        2.3428020    -1.0138960     0.0000040
  C       -3.1488560    -0.5988880     0.0000010
  H        1.5004040     2.1673970    -0.0000090
  H       -1.2325350    -1.5568070    -0.0000080
  H        3.7847070     0.6289700     0.0000040
  H        2.8531580    -1.9656810     0.0000030
  H       -3.4251050     0.4551520     0.0000010
  H       -3.5616590    -1.0800960     0.8913170
  H       -3.5616630    -1.0800960    -0.8913140
units angstrom
no_reorient  #important for SAPT in psi4, default
symmetry c1  #important for SAPT in psi4, default
}

set PROPERTIES_ORIGIN ["COM"]
properties('MP2/aug-cc-pvtz', properties = ['dipole'])
--------------------------------------------------------------------------

    Molecular point group: c1
  Charge       = 0
  Multiplicity = 1
  Basis Set: AUG-CC-PVTZ
    Blend: AUG-CC-PVTZ
  Basis Set: (AUG-CC-PVTZ AUX)
    Blend: AUG-CC-PVTZ-JKFIT

    Orbital Energies [Eh]
    ---------------------

    Doubly Occupied:

       1A    -20.644017     2A    -20.516125     3A    -15.589427
       4A    -11.361268     5A    -11.311375     6A    -11.300402
       7A    -11.259672     8A    -11.252301     9A    -11.245255
      10A     -1.482294    11A     -1.371470    12A     -1.231881
      13A     -1.099921    14A     -1.041735    15A     -0.954648
      16A     -0.840836    17A     -0.822159    18A     -0.775556
      19A     -0.765973    20A     -0.675300    21A     -0.662440
      22A     -0.641907    23A     -0.619627    24A     -0.601887
      25A     -0.586625    26A     -0.575633    27A     -0.560038
      28A     -0.542208    29A     -0.537065    30A     -0.434393
      31A     -0.412361    32A     -0.392263    33A     -0.330926

  @DF-RHF Final Energy:  -435.60299678029293

   => Energetics <=

    Nuclear Repulsion Energy =            429.7502333799746452
    One-Electron Energy =               -1445.8284869028518642
    Two-Electron Energy =                 580.4752567425842926
    Total Energy =                       -435.6029967802929832
  Basis Set: (AUG-CC-PVTZ AUX)
    Blend: AUG-CC-PVTZ-RI
    Molecular point group: c1

    Geometry (in Angstrom), charge = 0, multiplicity = 1:

       Center              X                  Y                   Z               Mass
    ------------   -----------------  -----------------  -----------------  -----------------
         O            0.966317807808    -1.088677460189     0.000000721557    15.994914619570
         O           -1.405601692192     1.599684739811     0.000004821557    15.994914619570
         N           -1.732452692192    -0.680351260189    -0.000003178443    14.003074004430
         C            0.490688307808     0.198542739811    -0.000004178443    12.000000000000
         C           -0.965408692192     0.445289739811    -0.000000178443    12.000000000000
         C            1.549919307808     1.069256739811    -0.000003178443    12.000000000000
         C            2.726143307808     0.269171739811    -0.000000178443    12.000000000000
         C            2.311042307808    -1.034184260189     0.000003821557    12.000000000000
         C           -3.180615692192    -0.619176260189     0.000000821557    12.000000000000
         H            1.468644307808     2.147108739811    -0.000009178443     1.007825032230
         H           -1.264294692192    -1.577095260189    -0.000008178443     1.007825032230
         H            3.752947307808     0.608681739811     0.000003821557     1.007825032230
         H            2.821398307808    -1.985969260189     0.000002821557     1.007825032230
         H           -3.456864692192     0.434863739811     0.000000821557     1.007825032230
         H           -3.593418692192    -1.100384260189     0.891316821557     1.007825032230
         H           -3.593422692192    -1.100384260189    -0.891314178443     1.007825032230

  Basis Set: AUG-CC-PVTZ
    Blend: AUG-CC-PVTZ
  Basis Set: (AUG-CC-PVTZ AUX)
    Blend: AUG-CC-PVTZ-JKFIT
	 Reference Energy          =    -435.6029967802929264 [Eh]
	 Singles Energy            =      -0.0000000000000000 [Eh]
	 Same-Spin Energy          =      -0.4477193393350485 [Eh]
	 Opposite-Spin Energy      =      -1.3705739691353771 [Eh]
	 Correlation Energy        =      -1.8182933084704256 [Eh]
	 Total Energy              =    -437.4212900887633282 [Eh]

	 ================> DF-SCS-MP2 Energies <==================
	-----------------------------------------------------------
	 SCS Same-Spin Scale       =       0.3333333333333333 [-]
	 SCS Opposite-Spin Scale   =       1.2000000000000000 [-]
	 SCS Same-Spin Energy      =      -0.1492397797783495 [Eh]
	 SCS Opposite-Spin Energy  =      -1.6446887629624525 [Eh]
	 SCS Correlation Energy    =      -1.7939285427408020 [Eh]
	 SCS Total Energy          =    -437.3969253230337131 [Eh]
	-----------------------------------------------------------

  Dipole Moment: [D]
     X:     1.0182      Y:    -3.2824      Z:    -0.0000     Total:     3.4367

*** Psi4 exiting successfully. Buy a developer a beer!
