                               Psi4 1.4a3.dev225

  ==> Input File <==

--------------------------------------------------------------------------
#psi4
#
memory 32 gb

molecule  {
0 1
  O        0.9755400    -1.0764940     0.0000010
  O       -1.3738420     1.6199730     0.0000050
  N       -1.7006930    -0.6600630    -0.0000030
  C        0.5224480     0.2188310    -0.0000040
  C       -0.9336490     0.4655780     0.0000000
  C        1.5816790     1.0895450    -0.0000030
  C        2.7579030     0.2894600     0.0000000
  C        2.3627811    -1.0129813     0.0000040
  C       -3.1488560    -0.5988880     0.0000010
  H        1.5004040     2.1673970    -0.0000090
  H       -1.2325350    -1.5568070    -0.0000080
  H        3.7847070     0.6289700     0.0000040
  H        2.8531580    -1.9656810     0.0000030
  H       -3.4251050     0.4551520     0.0000010
  H       -3.5616590    -1.0800960     0.8913170
  H       -3.5616630    -1.0800960    -0.8913140
units angstrom
no_reorient  #important for SAPT in psi4, default
symmetry c1  #important for SAPT in psi4, default
}

set PROPERTIES_ORIGIN ["COM"]
properties('MP2/aug-cc-pvtz', properties = ['dipole'])
--------------------------------------------------------------------------

    Molecular point group: c1
  Charge       = 0
  Multiplicity = 1
  Basis Set: AUG-CC-PVTZ
    Blend: AUG-CC-PVTZ
  Basis Set: (AUG-CC-PVTZ AUX)
    Blend: AUG-CC-PVTZ-JKFIT

    Orbital Energies [Eh]
    ---------------------

    Doubly Occupied:

       1A    -20.640412     2A    -20.516345     3A    -15.589194
       4A    -11.360750     5A    -11.311512     6A    -11.302464
       7A    -11.259477     8A    -11.251986     9A    -11.248891
      10A     -1.466305    11A     -1.371256    12A     -1.231529
      13A     -1.101527    14A     -1.038261    15A     -0.954484
      16A     -0.842313    17A     -0.817724    18A     -0.775347
      19A     -0.763031    20A     -0.670844    21A     -0.654855
      22A     -0.641966    23A     -0.618023    24A     -0.599530
      25A     -0.586996    26A     -0.576154    27A     -0.563679
      28A     -0.542349    29A     -0.536158    30A     -0.434174
      31A     -0.414999    32A     -0.391806    33A     -0.331989

  @DF-RHF Final Energy:  -435.60113764560754

   => Energetics <=

    Nuclear Repulsion Energy =            429.0955358316709862
    One-Electron Energy =               -1444.5806875603677781
    Two-Electron Energy =                 579.8840140830892551
    Total Energy =                       -435.6011376456075368
  Basis Set: (AUG-CC-PVTZ AUX)
    Blend: AUG-CC-PVTZ-RI
    Molecular point group: c1

    Geometry (in Angstrom), charge = 0, multiplicity = 1:

       Center              X                  Y                   Z               Mass
    ------------   -----------------  -----------------  -----------------  -----------------
         O            0.944745829037    -1.095833348658     0.000000808766    15.994914619570
         O           -1.404636170963     1.600633651342     0.000004808766    15.994914619570
         N           -1.731487170963    -0.679402348658    -0.000003191234    14.003074004430
         C            0.491653829037     0.199491651342    -0.000004191234    12.000000000000
         C           -0.964443170963     0.446238651342    -0.000000191234    12.000000000000
         C            1.550884829037     1.070205651342    -0.000003191234    12.000000000000
         C            2.727108829037     0.270120651342    -0.000000191234    12.000000000000
         C            2.331986929037    -1.032320648658     0.000003808766    12.000000000000
         C           -3.179650170963    -0.618227348658     0.000000808766    12.000000000000
         H            1.469609829037     2.148057651342    -0.000009191234     1.007825032230
         H           -1.263329170963    -1.576146348658    -0.000008191234     1.007825032230
         H            3.753912829037     0.609630651342     0.000003808766     1.007825032230
         H            2.822363829037    -1.985020348658     0.000002808766     1.007825032230
         H           -3.455899170963     0.435812651342     0.000000808766     1.007825032230
         H           -3.592453170963    -1.099435348658     0.891316808766     1.007825032230
         H           -3.592457170963    -1.099435348658    -0.891314191234     1.007825032230

  Basis Set: AUG-CC-PVTZ
    Blend: AUG-CC-PVTZ
  Basis Set: (AUG-CC-PVTZ AUX)
    Blend: AUG-CC-PVTZ-JKFIT
	 Reference Energy          =    -435.6011376456075368 [Eh]
	 Singles Energy            =      -0.0000000000000000 [Eh]
	 Same-Spin Energy          =      -0.4478160549858623 [Eh]
	 Opposite-Spin Energy      =      -1.3718489222052899 [Eh]
	 Correlation Energy        =      -1.8196649771911522 [Eh]
	 Total Energy              =    -437.4208026227987034 [Eh]

	 ================> DF-SCS-MP2 Energies <==================
	-----------------------------------------------------------
	 SCS Same-Spin Scale       =       0.3333333333333333 [-]
	 SCS Opposite-Spin Scale   =       1.2000000000000000 [-]
	 SCS Same-Spin Energy      =      -0.1492720183286207 [Eh]
	 SCS Opposite-Spin Energy  =      -1.6462187066463478 [Eh]
	 SCS Correlation Energy    =      -1.7954907249749685 [Eh]
	 SCS Total Energy          =    -437.3966283705825049 [Eh]
	-----------------------------------------------------------

  Dipole Moment: [D]
     X:     1.1149      Y:    -3.2249      Z:    -0.0000     Total:     3.4122

*** Psi4 exiting successfully. Buy a developer a beer!
