                               Psi4 1.3.2 release

  ==> Input File <==

--------------------------------------------------------------------------
#psi4
#
memory 32 gb

molecule  {
0 1
  O        0.9755400    -1.0764940     0.0000010
  O       -1.3738420     1.6199730     0.0000050
  N       -1.7006930    -0.6600630    -0.0000030
  C        0.5224480     0.2188310    -0.0000040
  C       -0.9336490     0.4655780     0.0000000
  C        1.5044290     1.0260436    -0.0000031
  C        2.7579030     0.2894600     0.0000000
  C        2.3428020    -1.0138960     0.0000040
  C       -3.1488560    -0.5988880     0.0000010
  H        1.5004040     2.1673970    -0.0000090
  H       -1.2325350    -1.5568070    -0.0000080
  H        3.7847070     0.6289700     0.0000040
  H        2.8531580    -1.9656810     0.0000030
  H       -3.4251050     0.4551520     0.0000010
  H       -3.5616590    -1.0800960     0.8913170
  H       -3.5616630    -1.0800960    -0.8913140
units angstrom
no_reorient  #important for SAPT in psi4, default
symmetry c1  #important for SAPT in psi4, default
}

set PROPERTIES_ORIGIN ["COM"]
properties('MP2/aug-cc-pvtz', properties = ['dipole'])
--------------------------------------------------------------------------

    Molecular point group: c1
  Charge       = 0
  Multiplicity = 1
  Basis Set: AUG-CC-PVTZ
    Blend: AUG-CC-PVTZ
  Basis Set: (AUG-CC-PVTZ AUX)
    Blend: AUG-CC-PVTZ-JKFIT

    Orbital Energies [Eh]
    ---------------------

    Doubly Occupied:

       1A    -20.635068     2A    -20.516702     3A    -15.589755
       4A    -11.360784     5A    -11.312095     6A    -11.287914
       7A    -11.259756     8A    -11.247837     9A    -11.244272
      10A     -1.473401    11A     -1.371765    12A     -1.231999
      13A     -1.106784    14A     -1.045290    15A     -0.957084
      16A     -0.837441    17A     -0.823917    18A     -0.773210
      19A     -0.759370    20A     -0.670187    21A     -0.660807
      22A     -0.643440    23A     -0.618998    24A     -0.604391
      25A     -0.588568    26A     -0.571293    27A     -0.545124
      28A     -0.541742    29A     -0.537111    30A     -0.434602
      31A     -0.415792    32A     -0.392192    33A     -0.344416

  @DF-RHF Final Energy:  -435.59282699771563

   => Energetics <=

    Nuclear Repulsion Energy =            431.3378115613882073
    One-Electron Energy =               -1449.0550661325507917
    Two-Electron Energy =                 582.1244275734469511
    Total Energy =                       -435.5928269977156333
  Basis Set: (AUG-CC-PVTZ AUX)
    Blend: AUG-CC-PVTZ-RI
    Molecular point group: c1

    Geometry (in Angstrom), charge = 0, multiplicity = 1:

       Center              X                  Y                   Z               Mass
    ------------   -----------------  -----------------  -----------------  -----------------
         O            0.954076263751    -1.089651760887     0.000000818363    15.994914619570
         O           -1.395305736249     1.606815239113     0.000004818363    15.994914619570
         N           -1.722156736249    -0.673220760887    -0.000003181637    14.003074004430
         C            0.500984263751     0.205673239113    -0.000004181637    12.000000000000
         C           -0.955112736249     0.452420239113    -0.000000181637    12.000000000000
         C            1.482965263751     1.012885839113    -0.000003281637    12.000000000000
         C            2.736439263751     0.276302239113    -0.000000181637    12.000000000000
         C            2.321338263751    -1.027053760887     0.000003818363    12.000000000000
         C           -3.170319736249    -0.612045760887     0.000000818363    12.000000000000
         H            1.478940263751     2.154239239113    -0.000009181637     1.007825032230
         H           -1.253998736249    -1.569964760887    -0.000008181637     1.007825032230
         H            3.763243263751     0.615812239113     0.000003818363     1.007825032230
         H            2.831694263751    -1.978838760887     0.000002818363     1.007825032230
         H           -3.446568736249     0.441994239113     0.000000818363     1.007825032230
         H           -3.583122736249    -1.093253760887     0.891316818363     1.007825032230
         H           -3.583126736249    -1.093253760887    -0.891314181637     1.007825032230

  Basis Set: AUG-CC-PVTZ
    Blend: AUG-CC-PVTZ
  Basis Set: (AUG-CC-PVTZ AUX)
    Blend: AUG-CC-PVTZ-JKFIT
	 Reference Energy          =    -435.5928269977156333 [Eh]
	 Singles Energy            =      -0.0000000000000000 [Eh]
	 Same-Spin Energy          =      -0.4459641185339694 [Eh]
	 Opposite-Spin Energy      =      -1.3688506497790267 [Eh]
	 Correlation Energy        =      -1.8148147683129960 [Eh]
	 Total Energy              =    -437.4076417660286324 [Eh]

	 ================> DF-SCS-MP2 Energies <==================
	-----------------------------------------------------------
	 SCS Same-Spin Scale       =       0.3333333333333333 [-]
	 SCS Opposite-Spin Scale   =       1.2000000000000000 [-]
	 SCS Same-Spin Energy      =      -0.1486547061779898 [Eh]
	 SCS Opposite-Spin Energy  =      -1.6426207797348320 [Eh]
	 SCS Correlation Energy    =      -1.7912754859128217 [Eh]
	 SCS Total Energy          =    -437.3841024836284532 [Eh]
	-----------------------------------------------------------

  Dipole Moment: [D]
     X:     1.0856      Y:    -3.1943      Z:    -0.0000     Total:     3.3737

*** Psi4 exiting successfully. Buy a developer a beer!
