                               Psi4 1.4a3.dev225

  ==> Input File <==

--------------------------------------------------------------------------
#psi4
#
memory 32 gb

molecule  {
0 1
  O        0.9755400    -1.0764940     0.0000010
  O       -1.3738420     1.6199730     0.0000050
  N       -1.7006930    -0.6600630    -0.0000030
  C        0.5224480     0.2188310    -0.0000040
  C       -0.9336490     0.4655780     0.0000000
  C        1.5816790     1.0895450    -0.0000030
  C        2.7579030     0.2894600     0.0000000
  C        2.3428020    -1.0138960     0.0000040
  C       -3.1488560    -0.5988880     0.0000010
  H        1.5019078     2.1474536    -0.0000089
  H       -1.2325350    -1.5568070    -0.0000080
  H        3.7847070     0.6289700     0.0000040
  H        2.8531580    -1.9656810     0.0000030
  H       -3.4251050     0.4551520     0.0000010
  H       -3.5616590    -1.0800960     0.8913170
  H       -3.5616630    -1.0800960    -0.8913140
units angstrom
no_reorient  #important for SAPT in psi4, default
symmetry c1  #important for SAPT in psi4, default
}

set PROPERTIES_ORIGIN ["COM"]
properties('MP2/aug-cc-pvtz', properties = ['dipole'])
--------------------------------------------------------------------------

    Molecular point group: c1
  Charge       = 0
  Multiplicity = 1
  Basis Set: AUG-CC-PVTZ
    Blend: AUG-CC-PVTZ
  Basis Set: (AUG-CC-PVTZ AUX)
    Blend: AUG-CC-PVTZ-JKFIT

    Orbital Energies [Eh]
    ---------------------

    Doubly Occupied:

       1A    -20.643555     2A    -20.515928     3A    -15.589043
       4A    -11.360523     5A    -11.312523     6A    -11.301413
       7A    -11.259422     8A    -11.250472     9A    -11.247903
      10A     -1.474379    11A     -1.371087    12A     -1.231480
      13A     -1.101870    14A     -1.039090    15A     -0.954079
      16A     -0.841625    17A     -0.820505    18A     -0.776006
      19A     -0.766025    20A     -0.671872    21A     -0.658714
      22A     -0.641844    23A     -0.618681    24A     -0.601120
      25A     -0.589844    26A     -0.577459    27A     -0.561750
      28A     -0.542288    29A     -0.536367    30A     -0.433911
      31A     -0.414346    32A     -0.391833    33A     -0.330944

  @DF-RHF Final Energy:  -435.60225060797222

   => Energetics <=

    Nuclear Repulsion Energy =            429.5436930969889886
    One-Electron Energy =               -1445.4360883246104095
    Two-Electron Energy =                 580.2901446196491406
    Total Energy =                       -435.6022506079722234
  Basis Set: (AUG-CC-PVTZ AUX)
    Blend: AUG-CC-PVTZ-RI
    Molecular point group: c1

    Geometry (in Angstrom), charge = 0, multiplicity = 1:

       Center              X                  Y                   Z               Mass
    ------------   -----------------  -----------------  -----------------  -----------------
         O            0.946650971425    -1.095584836585     0.000000807960    15.994914619570
         O           -1.402731028575     1.600882163415     0.000004807960    15.994914619570
         N           -1.729582028575    -0.679153836585    -0.000003192040    14.003074004430
         C            0.493558971425     0.199740163415    -0.000004192040    12.000000000000
         C           -0.962538028575     0.446487163415    -0.000000192040    12.000000000000
         C            1.552789971425     1.070454163415    -0.000003192040    12.000000000000
         C            2.729013971425     0.270369163415    -0.000000192040    12.000000000000
         C            2.313912971425    -1.032986836585     0.000003807960    12.000000000000
         C           -3.177745028575    -0.617978836585     0.000000807960    12.000000000000
         H            1.473018771425     2.128362763415    -0.000009092040     1.007825032230
         H           -1.261424028575    -1.575897836585    -0.000008192040     1.007825032230
         H            3.755817971425     0.609879163415     0.000003807960     1.007825032230
         H            2.824268971425    -1.984771836585     0.000002807960     1.007825032230
         H           -3.453994028575     0.436061163415     0.000000807960     1.007825032230
         H           -3.590548028575    -1.099186836585     0.891316807960     1.007825032230
         H           -3.590552028575    -1.099186836585    -0.891314192040     1.007825032230

  Basis Set: AUG-CC-PVTZ
    Blend: AUG-CC-PVTZ
  Basis Set: (AUG-CC-PVTZ AUX)
    Blend: AUG-CC-PVTZ-JKFIT
	 Reference Energy          =    -435.6022506079722234 [Eh]
	 Singles Energy            =      -0.0000000000000000 [Eh]
	 Same-Spin Energy          =      -0.4477825994949505 [Eh]
	 Opposite-Spin Energy      =      -1.3712893403116420 [Eh]
	 Correlation Energy        =      -1.8190719398065924 [Eh]
	 Total Energy              =    -437.4213225477788001 [Eh]

	 ================> DF-SCS-MP2 Energies <==================
	-----------------------------------------------------------
	 SCS Same-Spin Scale       =       0.3333333333333333 [-]
	 SCS Opposite-Spin Scale   =       1.2000000000000000 [-]
	 SCS Same-Spin Energy      =      -0.1492608664983168 [Eh]
	 SCS Opposite-Spin Energy  =      -1.6455472083739704 [Eh]
	 SCS Correlation Energy    =      -1.7948080748722872 [Eh]
	 SCS Total Energy          =    -437.3970586828444880 [Eh]
	-----------------------------------------------------------

  Dipole Moment: [D]
     X:     1.0909      Y:    -3.2422      Z:    -0.0000     Total:     3.4209

*** Psi4 exiting successfully. Buy a developer a beer!
