                               Psi4 1.3.2 release

  ==> Input File <==

--------------------------------------------------------------------------
#psi4
#
memory 32 gb

molecule  {
0 1
  O        0.9755400    -1.0764940     0.0000010
  O       -1.3332860     1.6346323     0.0000050
  N       -1.7006930    -0.6600630    -0.0000030
  C        0.5224480     0.2188310    -0.0000040
  C       -0.9336490     0.4655780     0.0000000
  C        1.5816790     1.0895450    -0.0000030
  C        2.7579030     0.2894600     0.0000000
  C        2.3428020    -1.0138960     0.0000040
  C       -3.1488560    -0.5988880     0.0000010
  H        1.5004040     2.1673970    -0.0000090
  H       -1.2325350    -1.5568070    -0.0000080
  H        3.7847070     0.6289700     0.0000040
  H        2.8531580    -1.9656810     0.0000030
  H       -3.4251050     0.4551520     0.0000010
  H       -3.5616590    -1.0800960     0.8913170
  H       -3.5616630    -1.0800960    -0.8913140
units angstrom
no_reorient  #important for SAPT in psi4, default
symmetry c1  #important for SAPT in psi4, default
}

set PROPERTIES_ORIGIN ["COM"]
properties('MP2/aug-cc-pvtz', properties = ['dipole'])
--------------------------------------------------------------------------

    Molecular point group: c1
  Charge       = 0
  Multiplicity = 1
  Basis Set: AUG-CC-PVTZ
    Blend: AUG-CC-PVTZ
  Basis Set: (AUG-CC-PVTZ AUX)
    Blend: AUG-CC-PVTZ-JKFIT

    Orbital Energies [Eh]
    ---------------------

    Doubly Occupied:

       1A    -20.642210     2A    -20.516742     3A    -15.591233
       4A    -11.360918     5A    -11.311146     6A    -11.299602
       7A    -11.261215     8A    -11.250817     9A    -11.246905
      10A     -1.473170    11A     -1.371081    12A     -1.234248
      13A     -1.100088    14A     -1.037648    15A     -0.954925
      16A     -0.840709    17A     -0.818307    18A     -0.776389
      19A     -0.764069    20A     -0.670878    21A     -0.657826
      22A     -0.642900    23A     -0.619725    24A     -0.600614
      25A     -0.585228    26A     -0.576772    27A     -0.560750
      28A     -0.544150    29A     -0.537214    30A     -0.433792
      31A     -0.413311    32A     -0.393447    33A     -0.329459

  @DF-RHF Final Energy:  -435.60166973966744

   => Energetics <=

    Nuclear Repulsion Energy =            429.5156649196659941
    One-Electron Energy =               -1445.3996939587684665
    Two-Electron Energy =                 580.2823592994350292
    Total Energy =                       -435.6016697396673862
  Basis Set: (AUG-CC-PVTZ AUX)
    Blend: AUG-CC-PVTZ-RI
    Molecular point group: c1

    Geometry (in Angstrom), charge = 0, multiplicity = 1:

       Center              X                  Y                   Z               Mass
    ------------   -----------------  -----------------  -----------------  -----------------
         O            0.941475551953    -1.097620649747     0.000000808766    15.994914619570
         O           -1.367350448047     1.613505650253     0.000004808766    15.994914619570
         N           -1.734757448047    -0.681189649747    -0.000003191234    14.003074004430
         C            0.488383551953     0.197704350253    -0.000004191234    12.000000000000
         C           -0.967713448047     0.444451350253    -0.000000191234    12.000000000000
         C            1.547614551953     1.068418350253    -0.000003191234    12.000000000000
         C            2.723838551953     0.268333350253    -0.000000191234    12.000000000000
         C            2.308737551953    -1.035022649747     0.000003808766    12.000000000000
         C           -3.182920448047    -0.620014649747     0.000000808766    12.000000000000
         H            1.466339551953     2.146270350253    -0.000009191234     1.007825032230
         H           -1.266599448047    -1.577933649747    -0.000008191234     1.007825032230
         H            3.750642551953     0.607843350253     0.000003808766     1.007825032230
         H            2.819093551953    -1.986807649747     0.000002808766     1.007825032230
         H           -3.459169448047     0.434025350253     0.000000808766     1.007825032230
         H           -3.595723448047    -1.101222649747     0.891316808766     1.007825032230
         H           -3.595727448047    -1.101222649747    -0.891314191234     1.007825032230

  Basis Set: AUG-CC-PVTZ
    Blend: AUG-CC-PVTZ
  Basis Set: (AUG-CC-PVTZ AUX)
    Blend: AUG-CC-PVTZ-JKFIT
	 Reference Energy          =    -435.6016697396674431 [Eh]
	 Singles Energy            =      -0.0000000000000000 [Eh]
	 Same-Spin Energy          =      -0.4478067121791788 [Eh]
	 Opposite-Spin Energy      =      -1.3714738175898893 [Eh]
	 Correlation Energy        =      -1.8192805297690682 [Eh]
	 Total Energy              =    -437.4209502694365028 [Eh]

	 ================> DF-SCS-MP2 Energies <==================
	-----------------------------------------------------------
	 SCS Same-Spin Scale       =       0.3333333333333333 [-]
	 SCS Opposite-Spin Scale   =       1.2000000000000000 [-]
	 SCS Same-Spin Energy      =      -0.1492689040597263 [Eh]
	 SCS Opposite-Spin Energy  =      -1.6457685811078671 [Eh]
	 SCS Correlation Energy    =      -1.7950374851675934 [Eh]
	 SCS Total Energy          =    -437.3967072248350405 [Eh]
	-----------------------------------------------------------

  Dipole Moment: [D]
     X:     0.9353      Y:    -3.2665      Z:    -0.0000     Total:     3.3977

*** Psi4 exiting successfully. Buy a developer a beer!
