                               Psi4 1.3.2 release

  ==> Input File <==

--------------------------------------------------------------------------
#psi4
#
memory 32 gb

molecule  {
0 1
  O        0.9755400    -1.0764940     0.0000010
  O       -1.3738420     1.6199730     0.0000050
  N       -1.6203038    -0.7108273    -0.0000034
  C        0.5224480     0.2188310    -0.0000040
  C       -0.9336490     0.4655780     0.0000000
  C        1.5816790     1.0895450    -0.0000030
  C        2.7579030     0.2894600     0.0000000
  C        2.3428020    -1.0138960     0.0000040
  C       -3.1488560    -0.5988880     0.0000010
  H        1.5004040     2.1673970    -0.0000090
  H       -1.2325350    -1.5568070    -0.0000080
  H        3.7847070     0.6289700     0.0000040
  H        2.8531580    -1.9656810     0.0000030
  H       -3.4251050     0.4551520     0.0000010
  H       -3.5616590    -1.0800960     0.8913170
  H       -3.5616630    -1.0800960    -0.8913140
units angstrom
no_reorient  #important for SAPT in psi4, default
symmetry c1  #important for SAPT in psi4, default
}

set PROPERTIES_ORIGIN ["COM"]
properties('MP2/aug-cc-pvtz', properties = ['dipole'])
--------------------------------------------------------------------------

    Molecular point group: c1
  Charge       = 0
  Multiplicity = 1
  Basis Set: AUG-CC-PVTZ
    Blend: AUG-CC-PVTZ
  Basis Set: (AUG-CC-PVTZ AUX)
    Blend: AUG-CC-PVTZ-JKFIT

    Orbital Energies [Eh]
    ---------------------

    Doubly Occupied:

       1A    -20.640913     2A    -20.520237     3A    -15.585831
       4A    -11.362604     5A    -11.310149     6A    -11.296927
       7A    -11.266906     8A    -11.249232     9A    -11.245781
      10A     -1.472134    11A     -1.371076    12A     -1.231950
      13A     -1.098936    14A     -1.034275    15A     -0.949283
      16A     -0.854072    17A     -0.817298    18A     -0.788850
      19A     -0.762850    20A     -0.669823    21A     -0.656453
      22A     -0.630804    23A     -0.611771    24A     -0.600014
      25A     -0.583948    26A     -0.570927    27A     -0.563623
      28A     -0.545679    29A     -0.539894    30A     -0.434408
      31A     -0.413055    32A     -0.398831    33A     -0.328339

  @DF-RHF Final Energy:  -435.58993562467401

   => Energetics <=

    Nuclear Repulsion Energy =            429.3998495384877856
    One-Electron Energy =               -1445.1658285438143139
    Two-Electron Energy =                 580.1760433806524588
    Total Energy =                       -435.5899356246740126
  Basis Set: (AUG-CC-PVTZ AUX)
    Blend: AUG-CC-PVTZ-RI
    Molecular point group: c1

    Geometry (in Angstrom), charge = 0, multiplicity = 1:

       Center              X                  Y                   Z               Mass
    ------------   -----------------  -----------------  -----------------  -----------------
         O            0.937660957670    -1.090060889237     0.000000853559    15.994914619570
         O           -1.411721042330     1.606406110763     0.000004853559    15.994914619570
         N           -1.658182842330    -0.724394189237    -0.000003546441    14.003074004430
         C            0.484568957670     0.205264110763    -0.000004146441    12.000000000000
         C           -0.971528042330     0.452011110763    -0.000000146441    12.000000000000
         C            1.543799957670     1.075978110763    -0.000003146441    12.000000000000
         C            2.720023957670     0.275893110763    -0.000000146441    12.000000000000
         C            2.304922957670    -1.027462889237     0.000003853559    12.000000000000
         C           -3.186735042330    -0.612454889237     0.000000853559    12.000000000000
         H            1.462524957670     2.153830110763    -0.000009146441     1.007825032230
         H           -1.270414042330    -1.570373889237    -0.000008146441     1.007825032230
         H            3.746827957670     0.615403110763     0.000003853559     1.007825032230
         H            2.815278957670    -1.979247889237     0.000002853559     1.007825032230
         H           -3.462984042330     0.441585110763     0.000000853559     1.007825032230
         H           -3.599538042330    -1.093662889237     0.891316853559     1.007825032230
         H           -3.599542042330    -1.093662889237    -0.891314146441     1.007825032230

  Basis Set: AUG-CC-PVTZ
    Blend: AUG-CC-PVTZ
  Basis Set: (AUG-CC-PVTZ AUX)
    Blend: AUG-CC-PVTZ-JKFIT
	 Reference Energy          =    -435.5899356246740126 [Eh]
	 Singles Energy            =      -0.0000000000000000 [Eh]
	 Same-Spin Energy          =      -0.4473596341779121 [Eh]
	 Opposite-Spin Energy      =      -1.3715126626230165 [Eh]
	 Correlation Energy        =      -1.8188722968009285 [Eh]
	 Total Energy              =    -437.4088079214749314 [Eh]

	 ================> DF-SCS-MP2 Energies <==================
	-----------------------------------------------------------
	 SCS Same-Spin Scale       =       0.3333333333333333 [-]
	 SCS Opposite-Spin Scale   =       1.2000000000000000 [-]
	 SCS Same-Spin Energy      =      -0.1491198780593040 [Eh]
	 SCS Opposite-Spin Energy  =      -1.6458151951476199 [Eh]
	 SCS Correlation Energy    =      -1.7949350732069238 [Eh]
	 SCS Total Energy          =    -437.3848706978809560 [Eh]
	-----------------------------------------------------------

  Dipole Moment: [D]
     X:     0.8270      Y:    -3.1649      Z:    -0.0000     Total:     3.2712

*** Psi4 exiting successfully. Buy a developer a beer!
