                               Psi4 1.3.2 release

  ==> Input File <==

--------------------------------------------------------------------------
#psi4
#
memory 32 gb

molecule  {
0 1
  O        0.9755400    -1.0764940     0.0000010
  O       -1.3738420     1.6199730     0.0000050
  N       -1.7006930    -0.6600630    -0.0000030
  C        0.5224480     0.2188310    -0.0000040
  C       -0.9336490     0.4655780     0.0000000
  C        1.5816790     1.0895450    -0.0000030
  C        2.7579030     0.2894600     0.0000000
  C        2.3428020    -1.0138960     0.0000040
  C       -3.1488560    -0.5988880     0.0000010
  H        1.5154422     1.9679632    -0.0000079
  H       -1.2325350    -1.5568070    -0.0000080
  H        3.7847070     0.6289700     0.0000040
  H        2.8531580    -1.9656810     0.0000030
  H       -3.4251050     0.4551520     0.0000010
  H       -3.5616590    -1.0800960     0.8913170
  H       -3.5616630    -1.0800960    -0.8913140
units angstrom
no_reorient  #important for SAPT in psi4, default
symmetry c1  #important for SAPT in psi4, default
}

set PROPERTIES_ORIGIN ["COM"]
properties('MP2/aug-cc-pvtz', properties = ['dipole'])
--------------------------------------------------------------------------

    Molecular point group: c1
  Charge       = 0
  Multiplicity = 1
  Basis Set: AUG-CC-PVTZ
    Blend: AUG-CC-PVTZ
  Basis Set: (AUG-CC-PVTZ AUX)
    Blend: AUG-CC-PVTZ-JKFIT

    Orbital Energies [Eh]
    ---------------------

    Doubly Occupied:

       1A    -20.643337     2A    -20.516531     3A    -15.589375
       4A    -11.360937     5A    -11.312078     6A    -11.301637
       7A    -11.259652     8A    -11.247478     9A    -11.230968
      10A     -1.474137    11A     -1.371616    12A     -1.231827
      13A     -1.107316    14A     -1.040572    15A     -0.955958
      16A     -0.854666    17A     -0.829684    18A     -0.785941
      19A     -0.770785    20A     -0.675541    21A     -0.658530
      22A     -0.642853    23A     -0.618880    24A     -0.616242
      25A     -0.600531    26A     -0.577454    27A     -0.562130
      28A     -0.542509    29A     -0.536732    30A     -0.434458
      31A     -0.414431    32A     -0.392165    33A     -0.330965

  @DF-RHF Final Energy:  -435.56565894372943

   => Energetics <=

    Nuclear Repulsion Energy =            430.5886561814688207
    One-Electron Energy =               -1447.3328011329331275
    Two-Electron Energy =                 581.1784860077348185
    Total Energy =                       -435.5656589437294315
  Basis Set: (AUG-CC-PVTZ AUX)
    Blend: AUG-CC-PVTZ-RI
    Molecular point group: c1

    Geometry (in Angstrom), charge = 0, multiplicity = 1:

       Center              X                  Y                   Z               Mass
    ------------   -----------------  -----------------  -----------------  -----------------
         O            0.946541890575    -1.094138229016     0.000000799901    15.994914619570
         O           -1.402840109425     1.602328770984     0.000004799901    15.994914619570
         N           -1.729691109425    -0.677707229016    -0.000003200099    14.003074004430
         C            0.493449890575     0.201186770984    -0.000004200099    12.000000000000
         C           -0.962647109425     0.447933770984    -0.000000200099    12.000000000000
         C            1.552680890575     1.071900770984    -0.000003200099    12.000000000000
         C            2.728904890575     0.271815770984    -0.000000200099    12.000000000000
         C            2.313803890575    -1.031540229016     0.000003799901    12.000000000000
         C           -3.177854109425    -0.616532229016     0.000000799901    12.000000000000
         H            1.486444090575     1.950318970984    -0.000008100099     1.007825032230
         H           -1.261533109425    -1.574451229016    -0.000008200099     1.007825032230
         H            3.755708890575     0.611325770984     0.000003799901     1.007825032230
         H            2.824159890575    -1.983325229016     0.000002799901     1.007825032230
         H           -3.454103109425     0.437507770984     0.000000799901     1.007825032230
         H           -3.590657109425    -1.097740229016     0.891316799901     1.007825032230
         H           -3.590661109425    -1.097740229016    -0.891314200099     1.007825032230

  Basis Set: AUG-CC-PVTZ
    Blend: AUG-CC-PVTZ
  Basis Set: (AUG-CC-PVTZ AUX)
    Blend: AUG-CC-PVTZ-JKFIT
	 Reference Energy          =    -435.5656589437294315 [Eh]
	 Singles Energy            =      -0.0000000000000000 [Eh]
	 Same-Spin Energy          =      -0.4476221878287477 [Eh]
	 Opposite-Spin Energy      =      -1.3709612924337153 [Eh]
	 Correlation Energy        =      -1.8185834802624630 [Eh]
	 Total Energy              =    -437.3842424239919069 [Eh]

	 ================> DF-SCS-MP2 Energies <==================
	-----------------------------------------------------------
	 SCS Same-Spin Scale       =       0.3333333333333333 [-]
	 SCS Opposite-Spin Scale   =       1.2000000000000000 [-]
	 SCS Same-Spin Energy      =      -0.1492073959429159 [Eh]
	 SCS Opposite-Spin Energy  =      -1.6451535509204585 [Eh]
	 SCS Correlation Energy    =      -1.7943609468633743 [Eh]
	 SCS Total Energy          =    -437.3600198905928096 [Eh]
	-----------------------------------------------------------

  Dipole Moment: [D]
     X:     1.0797      Y:    -3.2980      Z:    -0.0000     Total:     3.4702

*** Psi4 exiting successfully. Buy a developer a beer!
