                               Psi4 1.3.2 release

  ==> Input File <==

--------------------------------------------------------------------------
#psi4
#
memory 32 gb

molecule  {
0 1
  O        0.9755400    -1.0764940     0.0000010
  O       -1.3738420     1.6199730     0.0000050
  N       -1.7006930    -0.6600630    -0.0000030
  C        0.5224480     0.2188310    -0.0000040
  C       -0.9336490     0.4655780     0.0000000
  C        1.5816790     1.0895450    -0.0000030
  C        2.7579030     0.2894600     0.0000000
  C        2.2088382    -0.9633662     0.0000030
  C       -3.1488560    -0.5988880     0.0000010
  H        1.5004040     2.1673970    -0.0000090
  H       -1.2325350    -1.5568070    -0.0000080
  H        3.7847070     0.6289700     0.0000040
  H        2.8531580    -1.9656810     0.0000030
  H       -3.4251050     0.4551520     0.0000010
  H       -3.5616590    -1.0800960     0.8913170
  H       -3.5616630    -1.0800960    -0.8913140
units angstrom
no_reorient  #important for SAPT in psi4, default
symmetry c1  #important for SAPT in psi4, default
}

set PROPERTIES_ORIGIN ["COM"]
properties('MP2/aug-cc-pvtz', properties = ['dipole'])
--------------------------------------------------------------------------

    Molecular point group: c1
  Charge       = 0
  Multiplicity = 1
  Basis Set: AUG-CC-PVTZ
    Blend: AUG-CC-PVTZ
  Basis Set: (AUG-CC-PVTZ AUX)
    Blend: AUG-CC-PVTZ-JKFIT

    Orbital Energies [Eh]
    ---------------------

    Doubly Occupied:

       1A    -20.663453     2A    -20.512277     3A    -15.587882
       4A    -11.358309     5A    -11.320660     6A    -11.293990
       7A    -11.258910     8A    -11.257104     9A    -11.238491
      10A     -1.542152    11A     -1.368972    12A     -1.230899
      13A     -1.113741    14A     -1.044872    15A     -0.951127
      16A     -0.841194    17A     -0.830636    18A     -0.786945
      19A     -0.769420    20A     -0.695216    21A     -0.668665
      22A     -0.640943    23A     -0.621027    24A     -0.616449
      25A     -0.596917    26A     -0.572851    27A     -0.545680
      28A     -0.537240    29A     -0.526576    30A     -0.430690
      31A     -0.417503    32A     -0.391864    33A     -0.327549

  @DF-RHF Final Energy:  -435.58127919812421

   => Energetics <=

    Nuclear Repulsion Energy =            432.7932909144552696
    One-Electron Energy =               -1451.6287340291125929
    Two-Electron Energy =                 583.2541639165331162
    Total Energy =                       -435.5812791981242071
  Basis Set: (AUG-CC-PVTZ AUX)
    Blend: AUG-CC-PVTZ-RI
    Molecular point group: c1

    Geometry (in Angstrom), charge = 0, multiplicity = 1:

       Center              X                  Y                   Z               Mass
    ------------   -----------------  -----------------  -----------------  -----------------
         O            0.959518712650    -1.100594582191     0.000000904730    15.994914619570
         O           -1.389863287350     1.595872417809     0.000004904730    15.994914619570
         N           -1.716714287350    -0.684163582191    -0.000003095270    14.003074004430
         C            0.506426712650     0.194730417809    -0.000004095270    12.000000000000
         C           -0.949670287350     0.441477417809    -0.000000095270    12.000000000000
         C            1.565657712650     1.065444417809    -0.000003095270    12.000000000000
         C            2.741881712650     0.265359417809    -0.000000095270    12.000000000000
         C            2.192816912650    -0.987466782191     0.000002904730    12.000000000000
         C           -3.164877287350    -0.622988582191     0.000000904730    12.000000000000
         H            1.484382712650     2.143296417809    -0.000009095270     1.007825032230
         H           -1.248556287350    -1.580907582191    -0.000008095270     1.007825032230
         H            3.768685712650     0.604869417809     0.000003904730     1.007825032230
         H            2.837136712650    -1.989781582191     0.000002904730     1.007825032230
         H           -3.441126287350     0.431051417809     0.000000904730     1.007825032230
         H           -3.577680287350    -1.104196582191     0.891316904730     1.007825032230
         H           -3.577684287350    -1.104196582191    -0.891314095270     1.007825032230

  Basis Set: AUG-CC-PVTZ
    Blend: AUG-CC-PVTZ
  Basis Set: (AUG-CC-PVTZ AUX)
    Blend: AUG-CC-PVTZ-JKFIT
	 Reference Energy          =    -435.5812791981242071 [Eh]
	 Singles Energy            =      -0.0000000000000000 [Eh]
	 Same-Spin Energy          =      -0.4474136131953030 [Eh]
	 Opposite-Spin Energy      =      -1.3681503244063062 [Eh]
	 Correlation Energy        =      -1.8155639376016093 [Eh]
	 Total Energy              =    -437.3968431357258169 [Eh]

	 ================> DF-SCS-MP2 Energies <==================
	-----------------------------------------------------------
	 SCS Same-Spin Scale       =       0.3333333333333333 [-]
	 SCS Opposite-Spin Scale   =       1.2000000000000000 [-]
	 SCS Same-Spin Energy      =      -0.1491378710651010 [Eh]
	 SCS Opposite-Spin Energy  =      -1.6417803892875675 [Eh]
	 SCS Correlation Energy    =      -1.7909182603526685 [Eh]
	 SCS Total Energy          =    -437.3721974584768759 [Eh]
	-----------------------------------------------------------

  Dipole Moment: [D]
     X:     0.9739      Y:    -3.2441      Z:    -0.0000     Total:     3.3871

*** Psi4 exiting successfully. Buy a developer a beer!
