                               Psi4 1.4a3.dev225

  ==> Input File <==

--------------------------------------------------------------------------
#psi4
#
memory 32 gb

molecule  {
0 1
  O        0.9755400    -1.0764940     0.0000010
  O       -1.3738420     1.6199730     0.0000050
  N       -1.7006930    -0.6600630    -0.0000030
  C        0.5224480     0.2188310    -0.0000040
  C       -0.8843518     0.4572242    -0.0000001
  C        1.5816790     1.0895450    -0.0000030
  C        2.7579030     0.2894600     0.0000000
  C        2.3428020    -1.0138960     0.0000040
  C       -3.1488560    -0.5988880     0.0000010
  H        1.5004040     2.1673970    -0.0000090
  H       -1.2325350    -1.5568070    -0.0000080
  H        3.7847070     0.6289700     0.0000040
  H        2.8531580    -1.9656810     0.0000030
  H       -3.4251050     0.4551520     0.0000010
  H       -3.5616590    -1.0800960     0.8913170
  H       -3.5616630    -1.0800960    -0.8913140
units angstrom
no_reorient  #important for SAPT in psi4, default
symmetry c1  #important for SAPT in psi4, default
}

set PROPERTIES_ORIGIN ["COM"]
properties('MP2/aug-cc-pvtz', properties = ['dipole'])
--------------------------------------------------------------------------

    Molecular point group: c1
  Charge       = 0
  Multiplicity = 1
  Basis Set: AUG-CC-PVTZ
    Blend: AUG-CC-PVTZ
  Basis Set: (AUG-CC-PVTZ AUX)
    Blend: AUG-CC-PVTZ-JKFIT

    Orbital Energies [Eh]
    ---------------------

    Doubly Occupied:

       1A    -20.647225     2A    -20.511422     3A    -15.585753
       4A    -11.359561     5A    -11.318642     6A    -11.301763
       7A    -11.259414     8A    -11.256958     9A    -11.252005
      10A     -1.478629    11A     -1.353392    12A     -1.219342
      13A     -1.106614    14A     -1.049104    15A     -0.951453
      16A     -0.852077    17A     -0.824314    18A     -0.772957
      19A     -0.762108    20A     -0.673605    21A     -0.662546
      22A     -0.638159    23A     -0.613532    24A     -0.596881
      25A     -0.591063    26A     -0.579984    27A     -0.566119
      28A     -0.536678    29A     -0.528313    30A     -0.430668
      31A     -0.417964    32A     -0.385067    33A     -0.335002

  @DF-RHF Final Energy:  -435.59574624452404

   => Energetics <=

    Nuclear Repulsion Energy =            429.5278935770936073
    One-Electron Energy =               -1445.4106433681854469
    Two-Electron Energy =                 580.2870035465676892
    Total Energy =                       -435.5957462445240935
  Basis Set: (AUG-CC-PVTZ AUX)
    Blend: AUG-CC-PVTZ-RI
    Molecular point group: c1

    Geometry (in Angstrom), charge = 0, multiplicity = 1:

       Center              X                  Y                   Z               Mass
    ------------   -----------------  -----------------  -----------------  -----------------
         O            0.941932364571    -1.094943911914     0.000000818363    15.994914619570
         O           -1.407449635429     1.601523088086     0.000004818363    15.994914619570
         N           -1.734300635429    -0.678512911914    -0.000003181637    14.003074004430
         C            0.488840364571     0.200381088086    -0.000004181637    12.000000000000
         C           -0.917959435429     0.438774288086    -0.000000281637    12.000000000000
         C            1.548071364571     1.071095088086    -0.000003181637    12.000000000000
         C            2.724295364571     0.271010088086    -0.000000181637    12.000000000000
         C            2.309194364571    -1.032345911914     0.000003818363    12.000000000000
         C           -3.182463635429    -0.617337911914     0.000000818363    12.000000000000
         H            1.466796364571     2.148947088086    -0.000009181637     1.007825032230
         H           -1.266142635429    -1.575256911914    -0.000008181637     1.007825032230
         H            3.751099364571     0.610520088086     0.000003818363     1.007825032230
         H            2.819550364571    -1.984130911914     0.000002818363     1.007825032230
         H           -3.458712635429     0.436702088086     0.000000818363     1.007825032230
         H           -3.595266635429    -1.098545911914     0.891316818363     1.007825032230
         H           -3.595270635429    -1.098545911914    -0.891314181637     1.007825032230

  Basis Set: AUG-CC-PVTZ
    Blend: AUG-CC-PVTZ
  Basis Set: (AUG-CC-PVTZ AUX)
    Blend: AUG-CC-PVTZ-JKFIT
	 Reference Energy          =    -435.5957462445240367 [Eh]
	 Singles Energy            =      -0.0000000000000000 [Eh]
	 Same-Spin Energy          =      -0.4488941951395851 [Eh]
	 Opposite-Spin Energy      =      -1.3733273178228469 [Eh]
	 Correlation Energy        =      -1.8222215129624320 [Eh]
	 Total Energy              =    -437.4179677574864513 [Eh]

	 ================> DF-SCS-MP2 Energies <==================
	-----------------------------------------------------------
	 SCS Same-Spin Scale       =       0.3333333333333333 [-]
	 SCS Opposite-Spin Scale   =       1.2000000000000000 [-]
	 SCS Same-Spin Energy      =      -0.1496313983798617 [Eh]
	 SCS Opposite-Spin Energy  =      -1.6479927813874162 [Eh]
	 SCS Correlation Energy    =      -1.7976241797672778 [Eh]
	 SCS Total Energy          =    -437.3933704242913336 [Eh]
	-----------------------------------------------------------

  Dipole Moment: [D]
     X:     1.4797      Y:    -3.2698      Z:    -0.0000     Total:     3.5891

*** Psi4 exiting successfully. Buy a developer a beer!
