                               Psi4 1.3.2 release

  ==> Input File <==

--------------------------------------------------------------------------
#psi4
#
memory 32 gb

molecule  {
0 1
  O        0.9755400    -1.0764940     0.0000010
  O       -1.3738420     1.6199730     0.0000050
  N       -1.7006930    -0.6600630    -0.0000030
  C        0.5534807     0.1823948    -0.0000039
  C       -0.9336490     0.4655780     0.0000000
  C        1.5816790     1.0895450    -0.0000030
  C        2.7579030     0.2894600     0.0000000
  C        2.3428020    -1.0138960     0.0000040
  C       -3.1488560    -0.5988880     0.0000010
  H        1.5004040     2.1673970    -0.0000090
  H       -1.2325350    -1.5568070    -0.0000080
  H        3.7847070     0.6289700     0.0000040
  H        2.8531580    -1.9656810     0.0000030
  H       -3.4251050     0.4551520     0.0000010
  H       -3.5616590    -1.0800960     0.8913170
  H       -3.5616630    -1.0800960    -0.8913140
units angstrom
no_reorient  #important for SAPT in psi4, default
symmetry c1  #important for SAPT in psi4, default
}

set PROPERTIES_ORIGIN ["COM"]
properties('MP2/aug-cc-pvtz', properties = ['dipole'])
--------------------------------------------------------------------------

    Molecular point group: c1
  Charge       = 0
  Multiplicity = 1
  Basis Set: AUG-CC-PVTZ
    Blend: AUG-CC-PVTZ
  Basis Set: (AUG-CC-PVTZ AUX)
    Blend: AUG-CC-PVTZ-JKFIT

    Orbital Energies [Eh]
    ---------------------

    Doubly Occupied:

       1A    -20.649319     2A    -20.517803     3A    -15.589813
       4A    -11.362785     5A    -11.308505     6A    -11.303007
       7A    -11.259815     8A    -11.248451     9A    -11.246839
      10A     -1.493682    11A     -1.370874    12A     -1.232054
      13A     -1.103192    14A     -1.037364    15A     -0.954146
      16A     -0.833765    17A     -0.825395    18A     -0.776280
      19A     -0.768375    20A     -0.670705    21A     -0.668373
      22A     -0.641552    23A     -0.620032    24A     -0.602283
      25A     -0.591562    26A     -0.580424    27A     -0.556259
      28A     -0.542386    29A     -0.535711    30A     -0.432592
      31A     -0.414471    32A     -0.392439    33A     -0.329137

  @DF-RHF Final Energy:  -435.60100417341914

   => Energetics <=

    Nuclear Repulsion Energy =            429.7457579457594647
    One-Electron Energy =               -1445.7747504508758993
    Two-Electron Energy =                 580.4279883316972928
    Total Energy =                       -435.6010041734191418
  Basis Set: (AUG-CC-PVTZ AUX)
    Blend: AUG-CC-PVTZ-RI
    Molecular point group: c1

    Geometry (in Angstrom), charge = 0, multiplicity = 1:

       Center              X                  Y                   Z               Mass
    ------------   -----------------  -----------------  -----------------  -----------------
         O            0.943685088033    -1.092249029417     0.000000799170    15.994914619570
         O           -1.405696911967     1.604217970583     0.000004799170    15.994914619570
         N           -1.732547911967    -0.675818029417    -0.000003200830    14.003074004430
         C            0.521625788033     0.166639770583    -0.000004100830    12.000000000000
         C           -0.965503911967     0.449822970583    -0.000000200830    12.000000000000
         C            1.549824088033     1.073789970583    -0.000003200830    12.000000000000
         C            2.726048088034     0.273704970583    -0.000000200830    12.000000000000
         C            2.310947088033    -1.029651029417     0.000003799170    12.000000000000
         C           -3.180710911967    -0.614643029417     0.000000799170    12.000000000000
         H            1.468549088033     2.151641970583    -0.000009200830     1.007825032230
         H           -1.264389911967    -1.572562029417    -0.000008200830     1.007825032230
         H            3.752852088033     0.613214970583     0.000003799170     1.007825032230
         H            2.821303088033    -1.981436029417     0.000002799170     1.007825032230
         H           -3.456959911966     0.439396970583     0.000000799170     1.007825032230
         H           -3.593513911967    -1.095851029417     0.891316799170     1.007825032230
         H           -3.593517911966    -1.095851029417    -0.891314200830     1.007825032230

  Basis Set: AUG-CC-PVTZ
    Blend: AUG-CC-PVTZ
  Basis Set: (AUG-CC-PVTZ AUX)
    Blend: AUG-CC-PVTZ-JKFIT
	 Reference Energy          =    -435.6010041734191418 [Eh]
	 Singles Energy            =      -0.0000000000000000 [Eh]
	 Same-Spin Energy          =      -0.4475935443129846 [Eh]
	 Opposite-Spin Energy      =      -1.3705329450247636 [Eh]
	 Correlation Energy        =      -1.8181264893377482 [Eh]
	 Total Energy              =    -437.4191306627569134 [Eh]

	 ================> DF-SCS-MP2 Energies <==================
	-----------------------------------------------------------
	 SCS Same-Spin Scale       =       0.3333333333333333 [-]
	 SCS Opposite-Spin Scale   =       1.2000000000000000 [-]
	 SCS Same-Spin Energy      =      -0.1491978481043282 [Eh]
	 SCS Opposite-Spin Energy  =      -1.6446395340297164 [Eh]
	 SCS Correlation Energy    =      -1.7938373821340445 [Eh]
	 SCS Total Energy          =    -437.3948415555531710 [Eh]
	-----------------------------------------------------------

  Dipole Moment: [D]
     X:     1.0369      Y:    -3.2792      Z:    -0.0000     Total:     3.4392

*** Psi4 exiting successfully. Buy a developer a beer!
