                               Psi4 1.3.2 release

  ==> Input File <==

--------------------------------------------------------------------------
#psi4
#
memory 32 gb

molecule  {
0 1
  O        0.9755400    -1.0764940     0.0000010
  O       -1.3738420     1.6199730     0.0000050
  N       -1.6609414    -0.6861467    -0.0000032
  C        0.5224480     0.2188310    -0.0000040
  C       -0.9336490     0.4655780     0.0000000
  C        1.5816790     1.0895450    -0.0000030
  C        2.7579030     0.2894600     0.0000000
  C        2.3428020    -1.0138960     0.0000040
  C       -3.1488560    -0.5988880     0.0000010
  H        1.5004040     2.1673970    -0.0000090
  H       -1.2325350    -1.5568070    -0.0000080
  H        3.7847070     0.6289700     0.0000040
  H        2.8531580    -1.9656810     0.0000030
  H       -3.4251050     0.4551520     0.0000010
  H       -3.5616590    -1.0800960     0.8913170
  H       -3.5616630    -1.0800960    -0.8913140
units angstrom
no_reorient  #important for SAPT in psi4, default
symmetry c1  #important for SAPT in psi4, default
}

set PROPERTIES_ORIGIN ["COM"]
properties('MP2/aug-cc-pvtz', properties = ['dipole'])
--------------------------------------------------------------------------

    Molecular point group: c1
  Charge       = 0
  Multiplicity = 1
  Basis Set: AUG-CC-PVTZ
    Blend: AUG-CC-PVTZ
  Basis Set: (AUG-CC-PVTZ AUX)
    Blend: AUG-CC-PVTZ-JKFIT

    Orbital Energies [Eh]
    ---------------------

    Doubly Occupied:

       1A    -20.642258     2A    -20.517984     3A    -15.587459
       4A    -11.361295     5A    -11.311350     6A    -11.299152
       7A    -11.263159     8A    -11.250855     9A    -11.246907
      10A     -1.473258    11A     -1.370895    12A     -1.231047
      13A     -1.100207    14A     -1.036567    15A     -0.951476
      16A     -0.846295    17A     -0.818440    18A     -0.782719
      19A     -0.764025    20A     -0.670567    21A     -0.657553
      22A     -0.635758    23A     -0.615017    24A     -0.600762
      25A     -0.585183    26A     -0.574272    27A     -0.561598
      28A     -0.546250    29A     -0.538024    30A     -0.434222
      31A     -0.413586    32A     -0.395499    33A     -0.329642

  @DF-RHF Final Energy:  -435.59950267070212

   => Energetics <=

    Nuclear Repulsion Energy =            429.3983387343362210
    One-Electron Energy =               -1445.1691248873032691
    Two-Electron Energy =                 580.1712834822649256
    Total Energy =                       -435.5995026707021225
  Basis Set: (AUG-CC-PVTZ AUX)
    Blend: AUG-CC-PVTZ-RI
    Molecular point group: c1

    Geometry (in Angstrom), charge = 0, multiplicity = 1:

       Center              X                  Y                   Z               Mass
    ------------   -----------------  -----------------  -----------------  -----------------
         O            0.942211632478    -1.092824669200     0.000000831163    15.994914619570
         O           -1.407170367522     1.603642330800     0.000004831163    15.994914619570
         N           -1.694269767522    -0.702477369200    -0.000003368837    14.003074004430
         C            0.489119632478     0.202500330800    -0.000004168837    12.000000000000
         C           -0.966977367522     0.449247330800    -0.000000168837    12.000000000000
         C            1.548350632478     1.073214330800    -0.000003168837    12.000000000000
         C            2.724574632478     0.273129330800    -0.000000168837    12.000000000000
         C            2.309473632478    -1.030226669200     0.000003831163    12.000000000000
         C           -3.182184367522    -0.615218669200     0.000000831163    12.000000000000
         H            1.467075632478     2.151066330800    -0.000009168837     1.007825032230
         H           -1.265863367522    -1.573137669200    -0.000008168837     1.007825032230
         H            3.751378632478     0.612639330800     0.000003831163     1.007825032230
         H            2.819829632478    -1.982011669200     0.000002831163     1.007825032230
         H           -3.458433367522     0.438821330800     0.000000831163     1.007825032230
         H           -3.594987367522    -1.096426669200     0.891316831163     1.007825032230
         H           -3.594991367522    -1.096426669200    -0.891314168837     1.007825032230

  Basis Set: AUG-CC-PVTZ
    Blend: AUG-CC-PVTZ
  Basis Set: (AUG-CC-PVTZ AUX)
    Blend: AUG-CC-PVTZ-JKFIT
	 Reference Energy          =    -435.5995026707021225 [Eh]
	 Singles Energy            =      -0.0000000000000000 [Eh]
	 Same-Spin Energy          =      -0.4475033456518179 [Eh]
	 Opposite-Spin Energy      =      -1.3712536842062208 [Eh]
	 Correlation Energy        =      -1.8187570298580389 [Eh]
	 Total Energy              =    -437.4182597005601565 [Eh]

	 ================> DF-SCS-MP2 Energies <==================
	-----------------------------------------------------------
	 SCS Same-Spin Scale       =       0.3333333333333333 [-]
	 SCS Opposite-Spin Scale   =       1.2000000000000000 [-]
	 SCS Same-Spin Energy      =      -0.1491677818839393 [Eh]
	 SCS Opposite-Spin Energy  =      -1.6455044210474650 [Eh]
	 SCS Correlation Energy    =      -1.7946722029314044 [Eh]
	 SCS Total Energy          =    -437.3941748736335171 [Eh]
	-----------------------------------------------------------

  Dipole Moment: [D]
     X:     0.9577      Y:    -3.2043      Z:    -0.0000     Total:     3.3444

*** Psi4 exiting successfully. Buy a developer a beer!
