                               Psi4 1.3.2 release

  ==> Input File <==

--------------------------------------------------------------------------
#psi4
#
memory 32 gb

molecule  {
0 1
  O        0.9755400    -1.0764940     0.0000010
  O       -1.3738420     1.6199730     0.0000050
  N       -1.7006930    -0.6600630    -0.0000030
  C        0.5224480     0.2188310    -0.0000040
  C       -0.9336490     0.4655780     0.0000000
  C        1.7361791     1.2165479    -0.0000029
  C        2.7579030     0.2894600     0.0000000
  C        2.3428020    -1.0138960     0.0000040
  C       -3.1488560    -0.5988880     0.0000010
  H        1.5004040     2.1673970    -0.0000090
  H       -1.2325350    -1.5568070    -0.0000080
  H        3.7847070     0.6289700     0.0000040
  H        2.8531580    -1.9656810     0.0000030
  H       -3.4251050     0.4551520     0.0000010
  H       -3.5616590    -1.0800960     0.8913170
  H       -3.5616630    -1.0800960    -0.8913140
units angstrom
no_reorient  #important for SAPT in psi4, default
symmetry c1  #important for SAPT in psi4, default
}

set PROPERTIES_ORIGIN ["COM"]
properties('MP2/aug-cc-pvtz', properties = ['dipole'])
--------------------------------------------------------------------------

    Molecular point group: c1
  Charge       = 0
  Multiplicity = 1
  Basis Set: AUG-CC-PVTZ
    Blend: AUG-CC-PVTZ
  Basis Set: (AUG-CC-PVTZ AUX)
    Blend: AUG-CC-PVTZ-JKFIT

    Orbital Energies [Eh]
    ---------------------

    Doubly Occupied:

       1A    -20.660877     2A    -20.515599     3A    -15.588428
       4A    -11.360369     5A    -11.322197     6A    -11.312454
       7A    -11.267323     8A    -11.259200     9A    -11.252358
      10A     -1.478794    11A     -1.370603    12A     -1.231133
      13A     -1.099782    14A     -1.029123    15A     -0.950315
      16A     -0.853171    17A     -0.822237    18A     -0.777001
      19A     -0.764883    20A     -0.685264    21A     -0.657587
      22A     -0.639807    23A     -0.624250    24A     -0.618652
      25A     -0.599101    26A     -0.582743    27A     -0.546289
      28A     -0.535668    29A     -0.518555    30A     -0.432743
      31A     -0.418776    32A     -0.391886    33A     -0.306753

  @DF-RHF Final Energy:  -435.54710454165297

   => Energetics <=

    Nuclear Repulsion Energy =            426.0251892838447816
    One-Electron Energy =               -1438.1967450509202990
    Two-Electron Energy =                 576.6244512254224901
    Total Energy =                       -435.5471045416529705
  Basis Set: (AUG-CC-PVTZ AUX)
    Blend: AUG-CC-PVTZ-RI
    Molecular point group: c1

    Geometry (in Angstrom), charge = 0, multiplicity = 1:

       Center              X                  Y                   Z               Mass
    ------------   -----------------  -----------------  -----------------  -----------------
         O            0.931836736923    -1.107933200638     0.000000799170    15.994914619570
         O           -1.417545263077     1.588533799362     0.000004799170    15.994914619570
         N           -1.744396263077    -0.691502200638    -0.000003200830    14.003074004430
         C            0.478744736923     0.187391799362    -0.000004200830    12.000000000000
         C           -0.977352263077     0.434138799362    -0.000000200830    12.000000000000
         C            1.692475836923     1.185108699362    -0.000003100830    12.000000000000
         C            2.714199736923     0.258020799362    -0.000000200830    12.000000000000
         C            2.299098736923    -1.045335200638     0.000003799170    12.000000000000
         C           -3.192559263077    -0.630327200638     0.000000799170    12.000000000000
         H            1.456700736923     2.135957799362    -0.000009200830     1.007825032230
         H           -1.276238263077    -1.588246200638    -0.000008200830     1.007825032230
         H            3.741003736923     0.597530799362     0.000003799170     1.007825032230
         H            2.809454736923    -1.997120200638     0.000002799170     1.007825032230
         H           -3.468808263077     0.423712799362     0.000000799170     1.007825032230
         H           -3.605362263077    -1.111535200638     0.891316799170     1.007825032230
         H           -3.605366263077    -1.111535200638    -0.891314200830     1.007825032230

  Basis Set: AUG-CC-PVTZ
    Blend: AUG-CC-PVTZ
  Basis Set: (AUG-CC-PVTZ AUX)
    Blend: AUG-CC-PVTZ-JKFIT
	 Reference Energy          =    -435.5471045416529705 [Eh]
	 Singles Energy            =      -0.0000000000000000 [Eh]
	 Same-Spin Energy          =      -0.4532297938021760 [Eh]
	 Opposite-Spin Energy      =      -1.3805189754260871 [Eh]
	 Correlation Energy        =      -1.8337487692282632 [Eh]
	 Total Energy              =    -437.3808533108812071 [Eh]

	 ================> DF-SCS-MP2 Energies <==================
	-----------------------------------------------------------
	 SCS Same-Spin Scale       =       0.3333333333333333 [-]
	 SCS Opposite-Spin Scale   =       1.2000000000000000 [-]
	 SCS Same-Spin Energy      =      -0.1510765979340586 [Eh]
	 SCS Opposite-Spin Energy  =      -1.6566227705113046 [Eh]
	 SCS Correlation Energy    =      -1.8076993684453633 [Eh]
	 SCS Total Energy          =    -437.3548039100983260 [Eh]
	-----------------------------------------------------------

  Dipole Moment: [D]
     X:     1.1225      Y:    -3.3165      Z:    -0.0000     Total:     3.5013

*** Psi4 exiting successfully. Buy a developer a beer!
