                               Psi4 1.3.2 release

  ==> Input File <==

--------------------------------------------------------------------------
#psi4
#
memory 32 gb

molecule  {
0 1
  O        0.9755400    -1.0764940     0.0000010
  O       -1.3738420     1.6199730     0.0000050
  N       -1.7006930    -0.6600630    -0.0000030
  C        0.5224480     0.2188310    -0.0000040
  C       -0.9336490     0.4655780     0.0000000
  C        1.5816790     1.0895450    -0.0000030
  C        2.9232718     0.1769737     0.0000004
  C        2.3428020    -1.0138960     0.0000040
  C       -3.1488560    -0.5988880     0.0000010
  H        1.5004040     2.1673970    -0.0000090
  H       -1.2325350    -1.5568070    -0.0000080
  H        3.7847070     0.6289700     0.0000040
  H        2.8531580    -1.9656810     0.0000030
  H       -3.4251050     0.4551520     0.0000010
  H       -3.5616590    -1.0800960     0.8913170
  H       -3.5616630    -1.0800960    -0.8913140
units angstrom
no_reorient  #important for SAPT in psi4, default
symmetry c1  #important for SAPT in psi4, default
}

set PROPERTIES_ORIGIN ["COM"]
properties('MP2/aug-cc-pvtz', properties = ['dipole'])
--------------------------------------------------------------------------

    Molecular point group: c1
  Charge       = 0
  Multiplicity = 1
  Basis Set: AUG-CC-PVTZ
    Blend: AUG-CC-PVTZ
  Basis Set: (AUG-CC-PVTZ AUX)
    Blend: AUG-CC-PVTZ-JKFIT

    Orbital Energies [Eh]
    ---------------------

    Doubly Occupied:

       1A    -20.638748     2A    -20.516843     3A    -15.590851
       4A    -11.362222     5A    -11.313840     6A    -11.303370
       7A    -11.264859     8A    -11.260348     9A    -11.251937
      10A     -1.470797    11A     -1.372008    12A     -1.232824
      13A     -1.080668    14A     -1.044197    15A     -0.957341
      16A     -0.840352    17A     -0.830878    18A     -0.774936
      19A     -0.767764    20A     -0.670934    21A     -0.657677
      22A     -0.652049    23A     -0.628047    24A     -0.619608
      25A     -0.589397    26A     -0.574954    27A     -0.544517
      28A     -0.537596    29A     -0.506287    30A     -0.434888
      31A     -0.401720    32A     -0.391248    33A     -0.347372

  @DF-RHF Final Energy:  -435.56890208962187

   => Energetics <=

    Nuclear Repulsion Energy =            426.8590367495517057
    One-Electron Energy =               -1439.9937237520041435
    Two-Electron Energy =                 577.5657849128305088
    Total Energy =                       -435.5689020896219290
  Basis Set: (AUG-CC-PVTZ AUX)
    Blend: AUG-CC-PVTZ-RI
    Molecular point group: c1

    Geometry (in Angstrom), charge = 0, multiplicity = 1:

       Center              X                  Y                   Z               Mass
    ------------   -----------------  -----------------  -----------------  -----------------
         O            0.930793739552    -1.084951003486     0.000000770381    15.994914619570
         O           -1.418588260448     1.611515996514     0.000004770381    15.994914619570
         N           -1.745439260448    -0.668520003486    -0.000003229619    14.003074004430
         C            0.477701739552     0.210373996514    -0.000004229619    12.000000000000
         C           -0.978395260448     0.457120996514    -0.000000229619    12.000000000000
         C            1.536932739552     1.081087996514    -0.000003229619    12.000000000000
         C            2.878525539552     0.168516696514     0.000000170381    12.000000000000
         C            2.298055739552    -1.022353003486     0.000003770381    12.000000000000
         C           -3.193602260448    -0.607345003486     0.000000770381    12.000000000000
         H            1.455657739552     2.158939996514    -0.000009229619     1.007825032230
         H           -1.277281260448    -1.565264003486    -0.000008229619     1.007825032230
         H            3.739960739552     0.620512996514     0.000003770381     1.007825032230
         H            2.808411739552    -1.974138003486     0.000002770381     1.007825032230
         H           -3.469851260448     0.446694996514     0.000000770381     1.007825032230
         H           -3.606405260448    -1.088553003486     0.891316770381     1.007825032230
         H           -3.606409260448    -1.088553003486    -0.891314229619     1.007825032230

  Basis Set: AUG-CC-PVTZ
    Blend: AUG-CC-PVTZ
  Basis Set: (AUG-CC-PVTZ AUX)
    Blend: AUG-CC-PVTZ-JKFIT
	 Reference Energy          =    -435.5689020896218722 [Eh]
	 Singles Energy            =      -0.0000000000000000 [Eh]
	 Same-Spin Energy          =      -0.4449823618570713 [Eh]
	 Opposite-Spin Energy      =      -1.3707297396679863 [Eh]
	 Correlation Energy        =      -1.8157121015250577 [Eh]
	 Total Energy              =    -437.3846141911469090 [Eh]

	 ================> DF-SCS-MP2 Energies <==================
	-----------------------------------------------------------
	 SCS Same-Spin Scale       =       0.3333333333333333 [-]
	 SCS Opposite-Spin Scale   =       1.2000000000000000 [-]
	 SCS Same-Spin Energy      =      -0.1483274539523571 [Eh]
	 SCS Opposite-Spin Energy  =      -1.6448756876015835 [Eh]
	 SCS Correlation Energy    =      -1.7932031415539407 [Eh]
	 SCS Total Energy          =    -437.3621052311758035 [Eh]
	-----------------------------------------------------------

  Dipole Moment: [D]
     X:     1.0125      Y:    -3.1584      Z:    -0.0000     Total:     3.3167

*** Psi4 exiting successfully. Buy a developer a beer!
