                               Psi4 1.3.2 release

  ==> Input File <==

--------------------------------------------------------------------------
#psi4
#
memory 32 gb

molecule  {
0 1
  O        0.9755400    -1.0764940     0.0000010
  O       -1.3738420     1.6199730     0.0000050
  N       -1.7006930    -0.6600630    -0.0000030
  C        0.5679302     0.2338546    -0.0000039
  C       -0.9336490     0.4655780     0.0000000
  C        1.5816790     1.0895450    -0.0000030
  C        2.7579030     0.2894600     0.0000000
  C        2.3428020    -1.0138960     0.0000040
  C       -3.1488560    -0.5988880     0.0000010
  H        1.5004040     2.1673970    -0.0000090
  H       -1.2325350    -1.5568070    -0.0000080
  H        3.7847070     0.6289700     0.0000040
  H        2.8531580    -1.9656810     0.0000030
  H       -3.4251050     0.4551520     0.0000010
  H       -3.5616590    -1.0800960     0.8913170
  H       -3.5616630    -1.0800960    -0.8913140
units angstrom
no_reorient  #important for SAPT in psi4, default
symmetry c1  #important for SAPT in psi4, default
}

set PROPERTIES_ORIGIN ["COM"]
properties('MP2/aug-cc-pvtz', properties = ['dipole'])
--------------------------------------------------------------------------

    Molecular point group: c1
  Charge       = 0
  Multiplicity = 1
  Basis Set: AUG-CC-PVTZ
    Blend: AUG-CC-PVTZ
  Basis Set: (AUG-CC-PVTZ AUX)
    Blend: AUG-CC-PVTZ-JKFIT

    Orbital Energies [Eh]
    ---------------------

    Doubly Occupied:

       1A    -20.641863     2A    -20.517114     3A    -15.590434
       4A    -11.363317     5A    -11.309582     6A    -11.299623
       7A    -11.260275     8A    -11.246880     9A    -11.244535
      10A     -1.475096    11A     -1.370944    12A     -1.231582
      13A     -1.108923    14A     -1.034623    15A     -0.954371
      16A     -0.833287    17A     -0.821698    18A     -0.775536
      19A     -0.765107    20A     -0.666644    21A     -0.658964
      22A     -0.641745    23A     -0.619448    24A     -0.599748
      25A     -0.592801    26A     -0.576102    27A     -0.561173
      28A     -0.543862    29A     -0.535722    30A     -0.431969
      31A     -0.417998    32A     -0.392297    33A     -0.334611

  @DF-RHF Final Energy:  -435.60131248760950

   => Energetics <=

    Nuclear Repulsion Energy =            429.4679797118640181
    One-Electron Energy =               -1445.3028396575525676
    Two-Electron Energy =                 580.2335474580791015
    Total Energy =                       -435.6013124876094480
  Basis Set: (AUG-CC-PVTZ AUX)
    Blend: AUG-CC-PVTZ-RI
    Molecular point group: c1

    Geometry (in Angstrom), charge = 0, multiplicity = 1:

       Center              X                  Y                   Z               Mass
    ------------   -----------------  -----------------  -----------------  -----------------
         O            0.942298464930    -1.097187286628     0.000000799170    15.994914619570
         O           -1.407083535070     1.599279713372     0.000004799170    15.994914619570
         N           -1.733934535070    -0.680756286628    -0.000003200830    14.003074004430
         C            0.534688664930     0.213161313372    -0.000004100830    12.000000000000
         C           -0.966890535070     0.444884713372    -0.000000200830    12.000000000000
         C            1.548437464930     1.068851713372    -0.000003200830    12.000000000000
         C            2.724661464930     0.268766713372    -0.000000200830    12.000000000000
         C            2.309560464930    -1.034589286628     0.000003799170    12.000000000000
         C           -3.182097535070    -0.619581286628     0.000000799170    12.000000000000
         H            1.467162464930     2.146703713372    -0.000009200830     1.007825032230
         H           -1.265776535070    -1.577500286628    -0.000008200830     1.007825032230
         H            3.751465464930     0.608276713372     0.000003799170     1.007825032230
         H            2.819916464930    -1.986374286628     0.000002799170     1.007825032230
         H           -3.458346535070     0.434458713372     0.000000799170     1.007825032230
         H           -3.594900535070    -1.100789286628     0.891316799170     1.007825032230
         H           -3.594904535070    -1.100789286628    -0.891314200830     1.007825032230

  Basis Set: AUG-CC-PVTZ
    Blend: AUG-CC-PVTZ
  Basis Set: (AUG-CC-PVTZ AUX)
    Blend: AUG-CC-PVTZ-JKFIT
	 Reference Energy          =    -435.6013124876095048 [Eh]
	 Singles Energy            =      -0.0000000000000000 [Eh]
	 Same-Spin Energy          =      -0.4467730145732280 [Eh]
	 Opposite-Spin Energy      =      -1.3700837744915701 [Eh]
	 Correlation Energy        =      -1.8168567890647982 [Eh]
	 Total Energy              =    -437.4181692766742913 [Eh]

	 ================> DF-SCS-MP2 Energies <==================
	-----------------------------------------------------------
	 SCS Same-Spin Scale       =       0.3333333333333333 [-]
	 SCS Opposite-Spin Scale   =       1.2000000000000000 [-]
	 SCS Same-Spin Energy      =      -0.1489243381910760 [Eh]
	 SCS Opposite-Spin Energy  =      -1.6441005293898840 [Eh]
	 SCS Correlation Energy    =      -1.7930248675809601 [Eh]
	 SCS Total Energy          =    -437.3943373551904870 [Eh]
	-----------------------------------------------------------

  Dipole Moment: [D]
     X:     1.0107      Y:    -3.1776      Z:    -0.0000     Total:     3.3345

*** Psi4 exiting successfully. Buy a developer a beer!
