                               Psi4 1.3.2 release

  ==> Input File <==

--------------------------------------------------------------------------
#psi4
#
memory 32 gb

molecule  {
0 1
  O        0.9755400    -1.0764940     0.0000010
  O       -1.3536280     1.6274796     0.0000050
  N       -1.7006930    -0.6600630    -0.0000030
  C        0.5224480     0.2188310    -0.0000040
  C       -0.9336490     0.4655780     0.0000000
  C        1.5816790     1.0895450    -0.0000030
  C        2.7579030     0.2894600     0.0000000
  C        2.3428020    -1.0138960     0.0000040
  C       -3.1488560    -0.5988880     0.0000010
  H        1.5004040     2.1673970    -0.0000090
  H       -1.2325350    -1.5568070    -0.0000080
  H        3.7847070     0.6289700     0.0000040
  H        2.8531580    -1.9656810     0.0000030
  H       -3.4251050     0.4551520     0.0000010
  H       -3.5616590    -1.0800960     0.8913170
  H       -3.5616630    -1.0800960    -0.8913140
units angstrom
no_reorient  #important for SAPT in psi4, default
symmetry c1  #important for SAPT in psi4, default
}

set PROPERTIES_ORIGIN ["COM"]
properties('MP2/aug-cc-pvtz', properties = ['dipole'])
--------------------------------------------------------------------------

    Molecular point group: c1
  Charge       = 0
  Multiplicity = 1
  Basis Set: AUG-CC-PVTZ
    Blend: AUG-CC-PVTZ
  Basis Set: (AUG-CC-PVTZ AUX)
    Blend: AUG-CC-PVTZ-JKFIT

    Orbital Energies [Eh]
    ---------------------

    Doubly Occupied:

       1A    -20.642916     2A    -20.516312     3A    -15.590127
       4A    -11.360697     5A    -11.311872     6A    -11.300523
       7A    -11.260317     8A    -11.251676     9A    -11.247484
      10A     -1.473806    11A     -1.371038    12A     -1.232860
      13A     -1.100805    14A     -1.038324    15A     -0.954442
      16A     -0.840926    17A     -0.818972    18A     -0.775885
      19A     -0.764500    20A     -0.671219    21A     -0.658292
      22A     -0.642335    23A     -0.619201    24A     -0.600819
      25A     -0.585878    26A     -0.577117    27A     -0.561203
      28A     -0.543242    29A     -0.536772    30A     -0.433854
      31A     -0.413838    32A     -0.392636    33A     -0.330220

  @DF-RHF Final Energy:  -435.60199233858913

   => Energetics <=

    Nuclear Repulsion Energy =            429.4750893112744734
    One-Electron Energy =               -1445.3139447469570769
    Two-Electron Energy =                 580.2368630970934191
    Total Energy =                       -435.6019923385891843
  Basis Set: (AUG-CC-PVTZ AUX)
    Blend: AUG-CC-PVTZ-RI
    Molecular point group: c1

    Geometry (in Angstrom), charge = 0, multiplicity = 1:

       Center              X                  Y                   Z               Mass
    ------------   -----------------  -----------------  -----------------  -----------------
         O            0.944077507921    -1.096705744111     0.000000808766    15.994914619570
         O           -1.385090492079     1.607267855889     0.000004808766    15.994914619570
         N           -1.732155492079    -0.680274744111    -0.000003191234    14.003074004430
         C            0.490985507921     0.198619255889    -0.000004191234    12.000000000000
         C           -0.965111492079     0.445366255889    -0.000000191234    12.000000000000
         C            1.550216507921     1.069333255889    -0.000003191234    12.000000000000
         C            2.726440507921     0.269248255889    -0.000000191234    12.000000000000
         C            2.311339507921    -1.034107744111     0.000003808766    12.000000000000
         C           -3.180318492079    -0.619099744111     0.000000808766    12.000000000000
         H            1.468941507921     2.147185255889    -0.000009191234     1.007825032230
         H           -1.263997492079    -1.577018744111    -0.000008191234     1.007825032230
         H            3.753244507921     0.608758255889     0.000003808766     1.007825032230
         H            2.821695507921    -1.985892744111     0.000002808766     1.007825032230
         H           -3.456567492079     0.434940255889     0.000000808766     1.007825032230
         H           -3.593121492079    -1.100307744111     0.891316808766     1.007825032230
         H           -3.593125492079    -1.100307744111    -0.891314191234     1.007825032230

  Basis Set: AUG-CC-PVTZ
    Blend: AUG-CC-PVTZ
  Basis Set: (AUG-CC-PVTZ AUX)
    Blend: AUG-CC-PVTZ-JKFIT
	 Reference Energy          =    -435.6019923385891275 [Eh]
	 Singles Energy            =      -0.0000000000000000 [Eh]
	 Same-Spin Energy          =      -0.4478097446275967 [Eh]
	 Opposite-Spin Energy      =      -1.3714402113881656 [Eh]
	 Correlation Energy        =      -1.8192499560157622 [Eh]
	 Total Energy              =    -437.4212422946048946 [Eh]

	 ================> DF-SCS-MP2 Energies <==================
	-----------------------------------------------------------
	 SCS Same-Spin Scale       =       0.3333333333333333 [-]
	 SCS Opposite-Spin Scale   =       1.2000000000000000 [-]
	 SCS Same-Spin Energy      =      -0.1492699148758656 [Eh]
	 SCS Opposite-Spin Energy  =      -1.6457282536657987 [Eh]
	 SCS Correlation Energy    =      -1.7949981685416643 [Eh]
	 SCS Total Energy          =    -437.3969905071307949 [Eh]
	-----------------------------------------------------------

  Dipole Moment: [D]
     X:     1.0139      Y:    -3.2525      Z:    -0.0000     Total:     3.4069

*** Psi4 exiting successfully. Buy a developer a beer!
