                               Psi4 1.4a3.dev225

  ==> Input File <==

--------------------------------------------------------------------------
#psi4
#
memory 32 gb

molecule  {
0 1
  O        0.9755400    -1.0764940     0.0000010
  O       -1.3738420     1.6199730     0.0000050
  N       -1.7006930    -0.6600630    -0.0000030
  C        0.5224480     0.2188310    -0.0000040
  C       -0.9336490     0.4655780     0.0000000
  C        1.5816790     1.0895450    -0.0000030
  C        2.7579030     0.2894600     0.0000000
  C        2.3428020    -1.0138960     0.0000040
  C       -3.1488560    -0.5988880     0.0000010
  H        1.5041636     2.1175385    -0.0000087
  H       -1.2325350    -1.5568070    -0.0000080
  H        3.7847070     0.6289700     0.0000040
  H        2.8531580    -1.9656810     0.0000030
  H       -3.4251050     0.4551520     0.0000010
  H       -3.5616590    -1.0800960     0.8913170
  H       -3.5616630    -1.0800960    -0.8913140
units angstrom
no_reorient  #important for SAPT in psi4, default
symmetry c1  #important for SAPT in psi4, default
}

set PROPERTIES_ORIGIN ["COM"]
properties('MP2/aug-cc-pvtz', properties = ['dipole'])
--------------------------------------------------------------------------

    Molecular point group: c1
  Charge       = 0
  Multiplicity = 1
  Basis Set: AUG-CC-PVTZ
    Blend: AUG-CC-PVTZ
  Basis Set: (AUG-CC-PVTZ AUX)
    Blend: AUG-CC-PVTZ-JKFIT

    Orbital Energies [Eh]
    ---------------------

    Doubly Occupied:

       1A    -20.643484     2A    -20.516020     3A    -15.589087
       4A    -11.360580     5A    -11.312431     6A    -11.301386
       7A    -11.259453     8A    -11.248145     9A    -11.246888
      10A     -1.474308    11A     -1.371168    12A     -1.231527
      13A     -1.102482    14A     -1.039260    15A     -0.954289
      16A     -0.842556    17A     -0.821960    18A     -0.777188
      19A     -0.767489    20A     -0.672367    21A     -0.658655
      22A     -0.641964    23A     -0.618704    24A     -0.601390
      25A     -0.594542    26A     -0.577452    27A     -0.561834
      28A     -0.542313    29A     -0.536421    30A     -0.433998
      31A     -0.414318    32A     -0.391881    33A     -0.330917

  @DF-RHF Final Energy:  -435.60126586085875

   => Energetics <=

    Nuclear Repulsion Energy =            429.7008042079345955
    One-Electron Energy =               -1445.7312297202249738
    Two-Electron Energy =                 580.4291596514315188
    Total Energy =                       -435.6012658608588026
  Basis Set: (AUG-CC-PVTZ AUX)
    Blend: AUG-CC-PVTZ-RI
    Molecular point group: c1

    Geometry (in Angstrom), charge = 0, multiplicity = 1:

       Center              X                  Y                   Z               Mass
    ------------   -----------------  -----------------  -----------------  -----------------
         O            0.946632790746    -1.095343735055     0.000000806349    15.994914619570
         O           -1.402749209254     1.601123264945     0.000004806349    15.994914619570
         N           -1.729600209254    -0.678912735055    -0.000003193651    14.003074004430
         C            0.493540790746     0.199981264945    -0.000004193651    12.000000000000
         C           -0.962556209254     0.446728264945    -0.000000193651    12.000000000000
         C            1.552771790746     1.070695264945    -0.000003193651    12.000000000000
         C            2.728995790746     0.270610264945    -0.000000193651    12.000000000000
         C            2.313894790746    -1.032745735055     0.000003806349    12.000000000000
         C           -3.177763209254    -0.617737735055     0.000000806349    12.000000000000
         H            1.475256390746     2.098688764945    -0.000008893651     1.007825032230
         H           -1.261442209254    -1.575656735055    -0.000008193651     1.007825032230
         H            3.755799790746     0.610120264945     0.000003806349     1.007825032230
         H            2.824250790746    -1.984530735055     0.000002806349     1.007825032230
         H           -3.454012209254     0.436302264945     0.000000806349     1.007825032230
         H           -3.590566209254    -1.098945735055     0.891316806349     1.007825032230
         H           -3.590570209254    -1.098945735055    -0.891314193651     1.007825032230

  Basis Set: AUG-CC-PVTZ
    Blend: AUG-CC-PVTZ
  Basis Set: (AUG-CC-PVTZ AUX)
    Blend: AUG-CC-PVTZ-JKFIT
	 Reference Energy          =    -435.6012658608587458 [Eh]
	 Singles Energy            =      -0.0000000000000000 [Eh]
	 Same-Spin Energy          =      -0.4477312500285732 [Eh]
	 Opposite-Spin Energy      =      -1.3711269444714516 [Eh]
	 Correlation Energy        =      -1.8188581945000246 [Eh]
	 Total Energy              =    -437.4201240553587695 [Eh]

	 ================> DF-SCS-MP2 Energies <==================
	-----------------------------------------------------------
	 SCS Same-Spin Scale       =       0.3333333333333333 [-]
	 SCS Opposite-Spin Scale   =       1.2000000000000000 [-]
	 SCS Same-Spin Energy      =      -0.1492437500095244 [Eh]
	 SCS Opposite-Spin Energy  =      -1.6453523333657418 [Eh]
	 SCS Correlation Energy    =      -1.7945960833752661 [Eh]
	 SCS Total Energy          =    -437.3958619442340137 [Eh]
	-----------------------------------------------------------

  Dipole Moment: [D]
     X:     1.0895      Y:    -3.2501      Z:    -0.0000     Total:     3.4279

*** Psi4 exiting successfully. Buy a developer a beer!
