                               Psi4 1.3.2 release

  ==> Input File <==

--------------------------------------------------------------------------
#psi4
#
memory 32 gb

molecule  {
0 1
  O        0.9755400    -1.0764940     0.0000010
  O       -1.3738420     1.6199730     0.0000050
  N       -1.7006930    -0.6600630    -0.0000030
  C        0.5224480     0.2188310    -0.0000040
  C       -0.9336490     0.4655780     0.0000000
  C        1.5816790     1.0895450    -0.0000030
  C        2.7579030     0.2894600     0.0000000
  C        2.3124553    -1.1091802     0.0000043
  C       -3.1488560    -0.5988880     0.0000010
  H        1.5004040     2.1673970    -0.0000090
  H       -1.2325350    -1.5568070    -0.0000080
  H        3.7847070     0.6289700     0.0000040
  H        2.8531580    -1.9656810     0.0000030
  H       -3.4251050     0.4551520     0.0000010
  H       -3.5616590    -1.0800960     0.8913170
  H       -3.5616630    -1.0800960    -0.8913140
units angstrom
no_reorient  #important for SAPT in psi4, default
symmetry c1  #important for SAPT in psi4, default
}

set PROPERTIES_ORIGIN ["COM"]
properties('MP2/aug-cc-pvtz', properties = ['dipole'])
--------------------------------------------------------------------------

    Molecular point group: c1
  Charge       = 0
  Multiplicity = 1
  Basis Set: AUG-CC-PVTZ
    Blend: AUG-CC-PVTZ
  Basis Set: (AUG-CC-PVTZ AUX)
    Blend: AUG-CC-PVTZ-JKFIT

    Orbital Energies [Eh]
    ---------------------

    Doubly Occupied:

       1A    -20.652586     2A    -20.515922     3A    -15.588787
       4A    -11.361045     5A    -11.320228     6A    -11.301571
       7A    -11.259439     8A    -11.256388     9A    -11.253714
      10A     -1.486300    11A     -1.371357    12A     -1.231548
      13A     -1.091107    14A     -1.039004    15A     -0.953646
      16A     -0.846764    17A     -0.820470    18A     -0.777045
      19A     -0.766104    20A     -0.697044    21A     -0.663775
      22A     -0.641161    23A     -0.619419    24A     -0.606936
      25A     -0.590063    26A     -0.568119    27A     -0.553625
      28A     -0.539215    29A     -0.537020    30A     -0.434415
      31A     -0.407395    32A     -0.392079    33A     -0.320742

  @DF-RHF Final Energy:  -435.58585939877685

   => Energetics <=

    Nuclear Repulsion Energy =            428.6297925716023087
    One-Electron Energy =               -1443.5032419951287466
    Two-Electron Energy =                 579.2875900247495338
    Total Energy =                       -435.5858593987768472
  Basis Set: (AUG-CC-PVTZ AUX)
    Blend: AUG-CC-PVTZ-RI
    Molecular point group: c1

    Geometry (in Angstrom), charge = 0, multiplicity = 1:

       Center              X                  Y                   Z               Mass
    ------------   -----------------  -----------------  -----------------  -----------------
         O            0.949575263757    -1.086601775436     0.000000779977    15.994914619570
         O           -1.399806736243     1.609865224564     0.000004779977    15.994914619570
         N           -1.726657736243    -0.670170775436    -0.000003220023    14.003074004430
         C            0.496483263757     0.208723224564    -0.000004220023    12.000000000000
         C           -0.959613736243     0.455470224564    -0.000000220023    12.000000000000
         C            1.555714263757     1.079437224564    -0.000003220023    12.000000000000
         C            2.731938263757     0.279352224564    -0.000000220023    12.000000000000
         C            2.286490563757    -1.119287975436     0.000004079977    12.000000000000
         C           -3.174820736243    -0.608995775436     0.000000779977    12.000000000000
         H            1.474439263757     2.157289224564    -0.000009220023     1.007825032230
         H           -1.258499736243    -1.566914775436    -0.000008220023     1.007825032230
         H            3.758742263757     0.618862224564     0.000003779977     1.007825032230
         H            2.827193263757    -1.975788775436     0.000002779977     1.007825032230
         H           -3.451069736243     0.445044224564     0.000000779977     1.007825032230
         H           -3.587623736243    -1.090203775436     0.891316779977     1.007825032230
         H           -3.587627736243    -1.090203775436    -0.891314220023     1.007825032230

  Basis Set: AUG-CC-PVTZ
    Blend: AUG-CC-PVTZ
  Basis Set: (AUG-CC-PVTZ AUX)
    Blend: AUG-CC-PVTZ-JKFIT
	 Reference Energy          =    -435.5858593987768472 [Eh]
	 Singles Energy            =      -0.0000000000000000 [Eh]
	 Same-Spin Energy          =      -0.4493359049229136 [Eh]
	 Opposite-Spin Energy      =      -1.3734487865626912 [Eh]
	 Correlation Energy        =      -1.8227846914856047 [Eh]
	 Total Energy              =    -437.4086440902624418 [Eh]

	 ================> DF-SCS-MP2 Energies <==================
	-----------------------------------------------------------
	 SCS Same-Spin Scale       =       0.3333333333333333 [-]
	 SCS Opposite-Spin Scale   =       1.2000000000000000 [-]
	 SCS Same-Spin Energy      =      -0.1497786349743045 [Eh]
	 SCS Opposite-Spin Energy  =      -1.6481385438752294 [Eh]
	 SCS Correlation Energy    =      -1.7979171788495338 [Eh]
	 SCS Total Energy          =    -437.3837765776264064 [Eh]
	-----------------------------------------------------------

  Dipole Moment: [D]
     X:     0.9548      Y:    -3.3189      Z:    -0.0000     Total:     3.4535

*** Psi4 exiting successfully. Buy a developer a beer!
