                               Psi4 1.3.2 release

  ==> Input File <==

--------------------------------------------------------------------------
#psi4
#
memory 32 gb

molecule  {
0 1
  O        0.9755400    -1.0764940     0.0000010
  O       -1.3738420     1.6199730     0.0000050
  N       -1.7006930    -0.6600630    -0.0000030
  C        0.5224480     0.2188310    -0.0000040
  C       -0.9336490     0.4655780     0.0000000
  C        1.5816790     1.0895450    -0.0000030
  C        2.7579030     0.2894600     0.0000000
  C        2.2975684    -0.9986152     0.0000037
  C       -3.1488560    -0.5988880     0.0000010
  H        1.5004040     2.1673970    -0.0000090
  H       -1.2325350    -1.5568070    -0.0000080
  H        3.7847070     0.6289700     0.0000040
  H        2.8531580    -1.9656810     0.0000030
  H       -3.4251050     0.4551520     0.0000010
  H       -3.5616590    -1.0800960     0.8913170
  H       -3.5616630    -1.0800960    -0.8913140
units angstrom
no_reorient  #important for SAPT in psi4, default
symmetry c1  #important for SAPT in psi4, default
}

set PROPERTIES_ORIGIN ["COM"]
properties('MP2/aug-cc-pvtz', properties = ['dipole'])
--------------------------------------------------------------------------

    Molecular point group: c1
  Charge       = 0
  Multiplicity = 1
  Basis Set: AUG-CC-PVTZ
    Blend: AUG-CC-PVTZ
  Basis Set: (AUG-CC-PVTZ AUX)
    Blend: AUG-CC-PVTZ-JKFIT

    Orbital Energies [Eh]
    ---------------------

    Doubly Occupied:

       1A    -20.650181     2A    -20.514625     3A    -15.588587
       4A    -11.359702     5A    -11.314554     6A    -11.298826
       7A    -11.259202     8A    -11.253806     9A    -11.244454
      10A     -1.494664    11A     -1.370343    12A     -1.231219
      13A     -1.104678    14A     -1.040784    15A     -0.952863
      16A     -0.838200    17A     -0.824613    18A     -0.776228
      19A     -0.768801    20A     -0.669659    21A     -0.669180
      22A     -0.641395    23A     -0.619765    24A     -0.605312
      25A     -0.589457    26A     -0.576989    27A     -0.555099
      28A     -0.541488    29A     -0.536623    30A     -0.432848
      31A     -0.414898    32A     -0.391766    33A     -0.329857

  @DF-RHF Final Energy:  -435.60140290344310

   => Energetics <=

    Nuclear Repulsion Energy =            430.5076615296838440
    One-Electron Energy =               -1447.2967996568752369
    Two-Electron Energy =                 581.1877352237481773
    Total Energy =                       -435.6014029034431587
  Basis Set: (AUG-CC-PVTZ AUX)
    Blend: AUG-CC-PVTZ-RI
    Molecular point group: c1

    Geometry (in Angstrom), charge = 0, multiplicity = 1:

       Center              X                  Y                   Z               Mass
    ------------   -----------------  -----------------  -----------------  -----------------
         O            0.951003861250    -1.097211968414     0.000000837555    15.994914619570
         O           -1.398378138750     1.599255031586     0.000004837555    15.994914619570
         N           -1.725229138750    -0.680780968414    -0.000003162445    14.003074004430
         C            0.497911861250     0.198113031586    -0.000004162445    12.000000000000
         C           -0.958185138750     0.444860031586    -0.000000162445    12.000000000000
         C            1.557142861250     1.068827031586    -0.000003162445    12.000000000000
         C            2.733366861250     0.268742031586    -0.000000162445    12.000000000000
         C            2.273032261250    -1.019333168414     0.000003537555    12.000000000000
         C           -3.173392138750    -0.619605968414     0.000000837555    12.000000000000
         H            1.475867861250     2.146679031586    -0.000009162445     1.007825032230
         H           -1.257071138750    -1.577524968414    -0.000008162445     1.007825032230
         H            3.760170861250     0.608252031586     0.000003837555     1.007825032230
         H            2.828621861250    -1.986398968414     0.000002837555     1.007825032230
         H           -3.449641138750     0.434434031586     0.000000837555     1.007825032230
         H           -3.586195138750    -1.100813968414     0.891316837555     1.007825032230
         H           -3.586199138750    -1.100813968414    -0.891314162445     1.007825032230

  Basis Set: AUG-CC-PVTZ
    Blend: AUG-CC-PVTZ
  Basis Set: (AUG-CC-PVTZ AUX)
    Blend: AUG-CC-PVTZ-JKFIT
	 Reference Energy          =    -435.6014029034431019 [Eh]
	 Singles Energy            =      -0.0000000000000000 [Eh]
	 Same-Spin Energy          =      -0.4476472039600987 [Eh]
	 Opposite-Spin Energy      =      -1.3701784401432926 [Eh]
	 Correlation Energy        =      -1.8178256441033913 [Eh]
	 Total Energy              =    -437.4192285475464814 [Eh]

	 ================> DF-SCS-MP2 Energies <==================
	-----------------------------------------------------------
	 SCS Same-Spin Scale       =       0.3333333333333333 [-]
	 SCS Opposite-Spin Scale   =       1.2000000000000000 [-]
	 SCS Same-Spin Energy      =      -0.1492157346533662 [Eh]
	 SCS Opposite-Spin Energy  =      -1.6442141281719511 [Eh]
	 SCS Correlation Energy    =      -1.7934298628253174 [Eh]
	 SCS Total Energy          =    -437.3948327662683937 [Eh]
	-----------------------------------------------------------

  Dipole Moment: [D]
     X:     1.0564      Y:    -3.2486      Z:    -0.0000     Total:     3.4160

*** Psi4 exiting successfully. Buy a developer a beer!
