                               Psi4 1.3.2 release

  ==> Input File <==

--------------------------------------------------------------------------
#psi4
#
memory 32 gb

molecule  {
0 1
  O        0.9755400    -1.0764940     0.0000010
  O       -1.3738420     1.6199730     0.0000050
  N       -1.7006930    -0.6600630    -0.0000030
  C        0.4894306     0.3132230    -0.0000044
  C       -0.9336490     0.4655780     0.0000000
  C        1.5816790     1.0895450    -0.0000030
  C        2.7579030     0.2894600     0.0000000
  C        2.3428020    -1.0138960     0.0000040
  C       -3.1488560    -0.5988880     0.0000010
  H        1.5004040     2.1673970    -0.0000090
  H       -1.2325350    -1.5568070    -0.0000080
  H        3.7847070     0.6289700     0.0000040
  H        2.8531580    -1.9656810     0.0000030
  H       -3.4251050     0.4551520     0.0000010
  H       -3.5616590    -1.0800960     0.8913170
  H       -3.5616630    -1.0800960    -0.8913140
units angstrom
no_reorient  #important for SAPT in psi4, default
symmetry c1  #important for SAPT in psi4, default
}

set PROPERTIES_ORIGIN ["COM"]
properties('MP2/aug-cc-pvtz', properties = ['dipole'])
--------------------------------------------------------------------------

    Molecular point group: c1
  Charge       = 0
  Multiplicity = 1
  Basis Set: AUG-CC-PVTZ
    Blend: AUG-CC-PVTZ
  Basis Set: (AUG-CC-PVTZ AUX)
    Blend: AUG-CC-PVTZ-JKFIT

    Orbital Energies [Eh]
    ---------------------

    Doubly Occupied:

       1A    -20.628758     2A    -20.513568     3A    -15.588989
       4A    -11.358308     5A    -11.317981     6A    -11.299291
       7A    -11.259553     8A    -11.258668     9A    -11.246580
      10A     -1.439147    11A     -1.372551    12A     -1.230660
      13A     -1.104230    14A     -1.039733    15A     -0.954804
      16A     -0.852254    17A     -0.811357    18A     -0.774960
      19A     -0.757331    20A     -0.670317    21A     -0.643257
      22A     -0.642711    23A     -0.614486    24A     -0.598689
      25A     -0.586077    26A     -0.574969    27A     -0.558664
      28A     -0.539824    29A     -0.538126    30A     -0.434071
      31A     -0.417495    32A     -0.391370    33A     -0.336097

  @DF-RHF Final Energy:  -435.59141006857232

   => Energetics <=

    Nuclear Repulsion Energy =            428.8683117081607747
    One-Electron Energy =               -1444.2096920765065988
    Two-Electron Energy =                 579.7499702997735085
    Total Energy =                       -435.5914100685723724
  Basis Set: (AUG-CC-PVTZ AUX)
    Blend: AUG-CC-PVTZ-RI
    Molecular point group: c1

    Geometry (in Angstrom), charge = 0, multiplicity = 1:

       Center              X                  Y                   Z               Mass
    ------------   -----------------  -----------------  -----------------  -----------------
         O            0.949831553201    -1.104803747899     0.000000847152    15.994914619570
         O           -1.399550446799     1.591663252101     0.000004847152    15.994914619570
         N           -1.726401446799    -0.688372747899    -0.000003152848    14.003074004430
         C            0.463722153201     0.284913252101    -0.000004552848    12.000000000000
         C           -0.959357446799     0.437268252101    -0.000000152848    12.000000000000
         C            1.555970553201     1.061235252101    -0.000003152848    12.000000000000
         C            2.732194553201     0.261150252101    -0.000000152848    12.000000000000
         C            2.317093553201    -1.042205747899     0.000003847152    12.000000000000
         C           -3.174564446799    -0.627197747899     0.000000847152    12.000000000000
         H            1.474695553201     2.139087252101    -0.000009152848     1.007825032230
         H           -1.258243446799    -1.585116747899    -0.000008152848     1.007825032230
         H            3.758998553201     0.600660252101     0.000003847152     1.007825032230
         H            2.827449553201    -1.993990747899     0.000002847152     1.007825032230
         H           -3.450813446799     0.426842252101     0.000000847152     1.007825032230
         H           -3.587367446799    -1.108405747899     0.891316847152     1.007825032230
         H           -3.587371446799    -1.108405747899    -0.891314152848     1.007825032230

  Basis Set: AUG-CC-PVTZ
    Blend: AUG-CC-PVTZ
  Basis Set: (AUG-CC-PVTZ AUX)
    Blend: AUG-CC-PVTZ-JKFIT
	 Reference Energy          =    -435.5914100685723156 [Eh]
	 Singles Energy            =      -0.0000000000000000 [Eh]
	 Same-Spin Energy          =      -0.4478859056300672 [Eh]
	 Opposite-Spin Energy      =      -1.3727743777164503 [Eh]
	 Correlation Energy        =      -1.8206602833465175 [Eh]
	 Total Energy              =    -437.4120703519188282 [Eh]

	 ================> DF-SCS-MP2 Energies <==================
	-----------------------------------------------------------
	 SCS Same-Spin Scale       =       0.3333333333333333 [-]
	 SCS Opposite-Spin Scale   =       1.2000000000000000 [-]
	 SCS Same-Spin Energy      =      -0.1492953018766891 [Eh]
	 SCS Opposite-Spin Energy  =      -1.6473292532597403 [Eh]
	 SCS Correlation Energy    =      -1.7966245551364295 [Eh]
	 SCS Total Energy          =    -437.3880346237087338 [Eh]
	-----------------------------------------------------------

  Dipole Moment: [D]
     X:     1.0991      Y:    -3.0887      Z:    -0.0000     Total:     3.2784

*** Psi4 exiting successfully. Buy a developer a beer!
