                               Psi4 1.3.2 release

  ==> Input File <==

--------------------------------------------------------------------------
#psi4
#
memory 32 gb

molecule  {
0 1
  O        0.9755400    -1.0764940     0.0000010
  O       -1.3738420     1.6199730     0.0000050
  N       -1.7006930    -0.6600630    -0.0000030
  C        0.5224480     0.2188310    -0.0000040
  C       -0.9336490     0.4655780     0.0000000
  C        1.5816790     1.0895450    -0.0000030
  C        2.7579030     0.2894600     0.0000000
  C        2.3731487    -0.9186118     0.0000037
  C       -3.1488560    -0.5988880     0.0000010
  H        1.5004040     2.1673970    -0.0000090
  H       -1.2325350    -1.5568070    -0.0000080
  H        3.7847070     0.6289700     0.0000040
  H        2.8531580    -1.9656810     0.0000030
  H       -3.4251050     0.4551520     0.0000010
  H       -3.5616590    -1.0800960     0.8913170
  H       -3.5616630    -1.0800960    -0.8913140
units angstrom
no_reorient  #important for SAPT in psi4, default
symmetry c1  #important for SAPT in psi4, default
}

set PROPERTIES_ORIGIN ["COM"]
properties('MP2/aug-cc-pvtz', properties = ['dipole'])
--------------------------------------------------------------------------

    Molecular point group: c1
  Charge       = 0
  Multiplicity = 1
  Basis Set: AUG-CC-PVTZ
    Blend: AUG-CC-PVTZ
  Basis Set: (AUG-CC-PVTZ AUX)
    Blend: AUG-CC-PVTZ-JKFIT

    Orbital Energies [Eh]
    ---------------------

    Doubly Occupied:

       1A    -20.634881     2A    -20.515879     3A    -15.589241
       4A    -11.359975     5A    -11.305064     6A    -11.301748
       7A    -11.259376     8A    -11.251545     9A    -11.237684
      10A     -1.461900    11A     -1.370717    12A     -1.231390
      13A     -1.121364    14A     -1.036986    15A     -0.955640
      16A     -0.843415    17A     -0.809700    18A     -0.775666
      19A     -0.762948    20A     -0.654746    21A     -0.654405
      22A     -0.642084    23A     -0.617909    24A     -0.601641
      25A     -0.584213    26A     -0.577274    27A     -0.558393
      28A     -0.542817    29A     -0.535788    30A     -0.433165
      31A     -0.428003    32A     -0.391655    33A     -0.338903

  @DF-RHF Final Energy:  -435.58826458870288

   => Energetics <=

    Nuclear Repulsion Energy =            430.3487796466582722
    One-Electron Energy =               -1447.1018580280147035
    Two-Electron Energy =                 581.1648137926534901
    Total Energy =                       -435.5882645887029412
  Basis Set: (AUG-CC-PVTZ AUX)
    Blend: AUG-CC-PVTZ-RI
    Molecular point group: c1

    Geometry (in Angstrom), charge = 0, multiplicity = 1:

       Center              X                  Y                   Z               Mass
    ------------   -----------------  -----------------  -----------------  -----------------
         O            0.943750918924    -1.104889366441     0.000000837555    15.994914619570
         O           -1.405631081076     1.591577633559     0.000004837555    15.994914619570
         N           -1.732482081076    -0.688458366441    -0.000003162445    14.003074004430
         C            0.490658918924     0.190435633559    -0.000004162445    12.000000000000
         C           -0.965438081076     0.437182633559    -0.000000162445    12.000000000000
         C            1.549889918924     1.061149633559    -0.000003162445    12.000000000000
         C            2.726113918924     0.261064633559    -0.000000162445    12.000000000000
         C            2.341359618924    -0.947007166441     0.000003537555    12.000000000000
         C           -3.180645081076    -0.627283366441     0.000000837555    12.000000000000
         H            1.468614918924     2.139001633559    -0.000009162445     1.007825032230
         H           -1.264324081076    -1.585202366441    -0.000008162445     1.007825032230
         H            3.752917918924     0.600574633559     0.000003837555     1.007825032230
         H            2.821368918924    -1.994076366441     0.000002837555     1.007825032230
         H           -3.456894081076     0.426756633559     0.000000837555     1.007825032230
         H           -3.593448081076    -1.108491366441     0.891316837555     1.007825032230
         H           -3.593452081076    -1.108491366441    -0.891314162445     1.007825032230

  Basis Set: AUG-CC-PVTZ
    Blend: AUG-CC-PVTZ
  Basis Set: (AUG-CC-PVTZ AUX)
    Blend: AUG-CC-PVTZ-JKFIT
	 Reference Energy          =    -435.5882645887028843 [Eh]
	 Singles Energy            =      -0.0000000000000000 [Eh]
	 Same-Spin Energy          =      -0.4469046847775957 [Eh]
	 Opposite-Spin Energy      =      -1.3708511486955803 [Eh]
	 Correlation Energy        =      -1.8177558334731760 [Eh]
	 Total Energy              =    -437.4060204221760841 [Eh]

	 ================> DF-SCS-MP2 Energies <==================
	-----------------------------------------------------------
	 SCS Same-Spin Scale       =       0.3333333333333333 [-]
	 SCS Opposite-Spin Scale   =       1.2000000000000000 [-]
	 SCS Same-Spin Energy      =      -0.1489682282591986 [Eh]
	 SCS Opposite-Spin Energy  =      -1.6450213784346963 [Eh]
	 SCS Correlation Energy    =      -1.7939896066938950 [Eh]
	 SCS Total Energy          =    -437.3822541953967971 [Eh]
	-----------------------------------------------------------

  Dipole Moment: [D]
     X:     1.2175      Y:    -3.1125      Z:    -0.0000     Total:     3.3422

*** Psi4 exiting successfully. Buy a developer a beer!
