                               Psi4 1.3.2 release

  ==> Input File <==

--------------------------------------------------------------------------
#psi4
#
memory 32 gb

molecule  {
0 1
  O        0.9755400    -1.0764940     0.0000010
  O       -1.3738420     1.6199730     0.0000050
  N       -1.7006930    -0.6600630    -0.0000030
  C        0.5224480     0.2188310    -0.0000040
  C       -0.9336490     0.4655780     0.0000000
  C        1.5816790     1.0895450    -0.0000030
  C        2.7579030     0.2894600     0.0000000
  C        2.3428020    -1.0138960     0.0000040
  C       -3.1488560    -0.5988880     0.0000010
  H        1.5004040     2.1673970    -0.0000090
  H       -1.2325350    -1.5568070    -0.0000080
  H        3.7847070     0.6289700     0.0000040
  H        2.9004140    -2.0538108     0.0000029
  H       -3.4251050     0.4551520     0.0000010
  H       -3.5616590    -1.0800960     0.8913170
  H       -3.5616630    -1.0800960    -0.8913140
units angstrom
no_reorient  #important for SAPT in psi4, default
symmetry c1  #important for SAPT in psi4, default
}

set PROPERTIES_ORIGIN ["COM"]
properties('MP2/aug-cc-pvtz', properties = ['dipole'])
--------------------------------------------------------------------------

    Molecular point group: c1
  Charge       = 0
  Multiplicity = 1
  Basis Set: AUG-CC-PVTZ
    Blend: AUG-CC-PVTZ
  Basis Set: (AUG-CC-PVTZ AUX)
    Blend: AUG-CC-PVTZ-JKFIT

    Orbital Energies [Eh]
    ---------------------

    Doubly Occupied:

       1A    -20.644422     2A    -20.515945     3A    -15.589074
       4A    -11.360628     5A    -11.322937     6A    -11.301610
       7A    -11.259438     8A    -11.253006     9A    -11.248553
      10A     -1.474989    11A     -1.371115    12A     -1.231511
      13A     -1.101984    14A     -1.036597    15A     -0.952610
      16A     -0.838057    17A     -0.815477    18A     -0.774785
      19A     -0.763120    20A     -0.659225    21A     -0.658905
      22A     -0.641828    23A     -0.618773    24A     -0.599731
      25A     -0.585379    26A     -0.575873    27A     -0.557547
      28A     -0.541789    29A     -0.536435    30A     -0.433857
      31A     -0.414800    32A     -0.391889    33A     -0.331074

  @DF-RHF Final Energy:  -435.59439819798797

   => Energetics <=

    Nuclear Repulsion Energy =            428.9509825375785681
    One-Electron Energy =               -1444.2848310982999465
    Two-Electron Energy =                 579.7394503627334643
    Total Energy =                       -435.5943981979879709
  Basis Set: (AUG-CC-PVTZ AUX)
    Blend: AUG-CC-PVTZ-RI
    Molecular point group: c1

    Geometry (in Angstrom), charge = 0, multiplicity = 1:

       Center              X                  Y                   Z               Mass
    ------------   -----------------  -----------------  -----------------  -----------------
         O            0.946282230374    -1.095035286513     0.000000809572    15.994914619570
         O           -1.403099769626     1.601431713487     0.000004809572    15.994914619570
         N           -1.729950769626    -0.678604286513    -0.000003190428    14.003074004430
         C            0.493190230374     0.200289713487    -0.000004190428    12.000000000000
         C           -0.962906769626     0.447036713487    -0.000000190428    12.000000000000
         C            1.552421230374     1.071003713487    -0.000003190428    12.000000000000
         C            2.728645230374     0.270918713487    -0.000000190428    12.000000000000
         C            2.313544230374    -1.032437286513     0.000003809572    12.000000000000
         C           -3.178113769626    -0.617429286513     0.000000809572    12.000000000000
         H            1.471146230374     2.148855713487    -0.000009190428     1.007825032230
         H           -1.261792769626    -1.575348286513    -0.000008190428     1.007825032230
         H            3.755449230374     0.610428713487     0.000003809572     1.007825032230
         H            2.871156230374    -2.072352086513     0.000002709572     1.007825032230
         H           -3.454362769626     0.436610713487     0.000000809572     1.007825032230
         H           -3.590916769626    -1.098637286513     0.891316809572     1.007825032230
         H           -3.590920769626    -1.098637286513    -0.891314190428     1.007825032230

  Basis Set: AUG-CC-PVTZ
    Blend: AUG-CC-PVTZ
  Basis Set: (AUG-CC-PVTZ AUX)
    Blend: AUG-CC-PVTZ-JKFIT
	 Reference Energy          =    -435.5943981979879709 [Eh]
	 Singles Energy            =      -0.0000000000000000 [Eh]
	 Same-Spin Energy          =      -0.4480819172148184 [Eh]
	 Opposite-Spin Energy      =      -1.3723810833014136 [Eh]
	 Correlation Energy        =      -1.8204630005162321 [Eh]
	 Total Energy              =    -437.4148611985041839 [Eh]

	 ================> DF-SCS-MP2 Energies <==================
	-----------------------------------------------------------
	 SCS Same-Spin Scale       =       0.3333333333333333 [-]
	 SCS Opposite-Spin Scale   =       1.2000000000000000 [-]
	 SCS Same-Spin Energy      =      -0.1493606390716061 [Eh]
	 SCS Opposite-Spin Energy  =      -1.6468572999616964 [Eh]
	 SCS Correlation Energy    =      -1.7962179390333026 [Eh]
	 SCS Total Energy          =    -437.3906161370212544 [Eh]
	-----------------------------------------------------------

  Dipole Moment: [D]
     X:     1.0890      Y:    -3.2466      Z:    -0.0000     Total:     3.4244

*** Psi4 exiting successfully. Buy a developer a beer!
