                               Psi4 1.3.2 release

  ==> Input File <==

--------------------------------------------------------------------------
#psi4
#
memory 32 gb

molecule  {
0 1
  O        0.9755400    -1.0764940     0.0000010
  O       -1.3738420     1.6199730     0.0000050
  N       -1.7006930    -0.6600630    -0.0000030
  C        0.4642903     0.2948402    -0.0000042
  C       -0.9336490     0.4655780     0.0000000
  C        1.5816790     1.0895450    -0.0000030
  C        2.7579030     0.2894600     0.0000000
  C        2.3428020    -1.0138960     0.0000040
  C       -3.1488560    -0.5988880     0.0000010
  H        1.5004040     2.1673970    -0.0000090
  H       -1.2325350    -1.5568070    -0.0000080
  H        3.7847070     0.6289700     0.0000040
  H        2.8531580    -1.9656810     0.0000030
  H       -3.4251050     0.4551520     0.0000010
  H       -3.5616590    -1.0800960     0.8913170
  H       -3.5616630    -1.0800960    -0.8913140
units angstrom
no_reorient  #important for SAPT in psi4, default
symmetry c1  #important for SAPT in psi4, default
}

set PROPERTIES_ORIGIN ["COM"]
properties('MP2/aug-cc-pvtz', properties = ['dipole'])
--------------------------------------------------------------------------

    Molecular point group: c1
  Charge       = 0
  Multiplicity = 1
  Basis Set: AUG-CC-PVTZ
    Blend: AUG-CC-PVTZ
  Basis Set: (AUG-CC-PVTZ AUX)
    Blend: AUG-CC-PVTZ-JKFIT

    Orbital Energies [Eh]
    ---------------------

    Doubly Occupied:

       1A    -20.631415     2A    -20.512121     3A    -15.587391
       4A    -11.355223     5A    -11.320257     6A    -11.300038
       7A    -11.263924     8A    -11.258555     9A    -11.248135
      10A     -1.441976    11A     -1.371910    12A     -1.230019
      13A     -1.100066    14A     -1.043053    15A     -0.953916
      16A     -0.856459    17A     -0.810649    18A     -0.774467
      19A     -0.757754    20A     -0.673448    21A     -0.644535
      22A     -0.642288    23A     -0.614135    24A     -0.599268
      25A     -0.584356    26A     -0.575878    27A     -0.558461
      28A     -0.538585    29A     -0.538085    30A     -0.434072
      31A     -0.414946    32A     -0.390633    33A     -0.333880

  @DF-RHF Final Energy:  -435.58952514027447

   => Energetics <=

    Nuclear Repulsion Energy =            428.9449016174729650
    One-Electron Energy =               -1444.3490604456744677
    Two-Electron Energy =                 579.8146336879269711
    Total Energy =                       -435.5895251402745316
  Basis Set: (AUG-CC-PVTZ AUX)
    Blend: AUG-CC-PVTZ-RI
    Molecular point group: c1

    Geometry (in Angstrom), charge = 0, multiplicity = 1:

       Center              X                  Y                   Z               Mass
    ------------   -----------------  -----------------  -----------------  -----------------
         O            0.952244101788    -1.103039671966     0.000000827959    15.994914619570
         O           -1.397137898212     1.593427328034     0.000004827959    15.994914619570
         N           -1.723988898212    -0.686608671966    -0.000003172041    14.003074004430
         C            0.440994401788     0.268294528034    -0.000004372041    12.000000000000
         C           -0.956944898212     0.439032328034    -0.000000172041    12.000000000000
         C            1.558383101788     1.062999328034    -0.000003172041    12.000000000000
         C            2.734607101788     0.262914328034    -0.000000172041    12.000000000000
         C            2.319506101788    -1.040441671966     0.000003827959    12.000000000000
         C           -3.172151898212    -0.625433671966     0.000000827959    12.000000000000
         H            1.477108101788     2.140851328034    -0.000009172041     1.007825032230
         H           -1.255830898212    -1.583352671966    -0.000008172041     1.007825032230
         H            3.761411101788     0.602424328034     0.000003827959     1.007825032230
         H            2.829862101788    -1.992226671966     0.000002827959     1.007825032230
         H           -3.448400898212     0.428606328034     0.000000827959     1.007825032230
         H           -3.584954898212    -1.106641671966     0.891316827959     1.007825032230
         H           -3.584958898212    -1.106641671966    -0.891314172041     1.007825032230

  Basis Set: AUG-CC-PVTZ
    Blend: AUG-CC-PVTZ
  Basis Set: (AUG-CC-PVTZ AUX)
    Blend: AUG-CC-PVTZ-JKFIT
	 Reference Energy          =    -435.5895251402744748 [Eh]
	 Singles Energy            =      -0.0000000000000000 [Eh]
	 Same-Spin Energy          =      -0.4486284611954976 [Eh]
	 Opposite-Spin Energy      =      -1.3736485924193595 [Eh]
	 Correlation Energy        =      -1.8222770536148571 [Eh]
	 Total Energy              =    -437.4118021938893435 [Eh]

	 ================> DF-SCS-MP2 Energies <==================
	-----------------------------------------------------------
	 SCS Same-Spin Scale       =       0.3333333333333333 [-]
	 SCS Opposite-Spin Scale   =       1.2000000000000000 [-]
	 SCS Same-Spin Energy      =      -0.1495428203984992 [Eh]
	 SCS Opposite-Spin Energy  =      -1.6483783109032315 [Eh]
	 SCS Correlation Energy    =      -1.7979211313017307 [Eh]
	 SCS Total Energy          =    -437.3874462715762093 [Eh]
	-----------------------------------------------------------

  Dipole Moment: [D]
     X:     1.1665      Y:    -3.1410      Z:    -0.0000     Total:     3.3506

*** Psi4 exiting successfully. Buy a developer a beer!
