                               Psi4 1.3.2 release

  ==> Input File <==

--------------------------------------------------------------------------
#psi4
#
memory 32 gb

molecule  {
0 1
  O        0.9755400    -1.0764940     0.0000010
  O       -1.3738420     1.6199730     0.0000050
  N       -1.6809310    -0.6732783    -0.0000031
  C        0.5224480     0.2188310    -0.0000040
  C       -0.9336490     0.4655780     0.0000000
  C        1.5816790     1.0895450    -0.0000030
  C        2.7579030     0.2894600     0.0000000
  C        2.3428020    -1.0138960     0.0000040
  C       -3.1488560    -0.5988880     0.0000010
  H        1.5004040     2.1673970    -0.0000090
  H       -1.2325350    -1.5568070    -0.0000080
  H        3.7847070     0.6289700     0.0000040
  H        2.8531580    -1.9656810     0.0000030
  H       -3.4251050     0.4551520     0.0000010
  H       -3.5616590    -1.0800960     0.8913170
  H       -3.5616630    -1.0800960    -0.8913140
units angstrom
no_reorient  #important for SAPT in psi4, default
symmetry c1  #important for SAPT in psi4, default
}

set PROPERTIES_ORIGIN ["COM"]
properties('MP2/aug-cc-pvtz', properties = ['dipole'])
--------------------------------------------------------------------------

    Molecular point group: c1
  Charge       = 0
  Multiplicity = 1
  Basis Set: AUG-CC-PVTZ
    Blend: AUG-CC-PVTZ
  Basis Set: (AUG-CC-PVTZ AUX)
    Blend: AUG-CC-PVTZ-JKFIT

    Orbital Energies [Eh]
    ---------------------

    Doubly Occupied:

       1A    -20.642934     2A    -20.516908     3A    -15.588248
       4A    -11.360828     5A    -11.311965     6A    -11.300290
       7A    -11.261276     8A    -11.251684     9A    -11.247478
      10A     -1.473840    11A     -1.370923    12A     -1.231078
      13A     -1.100856    14A     -1.037769    15A     -0.952683
      16A     -0.843412    17A     -0.819029    18A     -0.779121
      19A     -0.764533    20A     -0.671035    21A     -0.658143
      22A     -0.638677    23A     -0.616791    24A     -0.600944
      25A     -0.585841    26A     -0.575897    27A     -0.561382
      28A     -0.544797    29A     -0.537154    30A     -0.434059
      31A     -0.413956    32A     -0.393687    33A     -0.330302

  @DF-RHF Final Energy:  -435.60167022418148

   => Energetics <=

    Nuclear Repulsion Energy =            429.4146688926814477
    One-Electron Energy =               -1445.1976380281441834
    Two-Electron Energy =                 580.1812989112812602
    Total Energy =                       -435.6016702241814755
  Basis Set: (AUG-CC-PVTZ AUX)
    Blend: AUG-CC-PVTZ-RI
    Molecular point group: c1

    Geometry (in Angstrom), charge = 0, multiplicity = 1:

       Center              X                  Y                   Z               Mass
    ------------   -----------------  -----------------  -----------------  -----------------
         O            0.944450105447    -1.094265696813     0.000000819965    15.994914619570
         O           -1.404931894553     1.602201303187     0.000004819965    15.994914619570
         N           -1.712020894553    -0.691049996813    -0.000003280035    14.003074004430
         C            0.491358105447     0.201059303187    -0.000004180035    12.000000000000
         C           -0.964738894553     0.447806303187    -0.000000180035    12.000000000000
         C            1.550589105447     1.071773303187    -0.000003180035    12.000000000000
         C            2.726813105447     0.271688303187    -0.000000180035    12.000000000000
         C            2.311712105447    -1.031667696813     0.000003819965    12.000000000000
         C           -3.179945894553    -0.616659696813     0.000000819965    12.000000000000
         H            1.469314105447     2.149625303187    -0.000009180035     1.007825032230
         H           -1.263624894553    -1.574578696813    -0.000008180035     1.007825032230
         H            3.753617105447     0.611198303187     0.000003819965     1.007825032230
         H            2.822068105447    -1.983452696813     0.000002819965     1.007825032230
         H           -3.456194894553     0.437380303187     0.000000819965     1.007825032230
         H           -3.592748894553    -1.097867696813     0.891316819965     1.007825032230
         H           -3.592752894553    -1.097867696813    -0.891314180035     1.007825032230

  Basis Set: AUG-CC-PVTZ
    Blend: AUG-CC-PVTZ
  Basis Set: (AUG-CC-PVTZ AUX)
    Blend: AUG-CC-PVTZ-JKFIT
	 Reference Energy          =    -435.6016702241814755 [Eh]
	 Singles Energy            =      -0.0000000000000000 [Eh]
	 Same-Spin Energy          =      -0.4476411463349511 [Eh]
	 Opposite-Spin Energy      =      -1.3712843413395364 [Eh]
	 Correlation Energy        =      -1.8189254876744874 [Eh]
	 Total Energy              =    -437.4205957118559809 [Eh]

	 ================> DF-SCS-MP2 Energies <==================
	-----------------------------------------------------------
	 SCS Same-Spin Scale       =       0.3333333333333333 [-]
	 SCS Opposite-Spin Scale   =       1.2000000000000000 [-]
	 SCS Same-Spin Energy      =      -0.1492137154449837 [Eh]
	 SCS Opposite-Spin Energy  =      -1.6455412096074435 [Eh]
	 SCS Correlation Energy    =      -1.7947549250524273 [Eh]
	 SCS Total Energy          =    -437.3964251492338917 [Eh]
	-----------------------------------------------------------

  Dipole Moment: [D]
     X:     1.0245      Y:    -3.2217      Z:    -0.0000     Total:     3.3807

*** Psi4 exiting successfully. Buy a developer a beer!
