                               Psi4 1.3.2 release

  ==> Input File <==

--------------------------------------------------------------------------
#psi4
#
memory 32 gb

molecule  {
0 1
  O        0.9755400    -1.0764940     0.0000010
  O       -1.3738420     1.6199730     0.0000050
  N       -1.7006930    -0.6600630    -0.0000030
  C        0.5884828     0.0300470    -0.0000033
  C       -0.9336490     0.4655780     0.0000000
  C        1.5816790     1.0895450    -0.0000030
  C        2.7579030     0.2894600     0.0000000
  C        2.3428020    -1.0138960     0.0000040
  C       -3.1488560    -0.5988880     0.0000010
  H        1.5004040     2.1673970    -0.0000090
  H       -1.2325350    -1.5568070    -0.0000080
  H        3.7847070     0.6289700     0.0000040
  H        2.8531580    -1.9656810     0.0000030
  H       -3.4251050     0.4551520     0.0000010
  H       -3.5616590    -1.0800960     0.8913170
  H       -3.5616630    -1.0800960    -0.8913140
units angstrom
no_reorient  #important for SAPT in psi4, default
symmetry c1  #important for SAPT in psi4, default
}

set PROPERTIES_ORIGIN ["COM"]
properties('MP2/aug-cc-pvtz', properties = ['dipole'])
--------------------------------------------------------------------------

    Molecular point group: c1
  Charge       = 0
  Multiplicity = 1
  Basis Set: AUG-CC-PVTZ
    Blend: AUG-CC-PVTZ
  Basis Set: (AUG-CC-PVTZ AUX)
    Blend: AUG-CC-PVTZ-JKFIT

    Orbital Energies [Eh]
    ---------------------

    Doubly Occupied:

       1A    -20.673112     2A    -20.524773     3A    -15.592207
       4A    -11.368045     5A    -11.316721     6A    -11.295688
       7A    -11.260920     8A    -11.250650     9A    -11.237658
      10A     -1.580296    11A     -1.372867    12A     -1.235620
      13A     -1.104315    14A     -1.038905    15A     -0.957573
      16A     -0.843999    17A     -0.822583    18A     -0.794338
      19A     -0.771219    20A     -0.715516    21A     -0.675986
      22A     -0.642454    23A     -0.623201    24A     -0.613972
      25A     -0.606115    26A     -0.573026    27A     -0.549878
      28A     -0.536524    29A     -0.523053    30A     -0.426646
      31A     -0.414204    32A     -0.395447    33A     -0.311194

  @DF-RHF Final Energy:  -435.54922980947066

   => Energetics <=

    Nuclear Repulsion Energy =            431.0724225329119008
    One-Electron Energy =               -1447.9458905584215245
    Two-Electron Energy =                 581.3242382160390207
    Total Energy =                       -435.5492298094706030
  Basis Set: (AUG-CC-PVTZ AUX)
    Blend: AUG-CC-PVTZ-RI
    Molecular point group: c1

    Geometry (in Angstrom), charge = 0, multiplicity = 1:

       Center              X                  Y                   Z               Mass
    ------------   -----------------  -----------------  -----------------  -----------------
         O            0.940326167619    -1.077629217019     0.000000741592    15.994914619570
         O           -1.409055832381     1.618837782981     0.000004741592    15.994914619570
         N           -1.735906832381    -0.661198217019    -0.000003258408    14.003074004430
         C            0.553268967619     0.028911782981    -0.000003558408    12.000000000000
         C           -0.968862832381     0.464442782981    -0.000000258408    12.000000000000
         C            1.546465167619     1.088409782981    -0.000003258408    12.000000000000
         C            2.722689167619     0.288324782981    -0.000000258408    12.000000000000
         C            2.307588167619    -1.015031217019     0.000003741592    12.000000000000
         C           -3.184069832381    -0.600023217019     0.000000741592    12.000000000000
         H            1.465190167619     2.166261782981    -0.000009258408     1.007825032230
         H           -1.267748832381    -1.557942217019    -0.000008258408     1.007825032230
         H            3.749493167619     0.627834782981     0.000003741592     1.007825032230
         H            2.817944167619    -1.966816217019     0.000002741592     1.007825032230
         H           -3.460318832381     0.454016782981     0.000000741592     1.007825032230
         H           -3.596872832381    -1.081231217019     0.891316741592     1.007825032230
         H           -3.596876832381    -1.081231217019    -0.891314258408     1.007825032230

  Basis Set: AUG-CC-PVTZ
    Blend: AUG-CC-PVTZ
  Basis Set: (AUG-CC-PVTZ AUX)
    Blend: AUG-CC-PVTZ-JKFIT
	 Reference Energy          =    -435.5492298094706598 [Eh]
	 Singles Energy            =      -0.0000000000000000 [Eh]
	 Same-Spin Energy          =      -0.4489880824383566 [Eh]
	 Opposite-Spin Energy      =      -1.3704715280363384 [Eh]
	 Correlation Energy        =      -1.8194596104746950 [Eh]
	 Total Energy              =    -437.3686894199453263 [Eh]

	 ================> DF-SCS-MP2 Energies <==================
	-----------------------------------------------------------
	 SCS Same-Spin Scale       =       0.3333333333333333 [-]
	 SCS Opposite-Spin Scale   =       1.2000000000000000 [-]
	 SCS Same-Spin Energy      =      -0.1496626941461189 [Eh]
	 SCS Opposite-Spin Energy  =      -1.6445658336436060 [Eh]
	 SCS Correlation Energy    =      -1.7942285277897247 [Eh]
	 SCS Total Energy          =    -437.3434583372603583 [Eh]
	-----------------------------------------------------------

  Dipole Moment: [D]
     X:     0.8607      Y:    -3.5288      Z:    -0.0000     Total:     3.6322

*** Psi4 exiting successfully. Buy a developer a beer!
