                               Psi4 1.3.2 release

  ==> Input File <==

--------------------------------------------------------------------------
#psi4
#
memory 32 gb

molecule  {
0 1
  O        0.9832372    -1.1717169     0.0000014
  O       -1.3738420     1.6199730     0.0000050
  N       -1.7006930    -0.6600630    -0.0000030
  C        0.5224480     0.2188310    -0.0000040
  C       -0.9336490     0.4655780     0.0000000
  C        1.5816790     1.0895450    -0.0000030
  C        2.7579030     0.2894600     0.0000000
  C        2.3428020    -1.0138960     0.0000040
  C       -3.1488560    -0.5988880     0.0000010
  H        1.5004040     2.1673970    -0.0000090
  H       -1.2325350    -1.5568070    -0.0000080
  H        3.7847070     0.6289700     0.0000040
  H        2.8531580    -1.9656810     0.0000030
  H       -3.4251050     0.4551520     0.0000010
  H       -3.5616590    -1.0800960     0.8913170
  H       -3.5616630    -1.0800960    -0.8913140
units angstrom
no_reorient  #important for SAPT in psi4, default
symmetry c1  #important for SAPT in psi4, default
}

set PROPERTIES_ORIGIN ["COM"]
properties('MP2/aug-cc-pvtz', properties = ['dipole'])
--------------------------------------------------------------------------

    Molecular point group: c1
  Charge       = 0
  Multiplicity = 1
  Basis Set: AUG-CC-PVTZ
    Blend: AUG-CC-PVTZ
  Basis Set: (AUG-CC-PVTZ AUX)
    Blend: AUG-CC-PVTZ-JKFIT

    Orbital Energies [Eh]
    ---------------------

    Doubly Occupied:

       1A    -20.642719     2A    -20.515389     3A    -15.587630
       4A    -11.360815     5A    -11.316830     6A    -11.306511
       7A    -11.263847     8A    -11.258509     9A    -11.248824
      10A     -1.447161    11A     -1.370656    12A     -1.230265
      13A     -1.109323    14A     -1.029444    15A     -0.951452
      16A     -0.843092    17A     -0.812021    18A     -0.775732
      19A     -0.759914    20A     -0.658827    21A     -0.644893
      22A     -0.641379    23A     -0.616027    24A     -0.601970
      25A     -0.593031    26A     -0.572629    27A     -0.563439
      28A     -0.542316    29A     -0.536808    30A     -0.432940
      31A     -0.421436    32A     -0.391613    33A     -0.331139

  @DF-RHF Final Energy:  -435.59147925164325

   => Energetics <=

    Nuclear Repulsion Energy =            426.9691507140437352
    One-Electron Energy =               -1440.3640979972710738
    Two-Electron Energy =                 577.8034680315840887
    Total Energy =                       -435.5914792516432499
  Basis Set: (AUG-CC-PVTZ AUX)
    Blend: AUG-CC-PVTZ-RI
    Molecular point group: c1

    Geometry (in Angstrom), charge = 0, multiplicity = 1:

       Center              X                  Y                   Z               Mass
    ------------   -----------------  -----------------  -----------------  -----------------
         O            0.953375738422    -1.178788459490     0.000001157602    15.994914619570
         O           -1.403703461578     1.612901440510     0.000004757602    15.994914619570
         N           -1.730554461578    -0.667134559490    -0.000003242398    14.003074004430
         C            0.492586538422     0.211759440510    -0.000004242398    12.000000000000
         C           -0.963510461578     0.458506440510    -0.000000242398    12.000000000000
         C            1.551817538422     1.082473440510    -0.000003242398    12.000000000000
         C            2.728041538422     0.282388440510    -0.000000242398    12.000000000000
         C            2.312940538422    -1.020967559490     0.000003757602    12.000000000000
         C           -3.178717461578    -0.605959559490     0.000000757602    12.000000000000
         H            1.470542538422     2.160325440510    -0.000009242398     1.007825032230
         H           -1.262396461578    -1.563878559490    -0.000008242398     1.007825032230
         H            3.754845538422     0.621898440510     0.000003757602     1.007825032230
         H            2.823296538422    -1.972752559490     0.000002757602     1.007825032230
         H           -3.454966461578     0.448080440510     0.000000757602     1.007825032230
         H           -3.591520461578    -1.087167559490     0.891316757602     1.007825032230
         H           -3.591524461578    -1.087167559490    -0.891314242398     1.007825032230

  Basis Set: AUG-CC-PVTZ
    Blend: AUG-CC-PVTZ
  Basis Set: (AUG-CC-PVTZ AUX)
    Blend: AUG-CC-PVTZ-JKFIT
	 Reference Energy          =    -435.5914792516432499 [Eh]
	 Singles Energy            =      -0.0000000000000000 [Eh]
	 Same-Spin Energy          =      -0.4480094832103536 [Eh]
	 Opposite-Spin Energy      =      -1.3740040533084117 [Eh]
	 Correlation Energy        =      -1.8220135365187653 [Eh]
	 Total Energy              =    -437.4134927881619888 [Eh]

	 ================> DF-SCS-MP2 Energies <==================
	-----------------------------------------------------------
	 SCS Same-Spin Scale       =       0.3333333333333333 [-]
	 SCS Opposite-Spin Scale   =       1.2000000000000000 [-]
	 SCS Same-Spin Energy      =      -0.1493364944034512 [Eh]
	 SCS Opposite-Spin Energy  =      -1.6488048639700941 [Eh]
	 SCS Correlation Energy    =      -1.7981413583735453 [Eh]
	 SCS Total Energy          =    -437.3896206100167774 [Eh]
	-----------------------------------------------------------

  Dipole Moment: [D]
     X:     1.1176      Y:    -2.9576      Z:    -0.0000     Total:     3.1618

*** Psi4 exiting successfully. Buy a developer a beer!
