                               Psi4 1.3.2 release

  ==> Input File <==

--------------------------------------------------------------------------
#psi4
#
memory 32 gb

molecule  {
0 1
  O        0.9755400    -1.0764940     0.0000010
  O       -1.3738420     1.6199730     0.0000050
  N       -1.7006930    -0.6600630    -0.0000030
  C        0.5224480     0.2188310    -0.0000040
  C       -0.9336490     0.4655780     0.0000000
  C        1.6103181     1.1301072    -0.0000028
  C        2.7579030     0.2894600     0.0000000
  C        2.3428020    -1.0138960     0.0000040
  C       -3.1488560    -0.5988880     0.0000010
  H        1.5004040     2.1673970    -0.0000090
  H       -1.2325350    -1.5568070    -0.0000080
  H        3.7847070     0.6289700     0.0000040
  H        2.8531580    -1.9656810     0.0000030
  H       -3.4251050     0.4551520     0.0000010
  H       -3.5616590    -1.0800960     0.8913170
  H       -3.5616630    -1.0800960    -0.8913140
units angstrom
no_reorient  #important for SAPT in psi4, default
symmetry c1  #important for SAPT in psi4, default
}

set PROPERTIES_ORIGIN ["COM"]
properties('MP2/aug-cc-pvtz', properties = ['dipole'])
--------------------------------------------------------------------------

    Molecular point group: c1
  Charge       = 0
  Multiplicity = 1
  Basis Set: AUG-CC-PVTZ
    Blend: AUG-CC-PVTZ
  Basis Set: (AUG-CC-PVTZ AUX)
    Blend: AUG-CC-PVTZ-JKFIT

    Orbital Energies [Eh]
    ---------------------

    Doubly Occupied:

       1A    -20.647624     2A    -20.515661     3A    -15.588787
       4A    -11.360246     5A    -11.312602     6A    -11.307924
       7A    -11.259287     8A    -11.256668     9A    -11.249709
      10A     -1.475053    11A     -1.370827    12A     -1.231282
      13A     -1.098091    14A     -1.036328    15A     -0.952809
      16A     -0.843471    17A     -0.819756    18A     -0.776360
      19A     -0.765618    20A     -0.673128    21A     -0.658108
      22A     -0.641046    23A     -0.618579    24A     -0.600030
      25A     -0.598729    26A     -0.577962    27A     -0.556831
      28A     -0.541114    29A     -0.536102    30A     -0.433571
      31A     -0.413198    32A     -0.391678    33A     -0.325483

  @DF-RHF Final Energy:  -435.59593962617100

   => Energetics <=

    Nuclear Repulsion Energy =            428.4563143457590968
    One-Electron Energy =               -1443.2371853490742524
    Two-Electron Energy =                 579.1849313771441530
    Total Energy =                       -435.5959396261710026
  Basis Set: (AUG-CC-PVTZ AUX)
    Blend: AUG-CC-PVTZ-RI
    Molecular point group: c1

    Geometry (in Angstrom), charge = 0, multiplicity = 1:

       Center              X                  Y                   Z               Mass
    ------------   -----------------  -----------------  -----------------  -----------------
         O            0.943914786020    -1.099638057436     0.000000789574    15.994914619570
         O           -1.405467213980     1.596828942564     0.000004789574    15.994914619570
         N           -1.732318213980    -0.683207057436    -0.000003210426    14.003074004430
         C            0.490822786020     0.195686942564    -0.000004210426    12.000000000000
         C           -0.965274213980     0.442433942564    -0.000000210426    12.000000000000
         C            1.578692886020     1.106963142564    -0.000003010426    12.000000000000
         C            2.726277786020     0.266315942564    -0.000000210426    12.000000000000
         C            2.311176786020    -1.037040057436     0.000003789574    12.000000000000
         C           -3.180481213980    -0.622032057436     0.000000789574    12.000000000000
         H            1.468778786020     2.144252942564    -0.000009210426     1.007825032230
         H           -1.264160213980    -1.579951057436    -0.000008210426     1.007825032230
         H            3.753081786020     0.605825942564     0.000003789574     1.007825032230
         H            2.821532786020    -1.988825057436     0.000002789574     1.007825032230
         H           -3.456730213980     0.432007942564     0.000000789574     1.007825032230
         H           -3.593284213980    -1.103240057436     0.891316789574     1.007825032230
         H           -3.593288213980    -1.103240057436    -0.891314210426     1.007825032230

  Basis Set: AUG-CC-PVTZ
    Blend: AUG-CC-PVTZ
  Basis Set: (AUG-CC-PVTZ AUX)
    Blend: AUG-CC-PVTZ-JKFIT
	 Reference Energy          =    -435.5959396261710026 [Eh]
	 Singles Energy            =      -0.0000000000000000 [Eh]
	 Same-Spin Energy          =      -0.4487241571345306 [Eh]
	 Opposite-Spin Energy      =      -1.3730228078122062 [Eh]
	 Correlation Energy        =      -1.8217469649467368 [Eh]
	 Total Energy              =    -437.4176865911177288 [Eh]

	 ================> DF-SCS-MP2 Energies <==================
	-----------------------------------------------------------
	 SCS Same-Spin Scale       =       0.3333333333333333 [-]
	 SCS Opposite-Spin Scale   =       1.2000000000000000 [-]
	 SCS Same-Spin Energy      =      -0.1495747190448435 [Eh]
	 SCS Opposite-Spin Energy  =      -1.6476273693746475 [Eh]
	 SCS Correlation Energy    =      -1.7972020884194910 [Eh]
	 SCS Total Energy          =    -437.3931417145905129 [Eh]
	-----------------------------------------------------------

  Dipole Moment: [D]
     X:     1.0878      Y:    -3.2570      Z:    -0.0000     Total:     3.4338

*** Psi4 exiting successfully. Buy a developer a beer!
