                               Psi4 1.4a3.dev225

  ==> Input File <==

--------------------------------------------------------------------------
#psi4
#
memory 32 gb

molecule  {
0 1
  O        0.9755400    -1.0764940     0.0000010
  O       -1.3738420     1.6199730     0.0000050
  N       -1.7006930    -0.6600630    -0.0000030
  C        0.5224480     0.2188310    -0.0000040
  C       -0.9336490     0.4655780     0.0000000
  C        1.6203040     1.1212957    -0.0000030
  C        2.7579030     0.2894600     0.0000000
  C        2.3428020    -1.0138960     0.0000040
  C       -3.1488560    -0.5988880     0.0000010
  H        1.5004040     2.1673970    -0.0000090
  H       -1.2325350    -1.5568070    -0.0000080
  H        3.7847070     0.6289700     0.0000040
  H        2.8531580    -1.9656810     0.0000030
  H       -3.4251050     0.4551520     0.0000010
  H       -3.5616590    -1.0800960     0.8913170
  H       -3.5616630    -1.0800960    -0.8913140
units angstrom
no_reorient  #important for SAPT in psi4, default
symmetry c1  #important for SAPT in psi4, default
}

set PROPERTIES_ORIGIN ["COM"]
properties('MP2/aug-cc-pvtz', properties = ['dipole'])
--------------------------------------------------------------------------

    Molecular point group: c1
  Charge       = 0
  Multiplicity = 1
  Basis Set: AUG-CC-PVTZ
    Blend: AUG-CC-PVTZ
  Basis Set: (AUG-CC-PVTZ AUX)
    Blend: AUG-CC-PVTZ-JKFIT

    Orbital Energies [Eh]
    ---------------------

    Doubly Occupied:

       1A    -20.647986     2A    -20.515589     3A    -15.588731
       4A    -11.360379     5A    -11.312771     6A    -11.307413
       7A    -11.259274     8A    -11.256333     9A    -11.248671
      10A     -1.475310    11A     -1.370768    12A     -1.231249
      13A     -1.100514    14A     -1.035906    15A     -0.952653
      16A     -0.843607    17A     -0.818838    18A     -0.776576
      19A     -0.765646    20A     -0.673459    21A     -0.658197
      22A     -0.641049    23A     -0.618575    24A     -0.600420
      25A     -0.596003    26A     -0.578204    27A     -0.558089
      28A     -0.541263    29A     -0.536041    30A     -0.433526
      31A     -0.414917    32A     -0.391722    33A     -0.324323

  @DF-RHF Final Energy:  -435.59589022157388

   => Energetics <=

    Nuclear Repulsion Energy =            428.5497082376082290
    One-Electron Energy =               -1443.4231958568523169
    Two-Electron Energy =                 579.2775973976702062
    Total Energy =                       -435.5958902215738817
  Basis Set: (AUG-CC-PVTZ AUX)
    Blend: AUG-CC-PVTZ-RI
    Molecular point group: c1

    Geometry (in Angstrom), charge = 0, multiplicity = 1:

       Center              X                  Y                   Z               Mass
    ------------   -----------------  -----------------  -----------------  -----------------
         O            0.942956505135    -1.098792475965     0.000000808766    15.994914619570
         O           -1.406425494865     1.597674524035     0.000004808766    15.994914619570
         N           -1.733276494865    -0.682361475965    -0.000003191234    14.003074004430
         C            0.489864505135     0.196532524035    -0.000004191234    12.000000000000
         C           -0.966232494865     0.443279524035    -0.000000191234    12.000000000000
         C            1.587720505135     1.098997224035    -0.000003191234    12.000000000000
         C            2.725319505135     0.267161524035    -0.000000191234    12.000000000000
         C            2.310218505135    -1.036194475965     0.000003808766    12.000000000000
         C           -3.181439494865    -0.621186475965     0.000000808766    12.000000000000
         H            1.467820505135     2.145098524035    -0.000009191234     1.007825032230
         H           -1.265118494865    -1.579105475965    -0.000008191234     1.007825032230
         H            3.752123505135     0.606671524035     0.000003808766     1.007825032230
         H            2.820574505135    -1.987979475965     0.000002808766     1.007825032230
         H           -3.457688494865     0.432853524035     0.000000808766     1.007825032230
         H           -3.594242494865    -1.102394475965     0.891316808766     1.007825032230
         H           -3.594246494865    -1.102394475965    -0.891314191234     1.007825032230

  Basis Set: AUG-CC-PVTZ
    Blend: AUG-CC-PVTZ
  Basis Set: (AUG-CC-PVTZ AUX)
    Blend: AUG-CC-PVTZ-JKFIT
	 Reference Energy          =    -435.5958902215738817 [Eh]
	 Singles Energy            =      -0.0000000000000000 [Eh]
	 Same-Spin Energy          =      -0.4489927147189672 [Eh]
	 Opposite-Spin Energy      =      -1.3732188443652804 [Eh]
	 Correlation Energy        =      -1.8222115590842476 [Eh]
	 Total Energy              =    -437.4181017806581053 [Eh]

	 ================> DF-SCS-MP2 Energies <==================
	-----------------------------------------------------------
	 SCS Same-Spin Scale       =       0.3333333333333333 [-]
	 SCS Opposite-Spin Scale   =       1.2000000000000000 [-]
	 SCS Same-Spin Energy      =      -0.1496642382396557 [Eh]
	 SCS Opposite-Spin Energy  =      -1.6478626132383365 [Eh]
	 SCS Correlation Energy    =      -1.7975268514779923 [Eh]
	 SCS Total Energy          =    -437.3934170730518645 [Eh]
	-----------------------------------------------------------

  Dipole Moment: [D]
     X:     1.0938      Y:    -3.2581      Z:    -0.0000     Total:     3.4368

*** Psi4 exiting successfully. Buy a developer a beer!
