                               Psi4 1.3.2 release

  ==> Input File <==

--------------------------------------------------------------------------
#psi4
#
memory 32 gb

molecule  {
0 1
  O        0.9755400    -1.0764940     0.0000010
  O       -1.2507634     1.6596618     0.0000049
  N       -1.7006930    -0.6600630    -0.0000030
  C        0.5224480     0.2188310    -0.0000040
  C       -0.9336490     0.4655780     0.0000000
  C        1.5816790     1.0895450    -0.0000030
  C        2.7579030     0.2894600     0.0000000
  C        2.3428020    -1.0138960     0.0000040
  C       -3.1488560    -0.5988880     0.0000010
  H        1.5004040     2.1673970    -0.0000090
  H       -1.2325350    -1.5568070    -0.0000080
  H        3.7847070     0.6289700     0.0000040
  H        2.8531580    -1.9656810     0.0000030
  H       -3.4251050     0.4551520     0.0000010
  H       -3.5616590    -1.0800960     0.8913170
  H       -3.5616630    -1.0800960    -0.8913140
units angstrom
no_reorient  #important for SAPT in psi4, default
symmetry c1  #important for SAPT in psi4, default
}

set PROPERTIES_ORIGIN ["COM"]
properties('MP2/aug-cc-pvtz', properties = ['dipole'])
--------------------------------------------------------------------------

    Molecular point group: c1
  Charge       = 0
  Multiplicity = 1
  Basis Set: AUG-CC-PVTZ
    Blend: AUG-CC-PVTZ
  Basis Set: (AUG-CC-PVTZ AUX)
    Blend: AUG-CC-PVTZ-JKFIT

    Orbital Energies [Eh]
    ---------------------

    Doubly Occupied:

       1A    -20.639260     2A    -20.518331     3A    -15.595597
       4A    -11.361911     5A    -11.308134     6A    -11.295917
       7A    -11.264665     8A    -11.247275     9A    -11.244491
      10A     -1.470535    11A     -1.371657    12A     -1.239581
      13A     -1.097128    14A     -1.034868    15A     -0.956803
      16A     -0.839852    17A     -0.815560    18A     -0.778481
      19A     -0.762049    20A     -0.669596    21A     -0.655999
      22A     -0.645177    23A     -0.621712    24A     -0.599973
      25A     -0.582570    26A     -0.575317    27A     -0.559210
      28A     -0.546980    29A     -0.539004    30A     -0.432924
      31A     -0.411382    32A     -0.396363    33A     -0.326279

  @DF-RHF Final Energy:  -435.59858790322511

   => Energetics <=

    Nuclear Repulsion Energy =            429.7540851504859347
    One-Electron Energy =               -1445.8961877268604894
    Two-Electron Energy =                 580.5435146731495024
    Total Energy =                       -435.5985879032250523
  Basis Set: (AUG-CC-PVTZ AUX)
    Blend: AUG-CC-PVTZ-RI
    Molecular point group: c1

    Geometry (in Angstrom), charge = 0, multiplicity = 1:

       Center              X                  Y                   Z               Mass
    ------------   -----------------  -----------------  -----------------  -----------------
         O            0.930920042588    -1.100822186315     0.000000821557    15.994914619570
         O           -1.295383357412     1.635333613685     0.000004721557    15.994914619570
         N           -1.745312957412    -0.684391186315    -0.000003178443    14.003074004430
         C            0.477828042588     0.194502813685    -0.000004178443    12.000000000000
         C           -0.978268957412     0.441249813685    -0.000000178443    12.000000000000
         C            1.537059042588     1.065216813685    -0.000003178443    12.000000000000
         C            2.713283042588     0.265131813685    -0.000000178443    12.000000000000
         C            2.298182042588    -1.038224186315     0.000003821557    12.000000000000
         C           -3.193475957412    -0.623216186315     0.000000821557    12.000000000000
         H            1.455784042588     2.143068813685    -0.000009178443     1.007825032230
         H           -1.277154957412    -1.581135186315    -0.000008178443     1.007825032230
         H            3.740087042588     0.604641813685     0.000003821557     1.007825032230
         H            2.808538042588    -1.990009186315     0.000002821557     1.007825032230
         H           -3.469724957412     0.430823813685     0.000000821557     1.007825032230
         H           -3.606278957412    -1.104424186315     0.891316821557     1.007825032230
         H           -3.606282957412    -1.104424186315    -0.891314178443     1.007825032230

  Basis Set: AUG-CC-PVTZ
    Blend: AUG-CC-PVTZ
  Basis Set: (AUG-CC-PVTZ AUX)
    Blend: AUG-CC-PVTZ-JKFIT
	 Reference Energy          =    -435.5985879032251091 [Eh]
	 Singles Energy            =      -0.0000000000000000 [Eh]
	 Same-Spin Energy          =      -0.4478798942049033 [Eh]
	 Opposite-Spin Energy      =      -1.3717463035659829 [Eh]
	 Correlation Energy        =      -1.8196261977708863 [Eh]
	 Total Energy              =    -437.4182141009960105 [Eh]

	 ================> DF-SCS-MP2 Energies <==================
	-----------------------------------------------------------
	 SCS Same-Spin Scale       =       0.3333333333333333 [-]
	 SCS Opposite-Spin Scale   =       1.2000000000000000 [-]
	 SCS Same-Spin Energy      =      -0.1492932980683011 [Eh]
	 SCS Opposite-Spin Energy  =      -1.6460955642791795 [Eh]
	 SCS Correlation Energy    =      -1.7953888623474805 [Eh]
	 SCS Total Energy          =    -437.3939767655725745 [Eh]
	-----------------------------------------------------------

  Dipole Moment: [D]
     X:     0.6152      Y:    -3.3100      Z:    -0.0000     Total:     3.3667

*** Psi4 exiting successfully. Buy a developer a beer!
