                               Psi4 1.3.2 release

  ==> Input File <==

--------------------------------------------------------------------------
#psi4
#
memory 32 gb

molecule  {
0 1
  O        0.9755400    -1.0764940     0.0000010
  O       -1.3738420     1.6199730     0.0000050
  N       -1.7395100    -0.6326078    -0.0000028
  C        0.5224480     0.2188310    -0.0000040
  C       -0.9336490     0.4655780     0.0000000
  C        1.5816790     1.0895450    -0.0000030
  C        2.7579030     0.2894600     0.0000000
  C        2.3428020    -1.0138960     0.0000040
  C       -3.1488560    -0.5988880     0.0000010
  H        1.5004040     2.1673970    -0.0000090
  H       -1.2325350    -1.5568070    -0.0000080
  H        3.7847070     0.6289700     0.0000040
  H        2.8531580    -1.9656810     0.0000030
  H       -3.4251050     0.4551520     0.0000010
  H       -3.5616590    -1.0800960     0.8913170
  H       -3.5616630    -1.0800960    -0.8913140
units angstrom
no_reorient  #important for SAPT in psi4, default
symmetry c1  #important for SAPT in psi4, default
}

set PROPERTIES_ORIGIN ["COM"]
properties('MP2/aug-cc-pvtz', properties = ['dipole'])
--------------------------------------------------------------------------

    Molecular point group: c1
  Charge       = 0
  Multiplicity = 1
  Basis Set: AUG-CC-PVTZ
    Blend: AUG-CC-PVTZ
  Basis Set: (AUG-CC-PVTZ AUX)
    Blend: AUG-CC-PVTZ-JKFIT

    Orbital Energies [Eh]
    ---------------------

    Doubly Occupied:

       1A    -20.644952     2A    -20.513917     3A    -15.590484
       4A    -11.360196     5A    -11.313853     6A    -11.303786
       7A    -11.255740     8A    -11.254231     9A    -11.249211
      10A     -1.475635    11A     -1.371540    12A     -1.233252
      13A     -1.102845    14A     -1.041454    15A     -0.956676
      16A     -0.838147    17A     -0.820849    18A     -0.769755
      19A     -0.763485    20A     -0.672837    21A     -0.660066
      22A     -0.648148    23A     -0.622727    24A     -0.601107
      25A     -0.587958    26A     -0.580328    27A     -0.563036
      28A     -0.534855    29A     -0.534828    30A     -0.433329
      31A     -0.415302    32A     -0.387877    33A     -0.332311

  @DF-RHF Final Energy:  -435.59809206479247

   => Energetics <=

    Nuclear Repulsion Energy =            429.5291526351260813
    One-Electron Energy =               -1445.3850626863606976
    Two-Electron Energy =                 580.2578179864420918
    Total Energy =                       -435.5980920647924677
  Basis Set: (AUG-CC-PVTZ AUX)
    Blend: AUG-CC-PVTZ-RI
    Molecular point group: c1

    Geometry (in Angstrom), charge = 0, multiplicity = 1:

       Center              X                  Y                   Z               Mass
    ------------   -----------------  -----------------  -----------------  -----------------
         O            0.951009891939    -1.098820055824     0.000000786370    15.994914619570
         O           -1.398372108061     1.597646944176     0.000004786370    15.994914619570
         N           -1.764040108061    -0.654933855824    -0.000003013630    14.003074004430
         C            0.497917891939     0.196504944176    -0.000004213630    12.000000000000
         C           -0.958179108061     0.443251944176    -0.000000213630    12.000000000000
         C            1.557148891939     1.067218944176    -0.000003213630    12.000000000000
         C            2.733372891939     0.267133944176    -0.000000213630    12.000000000000
         C            2.318271891939    -1.036222055824     0.000003786370    12.000000000000
         C           -3.173386108061    -0.621214055824     0.000000786370    12.000000000000
         H            1.475873891939     2.145070944176    -0.000009213630     1.007825032230
         H           -1.257065108061    -1.579133055824    -0.000008213630     1.007825032230
         H            3.760176891939     0.606643944176     0.000003786370     1.007825032230
         H            2.828627891939    -1.988007055824     0.000002786370     1.007825032230
         H           -3.449635108061     0.432825944176     0.000000786370     1.007825032230
         H           -3.586189108061    -1.102422055824     0.891316786370     1.007825032230
         H           -3.586193108061    -1.102422055824    -0.891314213630     1.007825032230

  Basis Set: AUG-CC-PVTZ
    Blend: AUG-CC-PVTZ
  Basis Set: (AUG-CC-PVTZ AUX)
    Blend: AUG-CC-PVTZ-JKFIT
	 Reference Energy          =    -435.5980920647924677 [Eh]
	 Singles Energy            =      -0.0000000000000000 [Eh]
	 Same-Spin Energy          =      -0.4483036151675700 [Eh]
	 Opposite-Spin Energy      =      -1.3720034547562883 [Eh]
	 Correlation Energy        =      -1.8203070699238584 [Eh]
	 Total Energy              =    -437.4183991347163101 [Eh]

	 ================> DF-SCS-MP2 Energies <==================
	-----------------------------------------------------------
	 SCS Same-Spin Scale       =       0.3333333333333333 [-]
	 SCS Opposite-Spin Scale   =       1.2000000000000000 [-]
	 SCS Same-Spin Energy      =      -0.1494345383891900 [Eh]
	 SCS Opposite-Spin Energy  =      -1.6464041457075458 [Eh]
	 SCS Correlation Energy    =      -1.7958386840967357 [Eh]
	 SCS Total Energy          =    -437.3939307488892041 [Eh]
	-----------------------------------------------------------

  Dipole Moment: [D]
     X:     1.2272      Y:    -3.2623      Z:    -0.0000     Total:     3.4855

*** Psi4 exiting successfully. Buy a developer a beer!
