                               Psi4 1.3.2 release

  ==> Input File <==

--------------------------------------------------------------------------
#psi4
#
memory 32 gb

molecule  {
0 1
  O        1.1084562    -1.0220371     0.0000002
  O       -1.3738420     1.6199730     0.0000050
  N       -1.7006930    -0.6600630    -0.0000030
  C        0.5224480     0.2188310    -0.0000040
  C       -0.9336490     0.4655780     0.0000000
  C        1.5816790     1.0895450    -0.0000030
  C        2.7579030     0.2894600     0.0000000
  C        2.3428020    -1.0138960     0.0000040
  C       -3.1488560    -0.5988880     0.0000010
  H        1.5004040     2.1673970    -0.0000090
  H       -1.2325350    -1.5568070    -0.0000080
  H        3.7847070     0.6289700     0.0000040
  H        2.8531580    -1.9656810     0.0000030
  H       -3.4251050     0.4551520     0.0000010
  H       -3.5616590    -1.0800960     0.8913170
  H       -3.5616630    -1.0800960    -0.8913140
units angstrom
no_reorient  #important for SAPT in psi4, default
symmetry c1  #important for SAPT in psi4, default
}

set PROPERTIES_ORIGIN ["COM"]
properties('MP2/aug-cc-pvtz', properties = ['dipole'])
--------------------------------------------------------------------------

    Molecular point group: c1
  Charge       = 0
  Multiplicity = 1
  Basis Set: AUG-CC-PVTZ
    Blend: AUG-CC-PVTZ
  Basis Set: (AUG-CC-PVTZ AUX)
    Blend: AUG-CC-PVTZ-JKFIT

    Orbital Energies [Eh]
    ---------------------

    Doubly Occupied:

       1A    -20.645774     2A    -20.517212     3A    -15.591067
       4A    -11.365016     5A    -11.306208     6A    -11.295460
       7A    -11.260802     8A    -11.251008     9A    -11.230643
      10A     -1.529481    11A     -1.373210    12A     -1.233705
      13A     -1.095863    14A     -1.054963    15A     -0.958631
      16A     -0.842686    17A     -0.833540    18A     -0.776149
      19A     -0.771842    20A     -0.695586    21A     -0.686433
      22A     -0.642480    23A     -0.623329    24A     -0.604464
      25A     -0.586927    26A     -0.566527    27A     -0.551717
      28A     -0.540418    29A     -0.536268    30A     -0.436663
      31A     -0.403915    32A     -0.394347    33A     -0.329376

  @DF-RHF Final Energy:  -435.58870543634538

   => Energetics <=

    Nuclear Repulsion Energy =            431.5680168081027546
    One-Electron Energy =               -1449.2500220881875066
    Two-Electron Energy =                 582.0932998437393735
    Total Energy =                       -435.5887054363453217
  Basis Set: (AUG-CC-PVTZ AUX)
    Blend: AUG-CC-PVTZ-RI
    Molecular point group: c1

    Geometry (in Angstrom), charge = 0, multiplicity = 1:

       Center              X                  Y                   Z               Mass
    ------------   -----------------  -----------------  -----------------  -----------------
         O            1.062577909975    -1.048254281789     0.000000111095    15.994914619570
         O           -1.419720290025     1.593755818211     0.000004911095    15.994914619570
         N           -1.746571290025    -0.686280181789    -0.000003088905    14.003074004430
         C            0.476569709975     0.192613818211    -0.000004088905    12.000000000000
         C           -0.979527290025     0.439360818211    -0.000000088905    12.000000000000
         C            1.535800709975     1.063327818211    -0.000003088905    12.000000000000
         C            2.712024709975     0.263242818211    -0.000000088905    12.000000000000
         C            2.296923709975    -1.040113181789     0.000003911095    12.000000000000
         C           -3.194734290025    -0.625105181789     0.000000911095    12.000000000000
         H            1.454525709975     2.141179818211    -0.000009088905     1.007825032230
         H           -1.278413290025    -1.583024181789    -0.000008088905     1.007825032230
         H            3.738828709975     0.602752818211     0.000003911095     1.007825032230
         H            2.807279709975    -1.991898181789     0.000002911095     1.007825032230
         H           -3.470983290025     0.428934818211     0.000000911095     1.007825032230
         H           -3.607537290025    -1.106313181789     0.891316911095     1.007825032230
         H           -3.607541290025    -1.106313181789    -0.891314088905     1.007825032230

  Basis Set: AUG-CC-PVTZ
    Blend: AUG-CC-PVTZ
  Basis Set: (AUG-CC-PVTZ AUX)
    Blend: AUG-CC-PVTZ-JKFIT
	 Reference Energy          =    -435.5887054363453785 [Eh]
	 Singles Energy            =      -0.0000000000000000 [Eh]
	 Same-Spin Energy          =      -0.4473889268879718 [Eh]
	 Opposite-Spin Energy      =      -1.3667404861053816 [Eh]
	 Correlation Energy        =      -1.8141294129933534 [Eh]
	 Total Energy              =    -437.4028348493387170 [Eh]

	 ================> DF-SCS-MP2 Energies <==================
	-----------------------------------------------------------
	 SCS Same-Spin Scale       =       0.3333333333333333 [-]
	 SCS Opposite-Spin Scale   =       1.2000000000000000 [-]
	 SCS Same-Spin Energy      =      -0.1491296422959906 [Eh]
	 SCS Opposite-Spin Energy  =      -1.6400885833264578 [Eh]
	 SCS Correlation Energy    =      -1.7892182256224483 [Eh]
	 SCS Total Energy          =    -437.3779236619678272 [Eh]
	-----------------------------------------------------------

  Dipole Moment: [D]
     X:     0.6569      Y:    -3.5520      Z:    -0.0000     Total:     3.6122

*** Psi4 exiting successfully. Buy a developer a beer!
