                               Psi4 1.4a3.dev225

  ==> Input File <==

--------------------------------------------------------------------------
#psi4
#
memory 32 gb

molecule  {
0 1
  O        0.9755400    -1.0764940     0.0000010
  O       -1.3738420     1.6199730     0.0000050
  N       -1.7006930    -0.6600630    -0.0000030
  C        0.5224480     0.2188310    -0.0000040
  C       -0.9336490     0.4655780     0.0000000
  C        1.5971290     1.1022453    -0.0000030
  C        2.7579030     0.2894600     0.0000000
  C        2.3428020    -1.0138960     0.0000040
  C       -3.1488560    -0.5988880     0.0000010
  H        1.5004040     2.1673970    -0.0000090
  H       -1.2325350    -1.5568070    -0.0000080
  H        3.7847070     0.6289700     0.0000040
  H        2.8531580    -1.9656810     0.0000030
  H       -3.4251050     0.4551520     0.0000010
  H       -3.5616590    -1.0800960     0.8913170
  H       -3.5616630    -1.0800960    -0.8913140
units angstrom
no_reorient  #important for SAPT in psi4, default
symmetry c1  #important for SAPT in psi4, default
}

set PROPERTIES_ORIGIN ["COM"]
properties('MP2/aug-cc-pvtz', properties = ['dipole'])
--------------------------------------------------------------------------

    Molecular point group: c1
  Charge       = 0
  Multiplicity = 1
  Basis Set: AUG-CC-PVTZ
    Blend: AUG-CC-PVTZ
  Basis Set: (AUG-CC-PVTZ AUX)
    Blend: AUG-CC-PVTZ-JKFIT

    Orbital Energies [Eh]
    ---------------------

    Doubly Occupied:

       1A    -20.645357     2A    -20.515744     3A    -15.588894
       4A    -11.360440     5A    -11.312671     6A    -11.303896
       7A    -11.259347     8A    -11.254060     9A    -11.248268
      10A     -1.474759    11A     -1.370918    12A     -1.231362
      13A     -1.101025    14A     -1.037724    15A     -0.953407
      16A     -0.842079    17A     -0.819181    18A     -0.775926
      19A     -0.765300    20A     -0.672216    21A     -0.658504
      22A     -0.641468    23A     -0.618625    24A     -0.600668
      25A     -0.589885    26A     -0.577752    27A     -0.561019
      28A     -0.541981    29A     -0.536207    30A     -0.433719
      31A     -0.414519    32A     -0.391762    33A     -0.328279

  @DF-RHF Final Energy:  -435.60038424957804

   => Energetics <=

    Nuclear Repulsion Energy =            429.0813060405056376
    One-Electron Energy =               -1444.5094537374825450
    Two-Electron Energy =                 579.8277634473988655
    Total Energy =                       -435.6003842495780418
  Basis Set: (AUG-CC-PVTZ AUX)
    Blend: AUG-CC-PVTZ-RI
    Molecular point group: c1

    Geometry (in Angstrom), charge = 0, multiplicity = 1:

       Center              X                  Y                   Z               Mass
    ------------   -----------------  -----------------  -----------------  -----------------
         O            0.945180456858    -1.096964334868     0.000000808766    15.994914619570
         O           -1.404201543142     1.599502665132     0.000004808766    15.994914619570
         N           -1.731052543142    -0.680533334868    -0.000003191234    14.003074004430
         C            0.492088456858     0.198360665132    -0.000004191234    12.000000000000
         C           -0.964008543142     0.445107665132    -0.000000191234    12.000000000000
         C            1.566769456858     1.081774965132    -0.000003191234    12.000000000000
         C            2.727543456858     0.268989665132    -0.000000191234    12.000000000000
         C            2.312442456858    -1.034366334868     0.000003808766    12.000000000000
         C           -3.179215543142    -0.619358334868     0.000000808766    12.000000000000
         H            1.470044456858     2.146926665132    -0.000009191234     1.007825032230
         H           -1.262894543142    -1.577277334868    -0.000008191234     1.007825032230
         H            3.754347456858     0.608499665132     0.000003808766     1.007825032230
         H            2.822798456858    -1.986151334868     0.000002808766     1.007825032230
         H           -3.455464543142     0.434681665132     0.000000808766     1.007825032230
         H           -3.592018543142    -1.100566334868     0.891316808766     1.007825032230
         H           -3.592022543142    -1.100566334868    -0.891314191234     1.007825032230

  Basis Set: AUG-CC-PVTZ
    Blend: AUG-CC-PVTZ
  Basis Set: (AUG-CC-PVTZ AUX)
    Blend: AUG-CC-PVTZ-JKFIT
	 Reference Energy          =    -435.6003842495780418 [Eh]
	 Singles Energy            =      -0.0000000000000000 [Eh]
	 Same-Spin Energy          =      -0.4482726767682595 [Eh]
	 Opposite-Spin Energy      =      -1.3721000285019977 [Eh]
	 Correlation Energy        =      -1.8203727052702572 [Eh]
	 Total Energy              =    -437.4207569548482866 [Eh]

	 ================> DF-SCS-MP2 Energies <==================
	-----------------------------------------------------------
	 SCS Same-Spin Scale       =       0.3333333333333333 [-]
	 SCS Opposite-Spin Scale   =       1.2000000000000000 [-]
	 SCS Same-Spin Energy      =      -0.1494242255894198 [Eh]
	 SCS Opposite-Spin Energy  =      -1.6465200342023973 [Eh]
	 SCS Correlation Energy    =      -1.7959442597918172 [Eh]
	 SCS Total Energy          =    -437.3963285093698801 [Eh]
	-----------------------------------------------------------

  Dipole Moment: [D]
     X:     1.0926      Y:    -3.2457      Z:    -0.0000     Total:     3.4247

*** Psi4 exiting successfully. Buy a developer a beer!
