                               Psi4 1.3.2 release

  ==> Input File <==

--------------------------------------------------------------------------
#psi4
#
memory 32 gb

molecule  {
0 1
  O        0.9755400    -1.0764940     0.0000010
  O       -1.3738420     1.6199730     0.0000050
  N       -1.7006930    -0.6600630    -0.0000030
  C        0.5224480     0.2188310    -0.0000040
  C       -0.9336490     0.4655780     0.0000000
  C        1.5816790     1.0895450    -0.0000030
  C        2.7579030     0.2894600     0.0000000
  C        2.3428020    -1.0138960     0.0000040
  C       -3.1488560    -0.5988880     0.0000010
  H        1.5004040     2.1673970    -0.0000090
  H       -1.2325350    -1.5568070    -0.0000080
  H        3.6897624     0.5975768     0.0000036
  H        2.8531580    -1.9656810     0.0000030
  H       -3.4251050     0.4551520     0.0000010
  H       -3.5616590    -1.0800960     0.8913170
  H       -3.5616630    -1.0800960    -0.8913140
units angstrom
no_reorient  #important for SAPT in psi4, default
symmetry c1  #important for SAPT in psi4, default
}

set PROPERTIES_ORIGIN ["COM"]
properties('MP2/aug-cc-pvtz', properties = ['dipole'])
--------------------------------------------------------------------------

    Molecular point group: c1
  Charge       = 0
  Multiplicity = 1
  Basis Set: AUG-CC-PVTZ
    Blend: AUG-CC-PVTZ
  Basis Set: (AUG-CC-PVTZ AUX)
    Blend: AUG-CC-PVTZ-JKFIT

    Orbital Energies [Eh]
    ---------------------

    Doubly Occupied:

       1A    -20.643215     2A    -20.515669     3A    -15.588830
       4A    -11.360230     5A    -11.312322     6A    -11.300974
       7A    -11.259277     8A    -11.251786     9A    -11.236765
      10A     -1.474028    11A     -1.370832    12A     -1.231270
      13A     -1.103518    14A     -1.039579    15A     -0.954381
      16A     -0.840901    17A     -0.829917    18A     -0.776720
      19A     -0.769987    20A     -0.671414    21A     -0.658374
      22A     -0.645455    23A     -0.618495    24A     -0.609158
      25A     -0.587045    26A     -0.581448    27A     -0.562151
      28A     -0.542128    29A     -0.536148    30A     -0.433663
      31A     -0.414086    32A     -0.391635    33A     -0.330720

  @DF-RHF Final Energy:  -435.59590780868166

   => Energetics <=

    Nuclear Repulsion Energy =            429.9844536406912994
    One-Electron Energy =               -1446.2764868653196118
    Two-Electron Energy =                 580.6961254159466534
    Total Energy =                       -435.5959078086816589
  Basis Set: (AUG-CC-PVTZ AUX)
    Blend: AUG-CC-PVTZ-RI
    Molecular point group: c1

    Geometry (in Angstrom), charge = 0, multiplicity = 1:

       Center              X                  Y                   Z               Mass
    ------------   -----------------  -----------------  -----------------  -----------------
         O            0.947428299825    -1.095492556623     0.000000811990    15.994914619570
         O           -1.401953700175     1.600974443377     0.000004811990    15.994914619570
         N           -1.728804700175    -0.679061556623    -0.000003188010    14.003074004430
         C            0.494336299825     0.199832443377    -0.000004188010    12.000000000000
         C           -0.961760700175     0.446579443377    -0.000000188010    12.000000000000
         C            1.553567299825     1.070546443377    -0.000003188010    12.000000000000
         C            2.729791299825     0.270461443377    -0.000000188010    12.000000000000
         C            2.314690299825    -1.032894556623     0.000003811990    12.000000000000
         C           -3.176967700175    -0.617886556623     0.000000811990    12.000000000000
         H            1.472292299825     2.148398443377    -0.000009188010     1.007825032230
         H           -1.260646700175    -1.575805556623    -0.000008188010     1.007825032230
         H            3.661650699825     0.578578243377     0.000003411990     1.007825032230
         H            2.825046299825    -1.984679556623     0.000002811990     1.007825032230
         H           -3.453216700175     0.436153443377     0.000000811990     1.007825032230
         H           -3.589770700175    -1.099094556623     0.891316811990     1.007825032230
         H           -3.589774700175    -1.099094556623    -0.891314188010     1.007825032230

  Basis Set: AUG-CC-PVTZ
    Blend: AUG-CC-PVTZ
  Basis Set: (AUG-CC-PVTZ AUX)
    Blend: AUG-CC-PVTZ-JKFIT
	 Reference Energy          =    -435.5959078086816589 [Eh]
	 Singles Energy            =      -0.0000000000000000 [Eh]
	 Same-Spin Energy          =      -0.4477082220413878 [Eh]
	 Opposite-Spin Energy      =      -1.3710220022350601 [Eh]
	 Correlation Energy        =      -1.8187302242764480 [Eh]
	 Total Energy              =    -437.4146380329581234 [Eh]

	 ================> DF-SCS-MP2 Energies <==================
	-----------------------------------------------------------
	 SCS Same-Spin Scale       =       0.3333333333333333 [-]
	 SCS Opposite-Spin Scale   =       1.2000000000000000 [-]
	 SCS Same-Spin Energy      =      -0.1492360740137959 [Eh]
	 SCS Opposite-Spin Energy  =      -1.6452264026820720 [Eh]
	 SCS Correlation Energy    =      -1.7944624766958679 [Eh]
	 SCS Total Energy          =    -437.3903702853775144 [Eh]
	-----------------------------------------------------------

  Dipole Moment: [D]
     X:     1.0942      Y:    -3.2472      Z:    -0.0000     Total:     3.4266

*** Psi4 exiting successfully. Buy a developer a beer!
