                               Psi4 1.3.2 release

  ==> Input File <==

--------------------------------------------------------------------------
#psi4
#
memory 32 gb

molecule  {
0 1
  O        0.9755400    -1.0764940     0.0000010
  O       -1.3738420     1.6199730     0.0000050
  N       -1.7006930    -0.6600630    -0.0000030
  C        0.5224480     0.2188310    -0.0000040
  C       -1.1308378     0.4989932     0.0000005
  C        1.5816790     1.0895450    -0.0000030
  C        2.7579030     0.2894600     0.0000000
  C        2.3428020    -1.0138960     0.0000040
  C       -3.1488560    -0.5988880     0.0000010
  H        1.5004040     2.1673970    -0.0000090
  H       -1.2325350    -1.5568070    -0.0000080
  H        3.7847070     0.6289700     0.0000040
  H        2.8531580    -1.9656810     0.0000030
  H       -3.4251050     0.4551520     0.0000010
  H       -3.5616590    -1.0800960     0.8913170
  H       -3.5616630    -1.0800960    -0.8913140
units angstrom
no_reorient  #important for SAPT in psi4, default
symmetry c1  #important for SAPT in psi4, default
}

set PROPERTIES_ORIGIN ["COM"]
properties('MP2/aug-cc-pvtz', properties = ['dipole'])
--------------------------------------------------------------------------

    Molecular point group: c1
  Charge       = 0
  Multiplicity = 1
  Basis Set: AUG-CC-PVTZ
    Blend: AUG-CC-PVTZ
  Basis Set: (AUG-CC-PVTZ AUX)
    Blend: AUG-CC-PVTZ-JKFIT

    Orbital Energies [Eh]
    ---------------------

    Doubly Occupied:

       1A    -20.626852     2A    -20.536761     3A    -15.603651
       4A    -11.368995     5A    -11.290573     6A    -11.285726
       7A    -11.270018     8A    -11.232756     9A    -11.226597
      10A     -1.457553    11A     -1.439893    12A     -1.280059
      13A     -1.081810    14A     -1.008328    15A     -0.962082
      16A     -0.832814    17A     -0.801235    18A     -0.783443
      19A     -0.747534    20A     -0.679398    21A     -0.658418
      22A     -0.658135    23A     -0.629035    24A     -0.607910
      25A     -0.572636    26A     -0.570425    27A     -0.565999
      28A     -0.562578    29A     -0.541505    30A     -0.421283
      31A     -0.416963    32A     -0.396919    33A     -0.311802

  @DF-RHF Final Energy:  -435.56627838324152

   => Energetics <=

    Nuclear Repulsion Energy =            429.2948361075538628
    One-Electron Energy =               -1444.8628585017697787
    Two-Electron Energy =                 580.0017440109743347
    Total Energy =                       -435.5662783832415244
  Basis Set: (AUG-CC-PVTZ AUX)
    Blend: AUG-CC-PVTZ-RI
    Molecular point group: c1

    Geometry (in Angstrom), charge = 0, multiplicity = 1:

       Center              X                  Y                   Z               Mass
    ------------   -----------------  -----------------  -----------------  -----------------
         O            0.965585998418    -1.098952207039     0.000000760785    15.994914619570
         O           -1.383796001582     1.597514792961     0.000004760785    15.994914619570
         N           -1.710647001582    -0.682521207039    -0.000003239215    14.003074004430
         C            0.512493998418     0.196372792961    -0.000004239215    12.000000000000
         C           -1.140791801582     0.476534992961     0.000000260785    12.000000000000
         C            1.571724998418     1.067086792961    -0.000003239215    12.000000000000
         C            2.747948998418     0.267001792961    -0.000000239215    12.000000000000
         C            2.332847998418    -1.036354207039     0.000003760785    12.000000000000
         C           -3.158810001582    -0.621346207039     0.000000760785    12.000000000000
         H            1.490449998418     2.144938792961    -0.000009239215     1.007825032230
         H           -1.242489001582    -1.579265207039    -0.000008239215     1.007825032230
         H            3.774752998418     0.606511792961     0.000003760785     1.007825032230
         H            2.843203998418    -1.988139207039     0.000002760785     1.007825032230
         H           -3.435059001582     0.432693792961     0.000000760785     1.007825032230
         H           -3.571613001582    -1.102554207039     0.891316760785     1.007825032230
         H           -3.571617001582    -1.102554207039    -0.891314239215     1.007825032230

  Basis Set: AUG-CC-PVTZ
    Blend: AUG-CC-PVTZ
  Basis Set: (AUG-CC-PVTZ AUX)
    Blend: AUG-CC-PVTZ-JKFIT
	 Reference Energy          =    -435.5662783832415244 [Eh]
	 Singles Energy            =      -0.0000000000000000 [Eh]
	 Same-Spin Energy          =      -0.4463533217592496 [Eh]
	 Opposite-Spin Energy      =      -1.3686667150824987 [Eh]
	 Correlation Energy        =      -1.8150200368417484 [Eh]
	 Total Energy              =    -437.3812984200832830 [Eh]

	 ================> DF-SCS-MP2 Energies <==================
	-----------------------------------------------------------
	 SCS Same-Spin Scale       =       0.3333333333333333 [-]
	 SCS Opposite-Spin Scale   =       1.2000000000000000 [-]
	 SCS Same-Spin Energy      =      -0.1487844405864165 [Eh]
	 SCS Opposite-Spin Energy  =      -1.6424000580989984 [Eh]
	 SCS Correlation Energy    =      -1.7911844986854148 [Eh]
	 SCS Total Energy          =    -437.3574628819269492 [Eh]
	-----------------------------------------------------------

  Dipole Moment: [D]
     X:    -0.6283      Y:    -3.0284      Z:    -0.0000     Total:     3.0928

*** Psi4 exiting successfully. Buy a developer a beer!
