                               Psi4 1.4a3.dev225

  ==> Input File <==

--------------------------------------------------------------------------
#psi4
#
memory 32 gb

molecule  {
0 1
  O        0.9755400    -1.0764940     0.0000010
  O       -1.3738420     1.6199730     0.0000050
  N       -1.7006930    -0.6600630    -0.0000030
  C        0.5224480     0.2188310    -0.0000040
  C       -0.9336490     0.4655780     0.0000000
  C        1.5816790     1.0895450    -0.0000030
  C        2.7579030     0.2894600     0.0000000
  C        2.2928543    -1.0161828     0.0000039
  C       -3.1488560    -0.5988880     0.0000010
  H        1.5004040     2.1673970    -0.0000090
  H       -1.2325350    -1.5568070    -0.0000080
  H        3.7847070     0.6289700     0.0000040
  H        2.8531580    -1.9656810     0.0000030
  H       -3.4251050     0.4551520     0.0000010
  H       -3.5616590    -1.0800960     0.8913170
  H       -3.5616630    -1.0800960    -0.8913140
units angstrom
no_reorient  #important for SAPT in psi4, default
symmetry c1  #important for SAPT in psi4, default
}

set PROPERTIES_ORIGIN ["COM"]
properties('MP2/aug-cc-pvtz', properties = ['dipole'])
--------------------------------------------------------------------------

    Molecular point group: c1
  Charge       = 0
  Multiplicity = 1
  Basis Set: AUG-CC-PVTZ
    Blend: AUG-CC-PVTZ
  Basis Set: (AUG-CC-PVTZ AUX)
    Blend: AUG-CC-PVTZ-JKFIT

    Orbital Energies [Eh]
    ---------------------

    Doubly Occupied:

       1A    -20.651705     2A    -20.514578     3A    -15.588500
       4A    -11.359750     5A    -11.315991     6A    -11.298712
       7A    -11.259178     8A    -11.253939     9A    -11.245991
      10A     -1.496884    11A     -1.370344    12A     -1.231192
      13A     -1.102010    14A     -1.040951    15A     -0.952686
      16A     -0.838102    17A     -0.825561    18A     -0.776080
      19A     -0.769329    20A     -0.673937    21A     -0.670072
      22A     -0.641235    23A     -0.619828    24A     -0.605535
      25A     -0.590257    26A     -0.575391    27A     -0.554884
      28A     -0.541173    29A     -0.536699    30A     -0.432907
      31A     -0.413282    32A     -0.391779    33A     -0.327983

  @DF-RHF Final Energy:  -435.60102128668427

   => Energetics <=

    Nuclear Repulsion Energy =            430.3382022570413028
    One-Electron Energy =               -1446.9455610621162123
    Two-Electron Energy =                 581.0063375183906373
    Total Energy =                       -435.6010212866842721
  Basis Set: (AUG-CC-PVTZ AUX)
    Blend: AUG-CC-PVTZ-RI
    Molecular point group: c1

    Geometry (in Angstrom), charge = 0, multiplicity = 1:

       Center              X                  Y                   Z               Mass
    ------------   -----------------  -----------------  -----------------  -----------------
         O            0.951456242300    -1.095526121843     0.000000818363    15.994914619570
         O           -1.397925757700     1.600940878157     0.000004818363    15.994914619570
         N           -1.724776757700    -0.679095121843    -0.000003181637    14.003074004430
         C            0.498364242300     0.199798878157    -0.000004181637    12.000000000000
         C           -0.957732757700     0.446545878157    -0.000000181637    12.000000000000
         C            1.557595242300     1.070512878157    -0.000003181637    12.000000000000
         C            2.733819242300     0.270427878157    -0.000000181637    12.000000000000
         C            2.268770542300    -1.035214921843     0.000003718363    12.000000000000
         C           -3.172939757700    -0.617920121843     0.000000818363    12.000000000000
         H            1.476320242300     2.148364878157    -0.000009181637     1.007825032230
         H           -1.256618757700    -1.575839121843    -0.000008181637     1.007825032230
         H            3.760623242300     0.609937878157     0.000003818363     1.007825032230
         H            2.829074242300    -1.984713121843     0.000002818363     1.007825032230
         H           -3.449188757700     0.436119878157     0.000000818363     1.007825032230
         H           -3.585742757700    -1.099128121843     0.891316818363     1.007825032230
         H           -3.585746757700    -1.099128121843    -0.891314181637     1.007825032230

  Basis Set: AUG-CC-PVTZ
    Blend: AUG-CC-PVTZ
  Basis Set: (AUG-CC-PVTZ AUX)
    Blend: AUG-CC-PVTZ-JKFIT
	 Reference Energy          =    -435.6010212866842721 [Eh]
	 Singles Energy            =      -0.0000000000000000 [Eh]
	 Same-Spin Energy          =      -0.4478599080171332 [Eh]
	 Opposite-Spin Energy      =      -1.3703748792858259 [Eh]
	 Correlation Energy        =      -1.8182347873029592 [Eh]
	 Total Energy              =    -437.4192560739872420 [Eh]

	 ================> DF-SCS-MP2 Energies <==================
	-----------------------------------------------------------
	 SCS Same-Spin Scale       =       0.3333333333333333 [-]
	 SCS Opposite-Spin Scale   =       1.2000000000000000 [-]
	 SCS Same-Spin Energy      =      -0.1492866360057110 [Eh]
	 SCS Opposite-Spin Energy  =      -1.6444498551429911 [Eh]
	 SCS Correlation Energy    =      -1.7937364911487022 [Eh]
	 SCS Total Energy          =    -437.3947577778329787 [Eh]
	-----------------------------------------------------------

  Dipole Moment: [D]
     X:     1.0368      Y:    -3.2715      Z:    -0.0000     Total:     3.4318

*** Psi4 exiting successfully. Buy a developer a beer!
