                               Psi4 1.4a3.dev225

  ==> Input File <==

--------------------------------------------------------------------------
#psi4
#
memory 32 gb

molecule  {
0 1
  O        0.9755400    -1.0764940     0.0000010
  O       -1.3738420     1.6199730     0.0000050
  N       -1.7006930    -0.6600630    -0.0000030
  C        0.5224480     0.2188310    -0.0000040
  C       -0.9336490     0.4655780     0.0000000
  C        1.5662290     1.0768447    -0.0000030
  C        2.7579030     0.2894600     0.0000000
  C        2.3428020    -1.0138960     0.0000040
  C       -3.1488560    -0.5988880     0.0000010
  H        1.5004040     2.1673970    -0.0000090
  H       -1.2325350    -1.5568070    -0.0000080
  H        3.7847070     0.6289700     0.0000040
  H        2.8531580    -1.9656810     0.0000030
  H       -3.4251050     0.4551520     0.0000010
  H       -3.5616590    -1.0800960     0.8913170
  H       -3.5616630    -1.0800960    -0.8913140
units angstrom
no_reorient  #important for SAPT in psi4, default
symmetry c1  #important for SAPT in psi4, default
}

set PROPERTIES_ORIGIN ["COM"]
properties('MP2/aug-cc-pvtz', properties = ['dipole'])
--------------------------------------------------------------------------

    Molecular point group: c1
  Charge       = 0
  Multiplicity = 1
  Basis Set: AUG-CC-PVTZ
    Blend: AUG-CC-PVTZ
  Basis Set: (AUG-CC-PVTZ AUX)
    Blend: AUG-CC-PVTZ-JKFIT

    Orbital Energies [Eh]
    ---------------------

    Doubly Occupied:

       1A    -20.641870     2A    -20.516010     3A    -15.589149
       4A    -11.360541     5A    -11.312497     6A    -11.298904
       7A    -11.259466     8A    -11.250974     9A    -11.247873
      10A     -1.474141    11A     -1.371163    12A     -1.231547
      13A     -1.102150    14A     -1.040287    15A     -0.954536
      16A     -0.840269    17A     -0.820239    18A     -0.774849
      19A     -0.764288    20A     -0.671054    21A     -0.659059
      22A     -0.642093    23A     -0.618720    24A     -0.601519
      25A     -0.584753    26A     -0.576605    27A     -0.560826
      28A     -0.542474    29A     -0.536468    30A     -0.433996
      31A     -0.414342    32A     -0.391854    33A     -0.333682

  @DF-RHF Final Energy:  -435.60279877729039

   => Energetics <=

    Nuclear Repulsion Energy =            429.8084837078336591
    One-Electron Energy =               -1445.9861731923276693
    Two-Electron Energy =                 580.5748907072036218
    Total Energy =                       -435.6027987772904453
  Basis Set: (AUG-CC-PVTZ AUX)
    Blend: AUG-CC-PVTZ-RI
    Molecular point group: c1

    Geometry (in Angstrom), charge = 0, multiplicity = 1:

       Center              X                  Y                   Z               Mass
    ------------   -----------------  -----------------  -----------------  -----------------
         O            0.948145725822    -1.094526807009     0.000000808766    15.994914619570
         O           -1.401236274178     1.601940192991     0.000004808766    15.994914619570
         N           -1.728087274178    -0.678095807009    -0.000003191234    14.003074004430
         C            0.495053725822     0.200798192991    -0.000004191234    12.000000000000
         C           -0.961043274178     0.447545192991    -0.000000191234    12.000000000000
         C            1.538834725822     1.058811892991    -0.000003191234    12.000000000000
         C            2.730508725822     0.271427192991    -0.000000191234    12.000000000000
         C            2.315407725822    -1.031928807009     0.000003808766    12.000000000000
         C           -3.176250274178    -0.616920807009     0.000000808766    12.000000000000
         H            1.473009725822     2.149364192991    -0.000009191234     1.007825032230
         H           -1.259929274178    -1.574839807009    -0.000008191234     1.007825032230
         H            3.757312725822     0.610937192991     0.000003808766     1.007825032230
         H            2.825763725822    -1.983713807009     0.000002808766     1.007825032230
         H           -3.452499274178     0.437119192991     0.000000808766     1.007825032230
         H           -3.589053274178    -1.098128807009     0.891316808766     1.007825032230
         H           -3.589057274178    -1.098128807009    -0.891314191234     1.007825032230

  Basis Set: AUG-CC-PVTZ
    Blend: AUG-CC-PVTZ
  Basis Set: (AUG-CC-PVTZ AUX)
    Blend: AUG-CC-PVTZ-JKFIT
	 Reference Energy          =    -435.6027987772903884 [Eh]
	 Singles Energy            =      -0.0000000000000000 [Eh]
	 Same-Spin Energy          =      -0.4473944826802964 [Eh]
	 Opposite-Spin Energy      =      -1.3707950655512804 [Eh]
	 Correlation Energy        =      -1.8181895482315769 [Eh]
	 Total Energy              =    -437.4209883255219893 [Eh]

	 ================> DF-SCS-MP2 Energies <==================
	-----------------------------------------------------------
	 SCS Same-Spin Scale       =       0.3333333333333333 [-]
	 SCS Opposite-Spin Scale   =       1.2000000000000000 [-]
	 SCS Same-Spin Energy      =      -0.1491314942267654 [Eh]
	 SCS Opposite-Spin Energy  =      -1.6449540786615364 [Eh]
	 SCS Correlation Energy    =      -1.7940855728883018 [Eh]
	 SCS Total Energy          =    -437.3968843501787092 [Eh]
	-----------------------------------------------------------

  Dipole Moment: [D]
     X:     1.0910      Y:    -3.2288      Z:    -0.0000     Total:     3.4081

*** Psi4 exiting successfully. Buy a developer a beer!
