                               Psi4 1.3.2 release

  ==> Input File <==

--------------------------------------------------------------------------
#psi4
#
memory 32 gb

molecule  {
0 1
  O        0.9755400    -1.0764940     0.0000010
  O       -1.3738420     1.6199730     0.0000050
  N       -1.7006930    -0.6600630    -0.0000030
  C        0.5224480     0.2188310    -0.0000040
  C       -0.9336490     0.4655780     0.0000000
  C        1.5816790     1.0895450    -0.0000030
  C        2.7579030     0.2894600     0.0000000
  C        2.3428020    -1.0138960     0.0000040
  C       -3.1488560    -0.5988880     0.0000010
  H        1.5004040     2.1673970    -0.0000090
  H       -1.2325350    -1.5568070    -0.0000080
  H        3.7847070     0.6289700     0.0000040
  H        2.9476701    -2.1419407     0.0000028
  H       -3.4251050     0.4551520     0.0000010
  H       -3.5616590    -1.0800960     0.8913170
  H       -3.5616630    -1.0800960    -0.8913140
units angstrom
no_reorient  #important for SAPT in psi4, default
symmetry c1  #important for SAPT in psi4, default
}

set PROPERTIES_ORIGIN ["COM"]
properties('MP2/aug-cc-pvtz', properties = ['dipole'])
--------------------------------------------------------------------------

    Molecular point group: c1
  Charge       = 0
  Multiplicity = 1
  Basis Set: AUG-CC-PVTZ
    Blend: AUG-CC-PVTZ
  Basis Set: (AUG-CC-PVTZ AUX)
    Blend: AUG-CC-PVTZ-JKFIT

    Orbital Energies [Eh]
    ---------------------

    Doubly Occupied:

       1A    -20.645393     2A    -20.516117     3A    -15.589202
       4A    -11.360864     5A    -11.332220     6A    -11.301954
       7A    -11.259519     8A    -11.253612     9A    -11.249283
      10A     -1.475700    11A     -1.371287    12A     -1.231644
      13A     -1.102599    14A     -1.035187    15A     -0.951801
      16A     -0.836814    17A     -0.812391    18A     -0.774630
      19A     -0.761544    20A     -0.659818    21A     -0.648811
      22A     -0.641903    23A     -0.618941    24A     -0.598955
      25A     -0.584797    26A     -0.574166    27A     -0.550912
      28A     -0.540020    29A     -0.536615    30A     -0.433925
      31A     -0.415346    32A     -0.392042    33A     -0.331378

  @DF-RHF Final Energy:  -435.57873668092850

   => Energetics <=

    Nuclear Repulsion Energy =            428.5110549831029516
    One-Electron Energy =               -1443.4008036714860737
    Two-Electron Energy =                 579.3110120074546785
    Total Energy =                       -435.5787366809285004
  Basis Set: (AUG-CC-PVTZ AUX)
    Blend: AUG-CC-PVTZ-RI
    Molecular point group: c1

    Geometry (in Angstrom), charge = 0, multiplicity = 1:

       Center              X                  Y                   Z               Mass
    ------------   -----------------  -----------------  -----------------  -----------------
         O            0.945901368601    -1.094325001281     0.000000810378    15.994914619570
         O           -1.403480631399     1.602141998719     0.000004810378    15.994914619570
         N           -1.730331631399    -0.677894001281    -0.000003189622    14.003074004430
         C            0.492809368601     0.200999998719    -0.000004189622    12.000000000000
         C           -0.963287631399     0.447746998719    -0.000000189622    12.000000000000
         C            1.552040368601     1.071713998719    -0.000003189622    12.000000000000
         C            2.728264368601     0.271628998719    -0.000000189622    12.000000000000
         C            2.313163368601    -1.031727001281     0.000003810378    12.000000000000
         C           -3.178494631399    -0.616719001281     0.000000810378    12.000000000000
         H            1.470765368601     2.149565998719    -0.000009189622     1.007825032230
         H           -1.262173631399    -1.574638001281    -0.000008189622     1.007825032230
         H            3.755068368601     0.611138998719     0.000003810378     1.007825032230
         H            2.918031468601    -2.159771701281     0.000002610378     1.007825032230
         H           -3.454743631399     0.437320998719     0.000000810378     1.007825032230
         H           -3.591297631399    -1.097927001281     0.891316810378     1.007825032230
         H           -3.591301631399    -1.097927001281    -0.891314189622     1.007825032230

  Basis Set: AUG-CC-PVTZ
    Blend: AUG-CC-PVTZ
  Basis Set: (AUG-CC-PVTZ AUX)
    Blend: AUG-CC-PVTZ-JKFIT
	 Reference Energy          =    -435.5787366809285004 [Eh]
	 Singles Energy            =      -0.0000000000000000 [Eh]
	 Same-Spin Energy          =      -0.4484047165494151 [Eh]
	 Opposite-Spin Energy      =      -1.3736927136823969 [Eh]
	 Correlation Energy        =      -1.8220974302318120 [Eh]
	 Total Energy              =    -437.4008341111602931 [Eh]

	 ================> DF-SCS-MP2 Energies <==================
	-----------------------------------------------------------
	 SCS Same-Spin Scale       =       0.3333333333333333 [-]
	 SCS Opposite-Spin Scale   =       1.2000000000000000 [-]
	 SCS Same-Spin Energy      =      -0.1494682388498050 [Eh]
	 SCS Opposite-Spin Energy  =      -1.6484312564188761 [Eh]
	 SCS Correlation Energy    =      -1.7978994952686811 [Eh]
	 SCS Total Energy          =    -437.3766361761971666 [Eh]
	-----------------------------------------------------------

  Dipole Moment: [D]
     X:     1.0789      Y:    -3.2470      Z:    -0.0000     Total:     3.4215

*** Psi4 exiting successfully. Buy a developer a beer!
