                               Psi4 1.4a3.dev225

  ==> Input File <==

--------------------------------------------------------------------------
#psi4
#
memory 32 gb

molecule  {
0 1
  O        0.9755400    -1.0764940     0.0000010
  O       -1.3738420     1.6199730     0.0000050
  N       -1.7006930    -0.6600630    -0.0000030
  C        0.5224480     0.2188310    -0.0000040
  C       -0.9336490     0.4655780     0.0000000
  C        1.5816790     1.0895450    -0.0000030
  C        2.7579030     0.2894600     0.0000000
  C        2.3428020    -1.0138960     0.0000040
  C       -3.1488560    -0.5988880     0.0000010
  H        1.5004040     2.1673970    -0.0000090
  H       -1.2325350    -1.5568070    -0.0000080
  H        3.7847070     0.6289700     0.0000040
  H        2.8767860    -2.0097459     0.0000030
  H       -3.4251050     0.4551520     0.0000010
  H       -3.5616590    -1.0800960     0.8913170
  H       -3.5616630    -1.0800960    -0.8913140
units angstrom
no_reorient  #important for SAPT in psi4, default
symmetry c1  #important for SAPT in psi4, default
}

set PROPERTIES_ORIGIN ["COM"]
properties('MP2/aug-cc-pvtz', properties = ['dipole'])
--------------------------------------------------------------------------

    Molecular point group: c1
  Charge       = 0
  Multiplicity = 1
  Basis Set: AUG-CC-PVTZ
    Blend: AUG-CC-PVTZ
  Basis Set: (AUG-CC-PVTZ AUX)
    Blend: AUG-CC-PVTZ-JKFIT

    Orbital Energies [Eh]
    ---------------------

    Doubly Occupied:

       1A    -20.643994     2A    -20.515895     3A    -15.589036
       4A    -11.360546     5A    -11.317887     6A    -11.301504
       7A    -11.259415     8A    -11.252749     9A    -11.248273
      10A     -1.474690    11A     -1.371064    12A     -1.231471
      13A     -1.101729    14A     -1.037645    15A     -0.953203
      16A     -0.839265    17A     -0.817455    18A     -0.775024
      19A     -0.764000    20A     -0.665008    21A     -0.658976
      22A     -0.641793    23A     -0.618713    24A     -0.600330
      25A     -0.585903    26A     -0.576734    27A     -0.559933
      28A     -0.542088    29A     -0.536374    30A     -0.433847
      31A     -0.414571    32A     -0.391837    33A     -0.330996

  @DF-RHF Final Energy:  -435.59956514127828

   => Energetics <=

    Nuclear Repulsion Energy =            429.1894525388572674
    One-Electron Energy =               -1444.7541383663758552
    Two-Electron Energy =                 579.9651206862403114
    Total Energy =                       -435.5995651412782763
  Basis Set: (AUG-CC-PVTZ AUX)
    Blend: AUG-CC-PVTZ-RI
    Molecular point group: c1

    Geometry (in Angstrom), charge = 0, multiplicity = 1:

       Center              X                  Y                   Z               Mass
    ------------   -----------------  -----------------  -----------------  -----------------
         O            0.946472660857    -1.095390428726     0.000000808766    15.994914619570
         O           -1.402909339143     1.601076571274     0.000004808766    15.994914619570
         N           -1.729760339143    -0.678959428726    -0.000003191234    14.003074004430
         C            0.493380660857     0.199934571274    -0.000004191234    12.000000000000
         C           -0.962716339143     0.446681571274    -0.000000191234    12.000000000000
         C            1.552611660857     1.070648571274    -0.000003191234    12.000000000000
         C            2.728835660857     0.270563571274    -0.000000191234    12.000000000000
         C            2.313734660857    -1.032792428726     0.000003808766    12.000000000000
         C           -3.177923339143    -0.617784428726     0.000000808766    12.000000000000
         H            1.471336660857     2.148500571274    -0.000009191234     1.007825032230
         H           -1.261602339143    -1.575703428726    -0.000008191234     1.007825032230
         H            3.755639660857     0.610073571274     0.000003808766     1.007825032230
         H            2.847718660857    -2.028642328726     0.000002808766     1.007825032230
         H           -3.454172339143     0.436255571274     0.000000808766     1.007825032230
         H           -3.590726339143    -1.098992428726     0.891316808766     1.007825032230
         H           -3.590730339143    -1.098992428726    -0.891314191234     1.007825032230

  Basis Set: AUG-CC-PVTZ
    Blend: AUG-CC-PVTZ
  Basis Set: (AUG-CC-PVTZ AUX)
    Blend: AUG-CC-PVTZ-JKFIT
	 Reference Energy          =    -435.5995651412782763 [Eh]
	 Singles Energy            =      -0.0000000000000000 [Eh]
	 Same-Spin Energy          =      -0.4479422994561272 [Eh]
	 Opposite-Spin Energy      =      -1.3718504845986574 [Eh]
	 Correlation Energy        =      -1.8197927840547847 [Eh]
	 Total Energy              =    -437.4193579253330881 [Eh]

	 ================> DF-SCS-MP2 Energies <==================
	-----------------------------------------------------------
	 SCS Same-Spin Scale       =       0.3333333333333333 [-]
	 SCS Opposite-Spin Scale   =       1.2000000000000000 [-]
	 SCS Same-Spin Energy      =      -0.1493140998187091 [Eh]
	 SCS Opposite-Spin Energy  =      -1.6462205815183888 [Eh]
	 SCS Correlation Energy    =      -1.7955346813370978 [Eh]
	 SCS Total Energy          =    -437.3950998226153501 [Eh]
	-----------------------------------------------------------

  Dipole Moment: [D]
     X:     1.0913      Y:    -3.2431      Z:    -0.0000     Total:     3.4218

*** Psi4 exiting successfully. Buy a developer a beer!
