                               Psi4 1.3.2 release

  ==> Input File <==

--------------------------------------------------------------------------
#psi4
#
memory 32 gb

molecule  {
0 1
  O        1.0647936    -1.0417326     0.0000012
  O       -1.3738420     1.6199730     0.0000050
  N       -1.7006930    -0.6600630    -0.0000030
  C        0.5224480     0.2188310    -0.0000040
  C       -0.9336490     0.4655780     0.0000000
  C        1.5816790     1.0895450    -0.0000030
  C        2.7579030     0.2894600     0.0000000
  C        2.3428020    -1.0138960     0.0000040
  C       -3.1488560    -0.5988880     0.0000010
  H        1.5004040     2.1673970    -0.0000090
  H       -1.2325350    -1.5568070    -0.0000080
  H        3.7847070     0.6289700     0.0000040
  H        2.8531580    -1.9656810     0.0000030
  H       -3.4251050     0.4551520     0.0000010
  H       -3.5616590    -1.0800960     0.8913170
  H       -3.5616630    -1.0800960    -0.8913140
units angstrom
no_reorient  #important for SAPT in psi4, default
symmetry c1  #important for SAPT in psi4, default
}

set PROPERTIES_ORIGIN ["COM"]
properties('MP2/aug-cc-pvtz', properties = ['dipole'])
--------------------------------------------------------------------------

    Molecular point group: c1
  Charge       = 0
  Multiplicity = 1
  Basis Set: AUG-CC-PVTZ
    Blend: AUG-CC-PVTZ
  Basis Set: (AUG-CC-PVTZ AUX)
    Blend: AUG-CC-PVTZ-JKFIT

    Orbital Energies [Eh]
    ---------------------

    Doubly Occupied:

       1A    -20.645108     2A    -20.516809     3A    -15.590485
       4A    -11.363542     5A    -11.308078     6A    -11.297366
       7A    -11.260387     8A    -11.251575     9A    -11.236578
      10A     -1.509026    11A     -1.372588    12A     -1.233033
      13A     -1.096348    14A     -1.050075    15A     -0.956945
      16A     -0.840794    17A     -0.829867    18A     -0.775691
      19A     -0.769456    20A     -0.687416    21A     -0.675680
      22A     -0.642276    23A     -0.622043    24A     -0.603686
      25A     -0.586817    26A     -0.570123    27A     -0.554564
      28A     -0.540295    29A     -0.539134    30A     -0.435832
      31A     -0.406897    32A     -0.393550    33A     -0.330315

  @DF-RHF Final Energy:  -435.59863572944266

   => Energetics <=

    Nuclear Repulsion Energy =            430.7852835204727171
    One-Electron Energy =               -1447.7830788243113602
    Two-Electron Energy =                 581.3991595743959806
    Total Energy =                       -435.5986357294426625
  Basis Set: (AUG-CC-PVTZ AUX)
    Blend: AUG-CC-PVTZ-RI
    Molecular point group: c1

    Geometry (in Angstrom), charge = 0, multiplicity = 1:

       Center              X                  Y                   Z               Mass
    ------------   -----------------  -----------------  -----------------  -----------------
         O            1.024500216209    -1.065430519978     0.000000983184    15.994914619570
         O           -1.414135383791     1.596275080022     0.000004783184    15.994914619570
         N           -1.740986383791    -0.683760919978    -0.000003216816    14.003074004430
         C            0.482154616209     0.195133080022    -0.000004216816    12.000000000000
         C           -0.973942383791     0.441880080022    -0.000000216816    12.000000000000
         C            1.541385616209     1.065847080022    -0.000003216816    12.000000000000
         C            2.717609616209     0.265762080022    -0.000000216816    12.000000000000
         C            2.302508616209    -1.037593919978     0.000003783184    12.000000000000
         C           -3.189149383791    -0.622585919978     0.000000783184    12.000000000000
         H            1.460110616209     2.143699080022    -0.000009216816     1.007825032230
         H           -1.272828383791    -1.580504919978    -0.000008216816     1.007825032230
         H            3.744413616209     0.605272080022     0.000003783184     1.007825032230
         H            2.812864616209    -1.989378919978     0.000002783184     1.007825032230
         H           -3.465398383791     0.431454080022     0.000000783184     1.007825032230
         H           -3.601952383791    -1.103793919978     0.891316783184     1.007825032230
         H           -3.601956383791    -1.103793919978    -0.891314216816     1.007825032230

  Basis Set: AUG-CC-PVTZ
    Blend: AUG-CC-PVTZ
  Basis Set: (AUG-CC-PVTZ AUX)
    Blend: AUG-CC-PVTZ-JKFIT
	 Reference Energy          =    -435.5986357294426625 [Eh]
	 Singles Energy            =      -0.0000000000000000 [Eh]
	 Same-Spin Energy          =      -0.4474931309888924 [Eh]
	 Opposite-Spin Energy      =      -1.3681935778425669 [Eh]
	 Correlation Energy        =      -1.8156867088314592 [Eh]
	 Total Energy              =    -437.4143224382740982 [Eh]

	 ================> DF-SCS-MP2 Energies <==================
	-----------------------------------------------------------
	 SCS Same-Spin Scale       =       0.3333333333333333 [-]
	 SCS Opposite-Spin Scale   =       1.2000000000000000 [-]
	 SCS Same-Spin Energy      =      -0.1491643769962975 [Eh]
	 SCS Opposite-Spin Energy  =      -1.6418322934110803 [Eh]
	 SCS Correlation Energy    =      -1.7909966704073779 [Eh]
	 SCS Total Energy          =    -437.3896323998500293 [Eh]
	-----------------------------------------------------------

  Dipole Moment: [D]
     X:     0.8000      Y:    -3.4352      Z:    -0.0000     Total:     3.5272

*** Psi4 exiting successfully. Buy a developer a beer!
