                               Psi4 1.3.2 release

  ==> Input File <==

--------------------------------------------------------------------------
#psi4
#
memory 32 gb

molecule  {
0 1
  O        0.9755400    -1.0764940     0.0000010
  O       -1.3738420     1.6199730     0.0000050
  N       -1.7006930    -0.6600630    -0.0000030
  C        0.5554654     0.1244390    -0.0000036
  C       -0.9336490     0.4655780     0.0000000
  C        1.5816790     1.0895450    -0.0000030
  C        2.7579030     0.2894600     0.0000000
  C        2.3428020    -1.0138960     0.0000040
  C       -3.1488560    -0.5988880     0.0000010
  H        1.5004040     2.1673970    -0.0000090
  H       -1.2325350    -1.5568070    -0.0000080
  H        3.7847070     0.6289700     0.0000040
  H        2.8531580    -1.9656810     0.0000030
  H       -3.4251050     0.4551520     0.0000010
  H       -3.5616590    -1.0800960     0.8913170
  H       -3.5616630    -1.0800960    -0.8913140
units angstrom
no_reorient  #important for SAPT in psi4, default
symmetry c1  #important for SAPT in psi4, default
}

set PROPERTIES_ORIGIN ["COM"]
properties('MP2/aug-cc-pvtz', properties = ['dipole'])
--------------------------------------------------------------------------

    Molecular point group: c1
  Charge       = 0
  Multiplicity = 1
  Basis Set: AUG-CC-PVTZ
    Blend: AUG-CC-PVTZ
  Basis Set: (AUG-CC-PVTZ AUX)
    Blend: AUG-CC-PVTZ-JKFIT

    Orbital Energies [Eh]
    ---------------------

    Doubly Occupied:

       1A    -20.657886     2A    -20.519785     3A    -15.590098
       4A    -11.364024     5A    -11.307382     6A    -11.305105
       7A    -11.259875     8A    -11.249469     9A    -11.245617
      10A     -1.520395    11A     -1.371289    12A     -1.233152
      13A     -1.100883    14A     -1.038717    15A     -0.954771
      16A     -0.831995    17A     -0.830732    18A     -0.779251
      19A     -0.771406    20A     -0.682424    21A     -0.673838
      22A     -0.641645    23A     -0.621058    24A     -0.604939
      25A     -0.597324    26A     -0.579188    27A     -0.551231
      28A     -0.538072    29A     -0.535842    30A     -0.432064
      31A     -0.413051    32A     -0.393203    33A     -0.322571

  @DF-RHF Final Energy:  -435.59139459383215

   => Energetics <=

    Nuclear Repulsion Energy =            430.1531071611981929
    One-Electron Energy =               -1446.4524354537966246
    Two-Electron Energy =                 580.7079336987662828
    Total Energy =                       -435.5913945938320921
  Basis Set: (AUG-CC-PVTZ AUX)
    Blend: AUG-CC-PVTZ-RI
    Molecular point group: c1

    Geometry (in Angstrom), charge = 0, multiplicity = 1:

       Center              X                  Y                   Z               Mass
    ------------   -----------------  -----------------  -----------------  -----------------
         O            0.943494629480    -1.086687393979     0.000000770381    15.994914619570
         O           -1.405887370520     1.609779606021     0.000004770381    15.994914619570
         N           -1.732738370520    -0.670256393979    -0.000003229619    14.003074004430
         C            0.523420029480     0.114245606021    -0.000003829619    12.000000000000
         C           -0.965694370520     0.455384606021    -0.000000229619    12.000000000000
         C            1.549633629480     1.079351606021    -0.000003229619    12.000000000000
         C            2.725857629480     0.279266606021    -0.000000229619    12.000000000000
         C            2.310756629480    -1.024089393979     0.000003770381    12.000000000000
         C           -3.180901370520    -0.609081393979     0.000000770381    12.000000000000
         H            1.468358629480     2.157203606021    -0.000009229619     1.007825032230
         H           -1.264580370520    -1.567000393979    -0.000008229619     1.007825032230
         H            3.752661629480     0.618776606021     0.000003770381     1.007825032230
         H            2.821112629480    -1.975874393979     0.000002770381     1.007825032230
         H           -3.457150370520     0.444958606021     0.000000770381     1.007825032230
         H           -3.593704370520    -1.090289393979     0.891316770381     1.007825032230
         H           -3.593708370520    -1.090289393979    -0.891314229619     1.007825032230

  Basis Set: AUG-CC-PVTZ
    Blend: AUG-CC-PVTZ
  Basis Set: (AUG-CC-PVTZ AUX)
    Blend: AUG-CC-PVTZ-JKFIT
	 Reference Energy          =    -435.5913945938321490 [Eh]
	 Singles Energy            =      -0.0000000000000000 [Eh]
	 Same-Spin Energy          =      -0.4483231849512875 [Eh]
	 Opposite-Spin Energy      =      -1.3707788178619720 [Eh]
	 Correlation Energy        =      -1.8191020028132594 [Eh]
	 Total Energy              =    -437.4104965966454301 [Eh]

	 ================> DF-SCS-MP2 Energies <==================
	-----------------------------------------------------------
	 SCS Same-Spin Scale       =       0.3333333333333333 [-]
	 SCS Opposite-Spin Scale   =       1.2000000000000000 [-]
	 SCS Same-Spin Energy      =      -0.1494410616504292 [Eh]
	 SCS Opposite-Spin Energy  =      -1.6449345814343663 [Eh]
	 SCS Correlation Energy    =      -1.7943756430847955 [Eh]
	 SCS Total Energy          =    -437.3857702369169260 [Eh]
	-----------------------------------------------------------

  Dipole Moment: [D]
     X:     1.0123      Y:    -3.3783      Z:    -0.0000     Total:     3.5266

*** Psi4 exiting successfully. Buy a developer a beer!
