                               Psi4 1.3.2 release

  ==> Input File <==

--------------------------------------------------------------------------
#psi4
#
memory 32 gb

molecule  {
0 1
  O        0.9755400    -1.0764940     0.0000010
  O       -1.3738420     1.6199730     0.0000050
  N       -1.7006930    -0.6600630    -0.0000030
  C        0.5224480     0.2188310    -0.0000040
  C       -0.9336490     0.4655780     0.0000000
  C        1.5816790     1.0895450    -0.0000030
  C        2.7579030     0.2894600     0.0000000
  C        2.3428020    -1.0138960     0.0000040
  C       -3.1488560    -0.5988880     0.0000010
  H        1.5004040     2.1673970    -0.0000090
  H       -1.2325350    -1.5568070    -0.0000080
  H        3.7847070     0.6289700     0.0000040
  H        2.7586459    -1.7894213     0.0000032
  H       -3.4251050     0.4551520     0.0000010
  H       -3.5616590    -1.0800960     0.8913170
  H       -3.5616630    -1.0800960    -0.8913140
units angstrom
no_reorient  #important for SAPT in psi4, default
symmetry c1  #important for SAPT in psi4, default
}

set PROPERTIES_ORIGIN ["COM"]
properties('MP2/aug-cc-pvtz', properties = ['dipole'])
--------------------------------------------------------------------------

    Molecular point group: c1
  Charge       = 0
  Multiplicity = 1
  Basis Set: AUG-CC-PVTZ
    Blend: AUG-CC-PVTZ
  Basis Set: (AUG-CC-PVTZ AUX)
    Blend: AUG-CC-PVTZ-JKFIT

    Orbital Energies [Eh]
    ---------------------

    Doubly Occupied:

       1A    -20.642589     2A    -20.516018     3A    -15.589117
       4A    -11.360513     5A    -11.301665     6A    -11.290255
       7A    -11.259475     8A    -11.251942     9A    -11.247873
      10A     -1.473867    11A     -1.371160    12A     -1.231561
      13A     -1.101111    14A     -1.049103    15A     -0.959320
      16A     -0.860601    17A     -0.826675    18A     -0.778325
      19A     -0.767668    20A     -0.697163    21A     -0.658241
      22A     -0.641855    23A     -0.618658    24A     -0.604250
      25A     -0.588788    26A     -0.578885    27A     -0.565103
      28A     -0.542695    29A     -0.536370    30A     -0.434088
      31A     -0.413897    32A     -0.391830    33A     -0.331402

  @DF-RHF Final Energy:  -435.56536363187269

   => Energetics <=

    Nuclear Repulsion Energy =            430.6341155246618086
    One-Electron Energy =               -1447.4348284072289061
    Two-Electron Energy =                 581.2353492506944121
    Total Energy =                       -435.5653636318726285
  Basis Set: (AUG-CC-PVTZ AUX)
    Blend: AUG-CC-PVTZ-RI
    Molecular point group: c1

    Geometry (in Angstrom), charge = 0, multiplicity = 1:

       Center              X                  Y                   Z               Mass
    ------------   -----------------  -----------------  -----------------  -----------------
         O            0.947424814080    -1.097166140597     0.000000807155    15.994914619570
         O           -1.401957185920     1.599300859403     0.000004807155    15.994914619570
         N           -1.728808185920    -0.680735140597    -0.000003192845    14.003074004430
         C            0.494332814080     0.198158859403    -0.000004192845    12.000000000000
         C           -0.961764185920     0.444905859403    -0.000000192845    12.000000000000
         C            1.553563814080     1.068872859403    -0.000003192845    12.000000000000
         C            2.729787814080     0.268787859403    -0.000000192845    12.000000000000
         C            2.314686814080    -1.034568140597     0.000003807155    12.000000000000
         C           -3.176971185920    -0.619560140597     0.000000807155    12.000000000000
         H            1.472288814080     2.146724859403    -0.000009192845     1.007825032230
         H           -1.260650185920    -1.577479140597    -0.000008192845     1.007825032230
         H            3.756591814080     0.608297859403     0.000003807155     1.007825032230
         H            2.730530714080    -1.810093440597     0.000003007155     1.007825032230
         H           -3.453220185920     0.434479859403     0.000000807155     1.007825032230
         H           -3.589774185920    -1.100768140597     0.891316807155     1.007825032230
         H           -3.589778185920    -1.100768140597    -0.891314192845     1.007825032230

  Basis Set: AUG-CC-PVTZ
    Blend: AUG-CC-PVTZ
  Basis Set: (AUG-CC-PVTZ AUX)
    Blend: AUG-CC-PVTZ-JKFIT
	 Reference Energy          =    -435.5653636318726853 [Eh]
	 Singles Energy            =      -0.0000000000000000 [Eh]
	 Same-Spin Energy          =      -0.4476129501081570 [Eh]
	 Opposite-Spin Energy      =      -1.3709269980761267 [Eh]
	 Correlation Energy        =      -1.8185399481842839 [Eh]
	 Total Energy              =    -437.3839035800569945 [Eh]

	 ================> DF-SCS-MP2 Energies <==================
	-----------------------------------------------------------
	 SCS Same-Spin Scale       =       0.3333333333333333 [-]
	 SCS Opposite-Spin Scale   =       1.2000000000000000 [-]
	 SCS Same-Spin Energy      =      -0.1492043167027190 [Eh]
	 SCS Opposite-Spin Energy  =      -1.6451123976913520 [Eh]
	 SCS Correlation Energy    =      -1.7943167143940710 [Eh]
	 SCS Total Energy          =    -437.3596803462667708 [Eh]
	-----------------------------------------------------------

  Dipole Moment: [D]
     X:     1.0753      Y:    -3.1927      Z:    -0.0000     Total:     3.3689

*** Psi4 exiting successfully. Buy a developer a beer!
