                               Psi4 1.3.2 release

  ==> Input File <==

--------------------------------------------------------------------------
#psi4
#
memory 32 gb

molecule  {
0 1
  O        0.9768407    -1.1003465     0.0000010
  O       -1.3738420     1.6199730     0.0000050
  N       -1.7006930    -0.6600630    -0.0000030
  C        0.5224480     0.2188310    -0.0000040
  C       -0.9336490     0.4655780     0.0000000
  C        1.5816790     1.0895450    -0.0000030
  C        2.7579030     0.2894600     0.0000000
  C        2.3428020    -1.0138960     0.0000040
  C       -3.1488560    -0.5988880     0.0000010
  H        1.5004040     2.1673970    -0.0000090
  H       -1.2325350    -1.5568070    -0.0000080
  H        3.7847070     0.6289700     0.0000040
  H        2.8531580    -1.9656810     0.0000030
  H       -3.4251050     0.4551520     0.0000010
  H       -3.5616590    -1.0800960     0.8913170
  H       -3.5616630    -1.0800960    -0.8913140
units angstrom
no_reorient  #important for SAPT in psi4, default
symmetry c1  #important for SAPT in psi4, default
}

set PROPERTIES_ORIGIN ["COM"]
properties('MP2/aug-cc-pvtz', properties = ['dipole'])
--------------------------------------------------------------------------

    Molecular point group: c1
  Charge       = 0
  Multiplicity = 1
  Basis Set: AUG-CC-PVTZ
    Blend: AUG-CC-PVTZ
  Basis Set: (AUG-CC-PVTZ AUX)
    Blend: AUG-CC-PVTZ-JKFIT

    Orbital Energies [Eh]
    ---------------------

    Doubly Occupied:

       1A    -20.643456     2A    -20.515661     3A    -15.588604
       4A    -11.360492     5A    -11.313684     6A    -11.302643
       7A    -11.259137     8A    -11.255451     9A    -11.248291
      10A     -1.467001    11A     -1.370866    12A     -1.231093
      13A     -1.103420    14A     -1.036389    15A     -0.953213
      16A     -0.841516    17A     -0.817615    18A     -0.775456
      19A     -0.763549    20A     -0.668220    21A     -0.654879
      22A     -0.641611    23A     -0.618053    24A     -0.600995
      25A     -0.588374    26A     -0.576627    27A     -0.562409
      28A     -0.542324    29A     -0.536387    30A     -0.433602
      31A     -0.416085    32A     -0.391717    33A     -0.331104

  @DF-RHF Final Energy:  -435.60064513861465

   => Energetics <=

    Nuclear Repulsion Energy =            428.8120546537342648
    One-Electron Energy =               -1444.0055527492252168
    Two-Electron Energy =                 579.5928529568761860
    Total Energy =                       -435.6006451386147091
  Basis Set: (AUG-CC-PVTZ AUX)
    Blend: AUG-CC-PVTZ-RI
    Molecular point group: c1

    Geometry (in Angstrom), charge = 0, multiplicity = 1:

       Center              X                  Y                   Z               Mass
    ------------   -----------------  -----------------  -----------------  -----------------
         O            0.947797418116    -1.116547085062     0.000000808766    15.994914619570
         O           -1.402885281884     1.603772414938     0.000004808766    15.994914619570
         N           -1.729736281884    -0.676263585062    -0.000003191234    14.003074004430
         C            0.493404718116     0.202630414938    -0.000004191234    12.000000000000
         C           -0.962692281884     0.449377414938    -0.000000191234    12.000000000000
         C            1.552635718116     1.073344414938    -0.000003191234    12.000000000000
         C            2.728859718116     0.273259414938    -0.000000191234    12.000000000000
         C            2.313758718116    -1.030096585062     0.000003808766    12.000000000000
         C           -3.177899281884    -0.615088585062     0.000000808766    12.000000000000
         H            1.471360718116     2.151196414938    -0.000009191234     1.007825032230
         H           -1.261578281884    -1.573007585062    -0.000008191234     1.007825032230
         H            3.755663718116     0.612769414938     0.000003808766     1.007825032230
         H            2.824114718116    -1.981881585062     0.000002808766     1.007825032230
         H           -3.454148281884     0.438951414938     0.000000808766     1.007825032230
         H           -3.590702281884    -1.096296585062     0.891316808766     1.007825032230
         H           -3.590706281884    -1.096296585062    -0.891314191234     1.007825032230

  Basis Set: AUG-CC-PVTZ
    Blend: AUG-CC-PVTZ
  Basis Set: (AUG-CC-PVTZ AUX)
    Blend: AUG-CC-PVTZ-JKFIT
	 Reference Energy          =    -435.6006451386146523 [Eh]
	 Singles Energy            =      -0.0000000000000000 [Eh]
	 Same-Spin Energy          =      -0.4478358521599269 [Eh]
	 Opposite-Spin Energy      =      -1.3720142640816866 [Eh]
	 Correlation Energy        =      -1.8198501162416134 [Eh]
	 Total Energy              =    -437.4204952548562915 [Eh]

	 ================> DF-SCS-MP2 Energies <==================
	-----------------------------------------------------------
	 SCS Same-Spin Scale       =       0.3333333333333333 [-]
	 SCS Opposite-Spin Scale   =       1.2000000000000000 [-]
	 SCS Same-Spin Energy      =      -0.1492786173866423 [Eh]
	 SCS Opposite-Spin Energy  =      -1.6464171168980239 [Eh]
	 SCS Correlation Energy    =      -1.7956957342846662 [Eh]
	 SCS Total Energy          =    -437.3963408728993159 [Eh]
	-----------------------------------------------------------

  Dipole Moment: [D]
     X:     1.1032      Y:    -3.1660      Z:    -0.0000     Total:     3.3527

*** Psi4 exiting successfully. Buy a developer a beer!
