                               Psi4 1.3.2 release

  ==> Input File <==

--------------------------------------------------------------------------
#psi4
#
memory 32 gb

molecule  {
0 1
  O        0.9755400    -1.0764940     0.0000010
  O       -1.3738420     1.6199730     0.0000050
  N       -1.7006930    -0.6600630    -0.0000030
  C        0.5224480     0.2188310    -0.0000040
  C       -0.9336490     0.4655780     0.0000000
  C        1.5816790     1.0895450    -0.0000030
  C        2.8350912     0.4167918    -0.0000008
  C        2.3428020    -1.0138960     0.0000040
  C       -3.1488560    -0.5988880     0.0000010
  H        1.5004040     2.1673970    -0.0000090
  H       -1.2325350    -1.5568070    -0.0000080
  H        3.7847070     0.6289700     0.0000040
  H        2.8531580    -1.9656810     0.0000030
  H       -3.4251050     0.4551520     0.0000010
  H       -3.5616590    -1.0800960     0.8913170
  H       -3.5616630    -1.0800960    -0.8913140
units angstrom
no_reorient  #important for SAPT in psi4, default
symmetry c1  #important for SAPT in psi4, default
}

set PROPERTIES_ORIGIN ["COM"]
properties('MP2/aug-cc-pvtz', properties = ['dipole'])
--------------------------------------------------------------------------

    Molecular point group: c1
  Charge       = 0
  Multiplicity = 1
  Basis Set: AUG-CC-PVTZ
    Blend: AUG-CC-PVTZ
  Basis Set: (AUG-CC-PVTZ AUX)
    Blend: AUG-CC-PVTZ-JKFIT

    Orbital Energies [Eh]
    ---------------------

    Doubly Occupied:

       1A    -20.657082     2A    -20.513925     3A    -15.588274
       4A    -11.360067     5A    -11.335989     6A    -11.299303
       7A    -11.259187     8A    -11.259046     9A    -11.257457
      10A     -1.478429    11A     -1.369695    12A     -1.230763
      13A     -1.093343    14A     -1.031823    15A     -0.950798
      16A     -0.842204    17A     -0.834111    18A     -0.773607
      19A     -0.767844    20A     -0.672701    21A     -0.659068
      22A     -0.654708    23A     -0.622391    24A     -0.618203
      25A     -0.585105    26A     -0.582257    27A     -0.545551
      28A     -0.535574    29A     -0.534212    30A     -0.432536
      31A     -0.411092    32A     -0.391525    33A     -0.316561

  @DF-RHF Final Energy:  -435.56605648536367

   => Energetics <=

    Nuclear Repulsion Energy =            427.0764291540871227
    One-Electron Energy =               -1440.3561096376263322
    Two-Electron Energy =                 577.7136239981755352
    Total Energy =                       -435.5660564853636743
  Basis Set: (AUG-CC-PVTZ AUX)
    Blend: AUG-CC-PVTZ-RI
    Molecular point group: c1

    Geometry (in Angstrom), charge = 0, multiplicity = 1:

       Center              X                  Y                   Z               Mass
    ------------   -----------------  -----------------  -----------------  -----------------
         O            0.939255849468    -1.107964763000     0.000000885537    15.994914619570
         O           -1.410126150532     1.588502237000     0.000004885537    15.994914619570
         N           -1.736977150532    -0.691533763000    -0.000003114463    14.003074004430
         C            0.486163849468     0.187360237000    -0.000004114463    12.000000000000
         C           -0.969933150532     0.434107237000    -0.000000114463    12.000000000000
         C            1.545394849468     1.058074237000    -0.000003114463    12.000000000000
         C            2.798807049468     0.385321037000    -0.000000914463    12.000000000000
         C            2.306517849468    -1.045366763000     0.000003885537    12.000000000000
         C           -3.185140150532    -0.630358763000     0.000000885537    12.000000000000
         H            1.464119849468     2.135926237000    -0.000009114463     1.007825032230
         H           -1.268819150532    -1.588277763000    -0.000008114463     1.007825032230
         H            3.748422849468     0.597499237000     0.000003885537     1.007825032230
         H            2.816873849468    -1.997151763000     0.000002885537     1.007825032230
         H           -3.461389150532     0.423681237000     0.000000885537     1.007825032230
         H           -3.597943150532    -1.111566763000     0.891316885537     1.007825032230
         H           -3.597947150532    -1.111566763000    -0.891314114463     1.007825032230

  Basis Set: AUG-CC-PVTZ
    Blend: AUG-CC-PVTZ
  Basis Set: (AUG-CC-PVTZ AUX)
    Blend: AUG-CC-PVTZ-JKFIT
	 Reference Energy          =    -435.5660564853636743 [Eh]
	 Singles Energy            =      -0.0000000000000000 [Eh]
	 Same-Spin Energy          =      -0.4502709358713349 [Eh]
	 Opposite-Spin Energy      =      -1.3765331829346730 [Eh]
	 Correlation Energy        =      -1.8268041188060078 [Eh]
	 Total Energy              =    -437.3928606041696980 [Eh]

	 ================> DF-SCS-MP2 Energies <==================
	-----------------------------------------------------------
	 SCS Same-Spin Scale       =       0.3333333333333333 [-]
	 SCS Opposite-Spin Scale   =       1.2000000000000000 [-]
	 SCS Same-Spin Energy      =      -0.1500903119571116 [Eh]
	 SCS Opposite-Spin Energy  =      -1.6518398195216075 [Eh]
	 SCS Correlation Energy    =      -1.8019301314787191 [Eh]
	 SCS Total Energy          =    -437.3679866168424155 [Eh]
	-----------------------------------------------------------

  Dipole Moment: [D]
     X:     1.0619      Y:    -3.2493      Z:    -0.0000     Total:     3.4185

*** Psi4 exiting successfully. Buy a developer a beer!
