                               Psi4 1.3.2 release

  ==> Input File <==

--------------------------------------------------------------------------
#psi4
#
memory 32 gb

molecule  {
0 1
  O        0.9755400    -1.0764940     0.0000010
  O       -1.3738420     1.6199730     0.0000050
  N       -1.7006930    -0.6600630    -0.0000030
  C        0.5224480     0.2188310    -0.0000040
  C       -0.8350546     0.4488704    -0.0000003
  C        1.5816790     1.0895450    -0.0000030
  C        2.7579030     0.2894600     0.0000000
  C        2.3428020    -1.0138960     0.0000040
  C       -3.1488560    -0.5988880     0.0000010
  H        1.5004040     2.1673970    -0.0000090
  H       -1.2325350    -1.5568070    -0.0000080
  H        3.7847070     0.6289700     0.0000040
  H        2.8531580    -1.9656810     0.0000030
  H       -3.4251050     0.4551520     0.0000010
  H       -3.5616590    -1.0800960     0.8913170
  H       -3.5616630    -1.0800960    -0.8913140
units angstrom
no_reorient  #important for SAPT in psi4, default
symmetry c1  #important for SAPT in psi4, default
}

set PROPERTIES_ORIGIN ["COM"]
properties('MP2/aug-cc-pvtz', properties = ['dipole'])
--------------------------------------------------------------------------

    Molecular point group: c1
  Charge       = 0
  Multiplicity = 1
  Basis Set: AUG-CC-PVTZ
    Blend: AUG-CC-PVTZ
  Basis Set: (AUG-CC-PVTZ AUX)
    Blend: AUG-CC-PVTZ-JKFIT

    Orbital Energies [Eh]
    ---------------------

    Doubly Occupied:

       1A    -20.650818     2A    -20.506614     3A    -15.582230
       4A    -11.358177     5A    -11.325284     6A    -11.300899
       7A    -11.266893     8A    -11.256231     9A    -11.254330
      10A     -1.482941    11A     -1.335638    12A     -1.207110
      13A     -1.112094    14A     -1.060317    15A     -0.949060
      16A     -0.863350    17A     -0.829216    18A     -0.776782
      19A     -0.752424    20A     -0.676348    21A     -0.666783
      22A     -0.635827    23A     -0.608301    24A     -0.596201
      25A     -0.592480    26A     -0.580421    27A     -0.571357
      28A     -0.529545    29A     -0.520799    30A     -0.425240
      31A     -0.421751    32A     -0.378119    33A     -0.338774

  @DF-RHF Final Energy:  -435.58198485626093

   => Energetics <=

    Nuclear Repulsion Energy =            429.6515028554222795
    One-Electron Energy =               -1445.6422674525204002
    Two-Electron Energy =                 580.4087797408373035
    Total Energy =                       -435.5819848562608740
  Basis Set: (AUG-CC-PVTZ AUX)
    Blend: AUG-CC-PVTZ-RI
    Molecular point group: c1

    Geometry (in Angstrom), charge = 0, multiplicity = 1:

       Center              X                  Y                   Z               Mass
    ------------   -----------------  -----------------  -----------------  -----------------
         O            0.937201637801    -1.094142252889     0.000000837555    15.994914619570
         O           -1.412180362199     1.602324747111     0.000004837555    15.994914619570
         N           -1.739031362199    -0.677711252889    -0.000003162445    14.003074004430
         C            0.484109637801     0.201182747111    -0.000004162445    12.000000000000
         C           -0.873392962199     0.431222147111    -0.000000462445    12.000000000000
         C            1.543340637801     1.071896747111    -0.000003162445    12.000000000000
         C            2.719564637801     0.271811747111    -0.000000162445    12.000000000000
         C            2.304463637801    -1.031544252889     0.000003837555    12.000000000000
         C           -3.187194362199    -0.616536252889     0.000000837555    12.000000000000
         H            1.462065637801     2.149748747111    -0.000009162445     1.007825032230
         H           -1.270873362199    -1.574455252889    -0.000008162445     1.007825032230
         H            3.746368637801     0.611321747111     0.000003837555     1.007825032230
         H            2.814819637801    -1.983329252889     0.000002837555     1.007825032230
         H           -3.463443362199     0.437503747111     0.000000837555     1.007825032230
         H           -3.599997362199    -1.097744252889     0.891316837555     1.007825032230
         H           -3.600001362199    -1.097744252889    -0.891314162445     1.007825032230

  Basis Set: AUG-CC-PVTZ
    Blend: AUG-CC-PVTZ
  Basis Set: (AUG-CC-PVTZ AUX)
    Blend: AUG-CC-PVTZ-JKFIT
	 Reference Energy          =    -435.5819848562609309 [Eh]
	 Singles Energy            =      -0.0000000000000000 [Eh]
	 Same-Spin Energy          =      -0.4502048628311511 [Eh]
	 Opposite-Spin Energy      =      -1.3756496041700921 [Eh]
	 Correlation Energy        =      -1.8258544670012431 [Eh]
	 Total Energy              =    -437.4078393232621806 [Eh]

	 ================> DF-SCS-MP2 Energies <==================
	-----------------------------------------------------------
	 SCS Same-Spin Scale       =       0.3333333333333333 [-]
	 SCS Opposite-Spin Scale   =       1.2000000000000000 [-]
	 SCS Same-Spin Energy      =      -0.1500682876103837 [Eh]
	 SCS Opposite-Spin Energy  =      -1.6507795250041104 [Eh]
	 SCS Correlation Energy    =      -1.8008478126144940 [Eh]
	 SCS Total Energy          =    -437.3828326688754373 [Eh]
	-----------------------------------------------------------

  Dipole Moment: [D]
     X:     1.8623      Y:    -3.2966      Z:    -0.0000     Total:     3.7863

*** Psi4 exiting successfully. Buy a developer a beer!
