                               Psi4 1.4a3.dev225

  ==> Input File <==

--------------------------------------------------------------------------
#psi4
#
memory 32 gb

molecule  {
0 1
  O        0.9755400    -1.0764940     0.0000010
  O       -1.3738420     1.6199730     0.0000050
  N       -1.7006930    -0.6600630    -0.0000030
  C        0.5389567     0.1716350    -0.0000038
  C       -0.9336490     0.4655780     0.0000000
  C        1.5816790     1.0895450    -0.0000030
  C        2.7579030     0.2894600     0.0000000
  C        2.3428020    -1.0138960     0.0000040
  C       -3.1488560    -0.5988880     0.0000010
  H        1.5004040     2.1673970    -0.0000090
  H       -1.2325350    -1.5568070    -0.0000080
  H        3.7847070     0.6289700     0.0000040
  H        2.8531580    -1.9656810     0.0000030
  H       -3.4251050     0.4551520     0.0000010
  H       -3.5616590    -1.0800960     0.8913170
  H       -3.5616630    -1.0800960    -0.8913140
units angstrom
no_reorient  #important for SAPT in psi4, default
symmetry c1  #important for SAPT in psi4, default
}

set PROPERTIES_ORIGIN ["COM"]
properties('MP2/aug-cc-pvtz', properties = ['dipole'])
--------------------------------------------------------------------------

    Molecular point group: c1
  Charge       = 0
  Multiplicity = 1
  Basis Set: AUG-CC-PVTZ
    Blend: AUG-CC-PVTZ
  Basis Set: (AUG-CC-PVTZ AUX)
    Blend: AUG-CC-PVTZ-JKFIT

    Orbital Energies [Eh]
    ---------------------

    Doubly Occupied:

       1A    -20.650718     2A    -20.517654     3A    -15.589421
       4A    -11.362130     5A    -11.309109     6A    -11.303953
       7A    -11.259561     8A    -11.249548     9A    -11.248425
      10A     -1.495858    11A     -1.370960    12A     -1.232192
      13A     -1.100834    14A     -1.038785    15A     -0.954126
      16A     -0.835986    17A     -0.825306    18A     -0.776237
      19A     -0.768825    20A     -0.672633    21A     -0.669549
      22A     -0.641593    23A     -0.619950    24A     -0.602846
      25A     -0.590243    26A     -0.580682    27A     -0.555595
      28A     -0.541525    29A     -0.535922    30A     -0.433246
      31A     -0.413428    32A     -0.392388    33A     -0.327184

  @DF-RHF Final Energy:  -435.59997283630003

   => Energetics <=

    Nuclear Repulsion Energy =            429.7763164453696731
    One-Electron Energy =               -1445.8197570332495161
    Two-Electron Energy =                 580.4434677515797603
    Total Energy =                       -435.5999728363000258
  Basis Set: (AUG-CC-PVTZ AUX)
    Blend: AUG-CC-PVTZ-RI
    Molecular point group: c1

    Geometry (in Angstrom), charge = 0, multiplicity = 1:

       Center              X                  Y                   Z               Mass
    ------------   -----------------  -----------------  -----------------  -----------------
         O            0.945078860410    -1.091216482459     0.000000789574    15.994914619570
         O           -1.404303139590     1.605250517541     0.000004789574    15.994914619570
         N           -1.731154139590    -0.674785482459    -0.000003210426    14.003074004430
         C            0.508495560410     0.156912517541    -0.000004010426    12.000000000000
         C           -0.964110139590     0.450855517541    -0.000000210426    12.000000000000
         C            1.551217860410     1.074822517541    -0.000003210426    12.000000000000
         C            2.727441860410     0.274737517541    -0.000000210426    12.000000000000
         C            2.312340860410    -1.028618482459     0.000003789574    12.000000000000
         C           -3.179317139590    -0.613610482459     0.000000789574    12.000000000000
         H            1.469942860410     2.152674517541    -0.000009210426     1.007825032230
         H           -1.262996139590    -1.571529482459    -0.000008210426     1.007825032230
         H            3.754245860410     0.614247517541     0.000003789574     1.007825032230
         H            2.822696860410    -1.980403482459     0.000002789574     1.007825032230
         H           -3.455566139590     0.440429517541     0.000000789574     1.007825032230
         H           -3.592120139590    -1.094818482459     0.891316789574     1.007825032230
         H           -3.592124139590    -1.094818482459    -0.891314210426     1.007825032230

  Basis Set: AUG-CC-PVTZ
    Blend: AUG-CC-PVTZ
  Basis Set: (AUG-CC-PVTZ AUX)
    Blend: AUG-CC-PVTZ-JKFIT
	 Reference Energy          =    -435.5999728363000258 [Eh]
	 Singles Energy            =      -0.0000000000000000 [Eh]
	 Same-Spin Energy          =      -0.4480188348238359 [Eh]
	 Opposite-Spin Energy      =      -1.3710208211344721 [Eh]
	 Correlation Energy        =      -1.8190396559583080 [Eh]
	 Total Energy              =    -437.4190124922583323 [Eh]

	 ================> DF-SCS-MP2 Energies <==================
	-----------------------------------------------------------
	 SCS Same-Spin Scale       =       0.3333333333333333 [-]
	 SCS Opposite-Spin Scale   =       1.2000000000000000 [-]
	 SCS Same-Spin Energy      =      -0.1493396116079453 [Eh]
	 SCS Opposite-Spin Energy  =      -1.6452249853613665 [Eh]
	 SCS Correlation Energy    =      -1.7945645969693118 [Eh]
	 SCS Total Energy          =    -437.3945374332693632 [Eh]
	-----------------------------------------------------------

  Dipole Moment: [D]
     X:     1.0604      Y:    -3.3077      Z:    -0.0000     Total:     3.4735

*** Psi4 exiting successfully. Buy a developer a beer!
