                               Psi4 1.4a3.dev225

  ==> Input File <==

--------------------------------------------------------------------------
#psi4
#
memory 32 gb

molecule  {
0 1
  O        0.9755400    -1.0764940     0.0000010
  O       -1.3738420     1.6199730     0.0000050
  N       -1.7006930    -0.6600630    -0.0000030
  C        0.5224480     0.2188310    -0.0000040
  C       -0.9336490     0.4655780     0.0000000
  C        1.5816790     1.0895450    -0.0000030
  C        2.7579030     0.2894600     0.0000000
  C        2.3428020    -1.0138960     0.0000040
  C       -3.1488560    -0.5988880     0.0000010
  H        1.5004040     2.1673970    -0.0000090
  H       -1.2325350    -1.5568070    -0.0000080
  H        3.7657181     0.6226914     0.0000039
  H        2.8531580    -1.9656810     0.0000030
  H       -3.4251050     0.4551520     0.0000010
  H       -3.5616590    -1.0800960     0.8913170
  H       -3.5616630    -1.0800960    -0.8913140
units angstrom
no_reorient  #important for SAPT in psi4, default
symmetry c1  #important for SAPT in psi4, default
}

set PROPERTIES_ORIGIN ["COM"]
properties('MP2/aug-cc-pvtz', properties = ['dipole'])
--------------------------------------------------------------------------

    Molecular point group: c1
  Charge       = 0
  Multiplicity = 1
  Basis Set: AUG-CC-PVTZ
    Blend: AUG-CC-PVTZ
  Basis Set: (AUG-CC-PVTZ AUX)
    Blend: AUG-CC-PVTZ-JKFIT

    Orbital Energies [Eh]
    ---------------------

    Doubly Occupied:

       1A    -20.643516     2A    -20.515824     3A    -15.588973
       4A    -11.360430     5A    -11.312511     6A    -11.301339
       7A    -11.259374     8A    -11.252346     9A    -11.245848
      10A     -1.474338    11A     -1.370989    12A     -1.231409
      13A     -1.101822    14A     -1.039076    15A     -0.954014
      16A     -0.841083    17A     -0.821265    18A     -0.775536
      19A     -0.766066    20A     -0.671528    21A     -0.658670
      22A     -0.642368    23A     -0.618628    24A     -0.602513
      25A     -0.586597    26A     -0.578639    27A     -0.561841
      28A     -0.542238    29A     -0.536289    30A     -0.433811
      31A     -0.414296    32A     -0.391763    33A     -0.330905

  @DF-RHF Final Energy:  -435.60224052969420

   => Energetics <=

    Nuclear Repulsion Energy =            429.5450182212237564
    One-Electron Energy =               -1445.4428303233744373
    Two-Electron Energy =                 580.2955715724565380
    Total Energy =                       -435.6022405296941997
  Basis Set: (AUG-CC-PVTZ AUX)
    Blend: AUG-CC-PVTZ-RI
    Molecular point group: c1

    Geometry (in Angstrom), charge = 0, multiplicity = 1:

       Center              X                  Y                   Z               Mass
    ------------   -----------------  -----------------  -----------------  -----------------
         O            0.946816132876    -1.095694968398     0.000000809572    15.994914619570
         O           -1.402565867124     1.600772031602     0.000004809572    15.994914619570
         N           -1.729416867124    -0.679263968398    -0.000003190428    14.003074004430
         C            0.493724132876     0.199630031602    -0.000004190428    12.000000000000
         C           -0.962372867124     0.446377031602    -0.000000190428    12.000000000000
         C            1.552955132876     1.070344031602    -0.000003190428    12.000000000000
         C            2.729179132876     0.270259031602    -0.000000190428    12.000000000000
         C            2.314078132876    -1.033096968398     0.000003809572    12.000000000000
         C           -3.177579867124    -0.618088968398     0.000000809572    12.000000000000
         H            1.471680132876     2.148196031602    -0.000009190428     1.007825032230
         H           -1.261258867124    -1.576007968398    -0.000008190428     1.007825032230
         H            3.736994232876     0.603490431602     0.000003709572     1.007825032230
         H            2.824434132876    -1.984881968398     0.000002809572     1.007825032230
         H           -3.453828867124     0.435951031602     0.000000809572     1.007825032230
         H           -3.590382867124    -1.099296968398     0.891316809572     1.007825032230
         H           -3.590386867124    -1.099296968398    -0.891314190428     1.007825032230

  Basis Set: AUG-CC-PVTZ
    Blend: AUG-CC-PVTZ
  Basis Set: (AUG-CC-PVTZ AUX)
    Blend: AUG-CC-PVTZ-JKFIT
	 Reference Energy          =    -435.6022405296941997 [Eh]
	 Singles Energy            =      -0.0000000000000000 [Eh]
	 Same-Spin Energy          =      -0.4477923210196444 [Eh]
	 Opposite-Spin Energy      =      -1.3713047247513299 [Eh]
	 Correlation Energy        =      -1.8190970457709743 [Eh]
	 Total Energy              =    -437.4213375754652020 [Eh]

	 ================> DF-SCS-MP2 Energies <==================
	-----------------------------------------------------------
	 SCS Same-Spin Scale       =       0.3333333333333333 [-]
	 SCS Opposite-Spin Scale   =       1.2000000000000000 [-]
	 SCS Same-Spin Energy      =      -0.1492641070065481 [Eh]
	 SCS Opposite-Spin Energy  =      -1.6455656697015959 [Eh]
	 SCS Correlation Energy    =      -1.7948297767081440 [Eh]
	 SCS Total Energy          =    -437.3970703064023269 [Eh]
	-----------------------------------------------------------

  Dipole Moment: [D]
     X:     1.0932      Y:    -3.2391      Z:    -0.0000     Total:     3.4186

*** Psi4 exiting successfully. Buy a developer a beer!
