                               Psi4 1.3.2 release

  ==> Input File <==

--------------------------------------------------------------------------
#psi4
#
memory 32 gb

molecule  {
0 1
  O        0.9300578    -1.0915176     0.0000009
  O       -1.3738420     1.6199730     0.0000050
  N       -1.7006930    -0.6600630    -0.0000030
  C        0.5224480     0.2188310    -0.0000040
  C       -0.9336490     0.4655780     0.0000000
  C        1.5816790     1.0895450    -0.0000030
  C        2.7579030     0.2894600     0.0000000
  C        2.3428020    -1.0138960     0.0000040
  C       -3.1488560    -0.5988880     0.0000010
  H        1.5004040     2.1673970    -0.0000090
  H       -1.2325350    -1.5568070    -0.0000080
  H        3.7847070     0.6289700     0.0000040
  H        2.8531580    -1.9656810     0.0000030
  H       -3.4251050     0.4551520     0.0000010
  H       -3.5616590    -1.0800960     0.8913170
  H       -3.5616630    -1.0800960    -0.8913140
units angstrom
no_reorient  #important for SAPT in psi4, default
symmetry c1  #important for SAPT in psi4, default
}

set PROPERTIES_ORIGIN ["COM"]
properties('MP2/aug-cc-pvtz', properties = ['dipole'])
--------------------------------------------------------------------------

    Molecular point group: c1
  Charge       = 0
  Multiplicity = 1
  Basis Set: AUG-CC-PVTZ
    Blend: AUG-CC-PVTZ
  Basis Set: (AUG-CC-PVTZ AUX)
    Blend: AUG-CC-PVTZ-JKFIT

    Orbital Energies [Eh]
    ---------------------

    Doubly Occupied:

       1A    -20.642698     2A    -20.515312     3A    -15.588096
       4A    -11.358893     5A    -11.315164     6A    -11.303550
       7A    -11.258816     8A    -11.253868     9A    -11.252564
      10A     -1.460227    11A     -1.370052    12A     -1.230510
      13A     -1.104993    14A     -1.033783    15A     -0.952691
      16A     -0.841953    17A     -0.815074    18A     -0.774787
      19A     -0.762740    20A     -0.664929    21A     -0.652416
      22A     -0.641514    23A     -0.616503    24A     -0.598965
      25A     -0.586109    26A     -0.580934    27A     -0.564277
      28A     -0.541963    29A     -0.534800    30A     -0.432680
      31A     -0.418582    32A     -0.390825    33A     -0.330888

  @DF-RHF Final Energy:  -435.59757459138723

   => Energetics <=

    Nuclear Repulsion Energy =            428.8806243241188554
    One-Electron Energy =               -1444.1740898723141981
    Two-Electron Energy =                 579.6958909568081708
    Total Energy =                       -435.5975745913872288
  Basis Set: (AUG-CC-PVTZ AUX)
    Blend: AUG-CC-PVTZ-RI
    Molecular point group: c1

    Geometry (in Angstrom), charge = 0, multiplicity = 1:

       Center              X                  Y                   Z               Mass
    ------------   -----------------  -----------------  -----------------  -----------------
         O            0.906998543572    -1.108847494325     0.000000721557    15.994914619570
         O           -1.396901256428     1.602643105675     0.000004821557    15.994914619570
         N           -1.723752256428    -0.677392894325    -0.000003178443    14.003074004430
         C            0.499388743572     0.201501105675    -0.000004178443    12.000000000000
         C           -0.956708256428     0.448248105675    -0.000000178443    12.000000000000
         C            1.558619743572     1.072215105675    -0.000003178443    12.000000000000
         C            2.734843743572     0.272130105675    -0.000000178443    12.000000000000
         C            2.319742743572    -1.031225894325     0.000003821557    12.000000000000
         C           -3.171915256428    -0.616217894325     0.000000821557    12.000000000000
         H            1.477344743572     2.150067105675    -0.000009178443     1.007825032230
         H           -1.255594256428    -1.574136894325    -0.000008178443     1.007825032230
         H            3.761647743572     0.611640105675     0.000003821557     1.007825032230
         H            2.830098743572    -1.983010894325     0.000002821557     1.007825032230
         H           -3.448164256428     0.437822105675     0.000000821557     1.007825032230
         H           -3.584718256428    -1.097425894325     0.891316821557     1.007825032230
         H           -3.584722256428    -1.097425894325    -0.891314178443     1.007825032230

  Basis Set: AUG-CC-PVTZ
    Blend: AUG-CC-PVTZ
  Basis Set: (AUG-CC-PVTZ AUX)
    Blend: AUG-CC-PVTZ-JKFIT
	 Reference Energy          =    -435.5975745913872288 [Eh]
	 Singles Energy            =      -0.0000000000000000 [Eh]
	 Same-Spin Energy          =      -0.4480753667623186 [Eh]
	 Opposite-Spin Energy      =      -1.3731942896339553 [Eh]
	 Correlation Energy        =      -1.8212696563962738 [Eh]
	 Total Energy              =    -437.4188442477835110 [Eh]

	 ================> DF-SCS-MP2 Energies <==================
	-----------------------------------------------------------
	 SCS Same-Spin Scale       =       0.3333333333333333 [-]
	 SCS Opposite-Spin Scale   =       1.2000000000000000 [-]
	 SCS Same-Spin Energy      =      -0.1493584555874395 [Eh]
	 SCS Opposite-Spin Energy  =      -1.6478331475607464 [Eh]
	 SCS Correlation Energy    =      -1.7971916031481858 [Eh]
	 SCS Total Energy          =    -437.3947661945354071 [Eh]
	-----------------------------------------------------------

  Dipole Moment: [D]
     X:     1.2405      Y:    -3.1554      Z:    -0.0000     Total:     3.3904

*** Psi4 exiting successfully. Buy a developer a beer!
