                               Psi4 1.4a3.dev225

  ==> Input File <==

--------------------------------------------------------------------------
#psi4
#
memory 32 gb

molecule  {
0 1
  O        0.9755400    -1.0764940     0.0000010
  O       -1.3738420     1.6199730     0.0000050
  N       -1.7006930    -0.6600630    -0.0000030
  C        0.5224480     0.2188310    -0.0000040
  C       -0.9336490     0.4655780     0.0000000
  C        1.5816790     1.0895450    -0.0000030
  C        2.7165608     0.3175816    -0.0000001
  C        2.3428020    -1.0138960     0.0000040
  C       -3.1488560    -0.5988880     0.0000010
  H        1.5004040     2.1673970    -0.0000090
  H       -1.2325350    -1.5568070    -0.0000080
  H        3.7847070     0.6289700     0.0000040
  H        2.8531580    -1.9656810     0.0000030
  H       -3.4251050     0.4551520     0.0000010
  H       -3.5616590    -1.0800960     0.8913170
  H       -3.5616630    -1.0800960    -0.8913140
units angstrom
no_reorient  #important for SAPT in psi4, default
symmetry c1  #important for SAPT in psi4, default
}

set PROPERTIES_ORIGIN ["COM"]
properties('MP2/aug-cc-pvtz', properties = ['dipole'])
--------------------------------------------------------------------------

    Molecular point group: c1
  Charge       = 0
  Multiplicity = 1
  Basis Set: AUG-CC-PVTZ
    Blend: AUG-CC-PVTZ
  Basis Set: (AUG-CC-PVTZ AUX)
    Blend: AUG-CC-PVTZ-JKFIT

    Orbital Energies [Eh]
    ---------------------

    Doubly Occupied:

       1A    -20.645949     2A    -20.515573     3A    -15.588500
       4A    -11.360038     5A    -11.313481     6A    -11.301075
       7A    -11.259146     8A    -11.248641     9A    -11.247314
      10A     -1.476023    11A     -1.370761    12A     -1.231080
      13A     -1.110194    14A     -1.037239    15A     -0.952865
      16A     -0.843262    17A     -0.816257    18A     -0.776805
      19A     -0.764942    20A     -0.672473    21A     -0.659481
      22A     -0.640674    23A     -0.618464    24A     -0.601778
      25A     -0.588541    26A     -0.568468    27A     -0.567160
      28A     -0.542442    29A     -0.536006    30A     -0.433541
      31A     -0.420362    32A     -0.391766    33A     -0.325938

  @DF-RHF Final Energy:  -435.59698089901485

   => Energetics <=

    Nuclear Repulsion Energy =            430.1348729086106459
    One-Electron Energy =               -1446.6112288015806371
    Two-Electron Energy =                 580.8793749939551390
    Total Energy =                       -435.5969808990148522
  Basis Set: (AUG-CC-PVTZ AUX)
    Blend: AUG-CC-PVTZ-RI
    Molecular point group: c1

    Geometry (in Angstrom), charge = 0, multiplicity = 1:

       Center              X                  Y                   Z               Mass
    ------------   -----------------  -----------------  -----------------  -----------------
         O            0.950630429288    -1.098444215201     0.000000818363    15.994914619570
         O           -1.398751570712     1.598022784799     0.000004818363    15.994914619570
         N           -1.725602570712    -0.682013215201    -0.000003181637    14.003074004430
         C            0.497538429288     0.196880784799    -0.000004181637    12.000000000000
         C           -0.958558570712     0.443627784799    -0.000000181637    12.000000000000
         C            1.556769429288     1.067594784799    -0.000003181637    12.000000000000
         C            2.691651229288     0.295631384799    -0.000000281637    12.000000000000
         C            2.317892429288    -1.035846215201     0.000003818363    12.000000000000
         C           -3.173765570712    -0.620838215201     0.000000818363    12.000000000000
         H            1.475494429288     2.145446784799    -0.000009181637     1.007825032230
         H           -1.257444570712    -1.578757215201    -0.000008181637     1.007825032230
         H            3.759797429288     0.607019784799     0.000003818363     1.007825032230
         H            2.828248429288    -1.987631215201     0.000002818363     1.007825032230
         H           -3.450014570712     0.433201784799     0.000000818363     1.007825032230
         H           -3.586568570712    -1.102046215201     0.891316818363     1.007825032230
         H           -3.586572570712    -1.102046215201    -0.891314181637     1.007825032230

  Basis Set: AUG-CC-PVTZ
    Blend: AUG-CC-PVTZ
  Basis Set: (AUG-CC-PVTZ AUX)
    Blend: AUG-CC-PVTZ-JKFIT
	 Reference Energy          =    -435.5969808990148522 [Eh]
	 Singles Energy            =      -0.0000000000000000 [Eh]
	 Same-Spin Energy          =      -0.4490505846211339 [Eh]
	 Opposite-Spin Energy      =      -1.3726575947464354 [Eh]
	 Correlation Energy        =      -1.8217081793675693 [Eh]
	 Total Energy              =    -437.4186890783824424 [Eh]

	 ================> DF-SCS-MP2 Energies <==================
	-----------------------------------------------------------
	 SCS Same-Spin Scale       =       0.3333333333333333 [-]
	 SCS Opposite-Spin Scale   =       1.2000000000000000 [-]
	 SCS Same-Spin Energy      =      -0.1496835282070446 [Eh]
	 SCS Opposite-Spin Energy  =      -1.6471891136957224 [Eh]
	 SCS Correlation Energy    =      -1.7968726419027670 [Eh]
	 SCS Total Energy          =    -437.3938535409176325 [Eh]
	-----------------------------------------------------------

  Dipole Moment: [D]
     X:     1.1004      Y:    -3.2501      Z:    -0.0000     Total:     3.4313

*** Psi4 exiting successfully. Buy a developer a beer!
