                               Psi4 1.3.2 release

  ==> Input File <==

--------------------------------------------------------------------------
#psi4
#
memory 32 gb

molecule  {
0 1
  O        0.9755400    -1.0764940     0.0000010
  O       -1.3738420     1.6199730     0.0000050
  N       -1.7006930    -0.6600630    -0.0000030
  C        0.5224480     0.2188310    -0.0000040
  C       -0.9128898     0.5665491     0.0000003
  C        1.5816790     1.0895450    -0.0000030
  C        2.7579030     0.2894600     0.0000000
  C        2.3428020    -1.0138960     0.0000040
  C       -3.1488560    -0.5988880     0.0000010
  H        1.5004040     2.1673970    -0.0000090
  H       -1.2325350    -1.5568070    -0.0000080
  H        3.7847070     0.6289700     0.0000040
  H        2.8531580    -1.9656810     0.0000030
  H       -3.4251050     0.4551520     0.0000010
  H       -3.5616590    -1.0800960     0.8913170
  H       -3.5616630    -1.0800960    -0.8913140
units angstrom
no_reorient  #important for SAPT in psi4, default
symmetry c1  #important for SAPT in psi4, default
}

set PROPERTIES_ORIGIN ["COM"]
properties('MP2/aug-cc-pvtz', properties = ['dipole'])
--------------------------------------------------------------------------

    Molecular point group: c1
  Charge       = 0
  Multiplicity = 1
  Basis Set: AUG-CC-PVTZ
    Blend: AUG-CC-PVTZ
  Basis Set: (AUG-CC-PVTZ AUX)
    Blend: AUG-CC-PVTZ-JKFIT

    Orbital Energies [Eh]
    ---------------------

    Doubly Occupied:

       1A    -20.645358     2A    -20.537874     3A    -15.567029
       4A    -11.361968     5A    -11.314045     6A    -11.301527
       7A    -11.252993     8A    -11.248556     9A    -11.248416
      10A     -1.474881    11A     -1.434873    12A     -1.200918
      13A     -1.103284    14A     -1.038711    15A     -0.933837
      16A     -0.842290    17A     -0.820367    18A     -0.768897
      19A     -0.752875    20A     -0.680477    21A     -0.659407
      22A     -0.646726    23A     -0.615608    24A     -0.610458
      25A     -0.588432    26A     -0.578218    27A     -0.562431
      28A     -0.560001    29A     -0.533936    30A     -0.442713
      31A     -0.414924    32A     -0.383957    33A     -0.332279

  @DF-RHF Final Energy:  -435.59087563820276

   => Energetics <=

    Nuclear Repulsion Energy =            429.5090478542411461
    One-Electron Energy =               -1445.2833245044419073
    Two-Electron Energy =                 580.1834010119980576
    Total Energy =                       -435.5908756382027605
  Basis Set: (AUG-CC-PVTZ AUX)
    Blend: AUG-CC-PVTZ-RI
    Molecular point group: c1

    Geometry (in Angstrom), charge = 0, multiplicity = 1:

       Center              X                  Y                   Z               Mass
    ------------   -----------------  -----------------  -----------------  -----------------
         O            0.944670967992    -1.105435100683     0.000000779977    15.994914619570
         O           -1.404711032008     1.591031899317     0.000004779977    15.994914619570
         N           -1.731562032008    -0.689004100683    -0.000003220023    14.003074004430
         C            0.491578967992     0.189889899317    -0.000004220023    12.000000000000
         C           -0.943758832008     0.537607999317     0.000000079977    12.000000000000
         C            1.550809967992     1.060603899317    -0.000003220023    12.000000000000
         C            2.727033967992     0.260518899317    -0.000000220023    12.000000000000
         C            2.311932967992    -1.042837100683     0.000003779977    12.000000000000
         C           -3.179725032008    -0.627829100683     0.000000779977    12.000000000000
         H            1.469534967992     2.138455899317    -0.000009220023     1.007825032230
         H           -1.263404032008    -1.585748100683    -0.000008220023     1.007825032230
         H            3.753837967992     0.600028899317     0.000003779977     1.007825032230
         H            2.822288967992    -1.994622100683     0.000002779977     1.007825032230
         H           -3.455974032008     0.426210899317     0.000000779977     1.007825032230
         H           -3.592528032008    -1.109037100683     0.891316779977     1.007825032230
         H           -3.592532032008    -1.109037100683    -0.891314220023     1.007825032230

  Basis Set: AUG-CC-PVTZ
    Blend: AUG-CC-PVTZ
  Basis Set: (AUG-CC-PVTZ AUX)
    Blend: AUG-CC-PVTZ-JKFIT
	 Reference Energy          =    -435.5908756382027605 [Eh]
	 Singles Energy            =      -0.0000000000000000 [Eh]
	 Same-Spin Energy          =      -0.4464641170711533 [Eh]
	 Opposite-Spin Energy      =      -1.3689206920269754 [Eh]
	 Correlation Energy        =      -1.8153848090981288 [Eh]
	 Total Energy              =    -437.4062604473008946 [Eh]

	 ================> DF-SCS-MP2 Energies <==================
	-----------------------------------------------------------
	 SCS Same-Spin Scale       =       0.3333333333333333 [-]
	 SCS Opposite-Spin Scale   =       1.2000000000000000 [-]
	 SCS Same-Spin Energy      =      -0.1488213723570511 [Eh]
	 SCS Opposite-Spin Energy  =      -1.6427048304323704 [Eh]
	 SCS Correlation Energy    =      -1.7915262027894214 [Eh]
	 SCS Total Energy          =    -437.3824018409922019 [Eh]
	-----------------------------------------------------------

  Dipole Moment: [D]
     X:     1.4887      Y:    -2.3920      Z:    -0.0000     Total:     2.8174

*** Psi4 exiting successfully. Buy a developer a beer!
