                               Psi4 1.3.2 release

  ==> Input File <==

--------------------------------------------------------------------------
#psi4
#
memory 32 gb

molecule  {
0 1
  O        0.9755400    -1.0764940     0.0000010
  O       -1.3738420     1.6199730     0.0000050
  N       -1.7006930    -0.6600630    -0.0000030
  C        0.6192650     0.1128811    -0.0000029
  C       -0.9336490     0.4655780     0.0000000
  C        1.5816790     1.0895450    -0.0000030
  C        2.7579030     0.2894600     0.0000000
  C        2.3428020    -1.0138960     0.0000040
  C       -3.1488560    -0.5988880     0.0000010
  H        1.5004040     2.1673970    -0.0000090
  H       -1.2325350    -1.5568070    -0.0000080
  H        3.7847070     0.6289700     0.0000040
  H        2.8531580    -1.9656810     0.0000030
  H       -3.4251050     0.4551520     0.0000010
  H       -3.5616590    -1.0800960     0.8913170
  H       -3.5616630    -1.0800960    -0.8913140
units angstrom
no_reorient  #important for SAPT in psi4, default
symmetry c1  #important for SAPT in psi4, default
}

set PROPERTIES_ORIGIN ["COM"]
properties('MP2/aug-cc-pvtz', properties = ['dipole'])
--------------------------------------------------------------------------

    Molecular point group: c1
  Charge       = 0
  Multiplicity = 1
  Basis Set: AUG-CC-PVTZ
    Blend: AUG-CC-PVTZ
  Basis Set: (AUG-CC-PVTZ AUX)
    Blend: AUG-CC-PVTZ-JKFIT

    Orbital Energies [Eh]
    ---------------------

    Doubly Occupied:

       1A    -20.660713     2A    -20.521097     3A    -15.591036
       4A    -11.365663     5A    -11.307992     6A    -11.300450
       7A    -11.260394     8A    -11.249305     9A    -11.237061
      10A     -1.539024    11A     -1.370471    12A     -1.232714
      13A     -1.109195    14A     -1.035192    15A     -0.954580
      16A     -0.838493    17A     -0.820323    18A     -0.784613
      19A     -0.769711    20A     -0.692527    21A     -0.669580
      22A     -0.640944    23A     -0.621566    24A     -0.611459
      25A     -0.601312    26A     -0.578915    27A     -0.549403
      28A     -0.535890    29A     -0.534566    30A     -0.426372
      31A     -0.415917    32A     -0.393477    33A     -0.324950

  @DF-RHF Final Energy:  -435.58052161743888

   => Energetics <=

    Nuclear Repulsion Energy =            430.4829823229084127
    One-Electron Energy =               -1447.0371977164616055
    Two-Electron Energy =                 580.9736937761143736
    Total Energy =                       -435.5805216174388761
  Basis Set: (AUG-CC-PVTZ AUX)
    Blend: AUG-CC-PVTZ-RI
    Molecular point group: c1

    Geometry (in Angstrom), charge = 0, multiplicity = 1:

       Center              X                  Y                   Z               Mass
    ------------   -----------------  -----------------  -----------------  -----------------
         O            0.937372203143    -1.085578258634     0.000000703207    15.994914619570
         O           -1.412009796857     1.610888741366     0.000004703207    15.994914619570
         N           -1.738860796857    -0.669147258634    -0.000003296793    14.003074004430
         C            0.581097203143     0.103796841366    -0.000003196793    12.000000000000
         C           -0.971816796857     0.456493741366    -0.000000296793    12.000000000000
         C            1.543511203143     1.080460741366    -0.000003296793    12.000000000000
         C            2.719735203143     0.280375741366    -0.000000296793    12.000000000000
         C            2.304634203143    -1.022980258634     0.000003703207    12.000000000000
         C           -3.187023796857    -0.607972258634     0.000000703207    12.000000000000
         H            1.462236203143     2.158312741366    -0.000009296793     1.007825032230
         H           -1.270702796857    -1.565891258634    -0.000008296793     1.007825032230
         H            3.746539203143     0.619885741366     0.000003703207     1.007825032230
         H            2.814990203143    -1.974765258634     0.000002703207     1.007825032230
         H           -3.463272796857     0.446067741366     0.000000703207     1.007825032230
         H           -3.599826796857    -1.089180258634     0.891316703207     1.007825032230
         H           -3.599830796857    -1.089180258634    -0.891314296793     1.007825032230

  Basis Set: AUG-CC-PVTZ
    Blend: AUG-CC-PVTZ
  Basis Set: (AUG-CC-PVTZ AUX)
    Blend: AUG-CC-PVTZ-JKFIT
	 Reference Energy          =    -435.5805216174388761 [Eh]
	 Singles Energy            =      -0.0000000000000000 [Eh]
	 Same-Spin Energy          =      -0.4474614174610033 [Eh]
	 Opposite-Spin Energy      =      -1.3693197485109261 [Eh]
	 Correlation Energy        =      -1.8167811659719293 [Eh]
	 Total Energy              =    -437.3973027834107938 [Eh]

	 ================> DF-SCS-MP2 Energies <==================
	-----------------------------------------------------------
	 SCS Same-Spin Scale       =       0.3333333333333333 [-]
	 SCS Opposite-Spin Scale   =       1.2000000000000000 [-]
	 SCS Same-Spin Energy      =      -0.1491538058203344 [Eh]
	 SCS Opposite-Spin Energy  =      -1.6431836982131112 [Eh]
	 SCS Correlation Energy    =      -1.7923375040334455 [Eh]
	 SCS Total Energy          =    -437.3728591214723451 [Eh]
	-----------------------------------------------------------

  Dipole Moment: [D]
     X:     0.9178      Y:    -3.3601      Z:    -0.0000     Total:     3.4832

*** Psi4 exiting successfully. Buy a developer a beer!
