                               Psi4 1.3.2 release

  ==> Input File <==

--------------------------------------------------------------------------
#psi4
#
memory 32 gb

molecule  {
0 1
  O        0.9755400    -1.0764940     0.0000010
  O       -1.3738420     1.6199730     0.0000050
  N       -1.7006930    -0.6600630    -0.0000030
  C        0.5224480     0.2188310    -0.0000040
  C       -0.9336490     0.4655780     0.0000000
  C        1.5816790     1.0895450    -0.0000030
  C        2.7579030     0.2894600     0.0000000
  C        2.4034954    -0.8233276     0.0000034
  C       -3.1488560    -0.5988880     0.0000010
  H        1.5004040     2.1673970    -0.0000090
  H       -1.2325350    -1.5568070    -0.0000080
  H        3.7847070     0.6289700     0.0000040
  H        2.8531580    -1.9656810     0.0000030
  H       -3.4251050     0.4551520     0.0000010
  H       -3.5616590    -1.0800960     0.8913170
  H       -3.5616630    -1.0800960    -0.8913140
units angstrom
no_reorient  #important for SAPT in psi4, default
symmetry c1  #important for SAPT in psi4, default
}

set PROPERTIES_ORIGIN ["COM"]
properties('MP2/aug-cc-pvtz', properties = ['dipole'])
--------------------------------------------------------------------------

    Molecular point group: c1
  Charge       = 0
  Multiplicity = 1
  Basis Set: AUG-CC-PVTZ
    Blend: AUG-CC-PVTZ
  Basis Set: (AUG-CC-PVTZ AUX)
    Blend: AUG-CC-PVTZ-JKFIT

    Orbital Energies [Eh]
    ---------------------

    Doubly Occupied:

       1A    -20.626306     2A    -20.516026     3A    -15.589478
       4A    -11.359595     5A    -11.302580     6A    -11.297705
       7A    -11.259373     8A    -11.251530     9A    -11.225548
      10A     -1.449405    11A     -1.370468    12A     -1.231452
      13A     -1.149330    14A     -1.034152    15A     -0.958234
      16A     -0.848248    17A     -0.795754    18A     -0.776210
      19A     -0.760210    20A     -0.651460    21A     -0.651346
      22A     -0.640545    23A     -0.617406    24A     -0.611847
      25A     -0.581180    26A     -0.572663    27A     -0.542948
      28A     -0.536114    29A     -0.535656    30A     -0.449096
      31A     -0.432263    32A     -0.391576    33A     -0.343849

  @DF-RHF Final Energy:  -435.53354973687544

   => Energetics <=

    Nuclear Repulsion Energy =            431.4067570466510233
    One-Electron Energy =               -1449.1615004128609598
    Two-Electron Energy =                 582.2211936293344934
    Total Energy =                       -435.5335497368754432
  Basis Set: (AUG-CC-PVTZ AUX)
    Blend: AUG-CC-PVTZ-RI
    Molecular point group: c1

    Geometry (in Angstrom), charge = 0, multiplicity = 1:

       Center              X                  Y                   Z               Mass
    ------------   -----------------  -----------------  -----------------  -----------------
         O            0.940838746507    -1.114033161944     0.000000866344    15.994914619570
         O           -1.408543253493     1.582433838056     0.000004866344    15.994914619570
         N           -1.735394253493    -0.697602161944    -0.000003133656    14.003074004430
         C            0.487746746507     0.181291838056    -0.000004133656    12.000000000000
         C           -0.968350253493     0.428038838056    -0.000000133656    12.000000000000
         C            1.546977746507     1.052005838056    -0.000003133656    12.000000000000
         C            2.723201746507     0.251920838056    -0.000000133656    12.000000000000
         C            2.368794146507    -0.860866761944     0.000003266344    12.000000000000
         C           -3.183557253493    -0.636427161944     0.000000866344    12.000000000000
         H            1.465702746507     2.129857838056    -0.000009133656     1.007825032230
         H           -1.267236253493    -1.594346161944    -0.000008133656     1.007825032230
         H            3.750005746507     0.591430838056     0.000003866344     1.007825032230
         H            2.818456746507    -2.003220161944     0.000002866344     1.007825032230
         H           -3.459806253493     0.417612838056     0.000000866344     1.007825032230
         H           -3.596360253493    -1.117635161944     0.891316866344     1.007825032230
         H           -3.596364253493    -1.117635161944    -0.891314133656     1.007825032230

  Basis Set: AUG-CC-PVTZ
    Blend: AUG-CC-PVTZ
  Basis Set: (AUG-CC-PVTZ AUX)
    Blend: AUG-CC-PVTZ-JKFIT
	 Reference Energy          =    -435.5335497368754432 [Eh]
	 Singles Energy            =      -0.0000000000000000 [Eh]
	 Same-Spin Energy          =      -0.4467590147210621 [Eh]
	 Opposite-Spin Energy      =      -1.3716572935099403 [Eh]
	 Correlation Energy        =      -1.8184163082310023 [Eh]
	 Total Energy              =    -437.3519660451064510 [Eh]

	 ================> DF-SCS-MP2 Energies <==================
	-----------------------------------------------------------
	 SCS Same-Spin Scale       =       0.3333333333333333 [-]
	 SCS Opposite-Spin Scale   =       1.2000000000000000 [-]
	 SCS Same-Spin Energy      =      -0.1489196715736874 [Eh]
	 SCS Opposite-Spin Energy  =      -1.6459887522119283 [Eh]
	 SCS Correlation Energy    =      -1.7949084237856157 [Eh]
	 SCS Total Energy          =    -437.3284581606610573 [Eh]
	-----------------------------------------------------------

  Dipole Moment: [D]
     X:     1.3350      Y:    -2.9373      Z:    -0.0000     Total:     3.2265

*** Psi4 exiting successfully. Buy a developer a beer!
