                               Psi4 1.4a3.dev225

  ==> Input File <==

--------------------------------------------------------------------------
#psi4
#
memory 32 gb

molecule  {
0 1
  O        0.9755400    -1.0764940     0.0000010
  O       -1.3738420     1.6199730     0.0000050
  N       -1.7006930    -0.6600630    -0.0000030
  C        0.5290515     0.1999526    -0.0000039
  C       -0.9336490     0.4655780     0.0000000
  C        1.5816790     1.0895450    -0.0000030
  C        2.7579030     0.2894600     0.0000000
  C        2.3428020    -1.0138960     0.0000040
  C       -3.1488560    -0.5988880     0.0000010
  H        1.5004040     2.1673970    -0.0000090
  H       -1.2325350    -1.5568070    -0.0000080
  H        3.7847070     0.6289700     0.0000040
  H        2.8531580    -1.9656810     0.0000030
  H       -3.4251050     0.4551520     0.0000010
  H       -3.5616590    -1.0800960     0.8913170
  H       -3.5616630    -1.0800960    -0.8913140
units angstrom
no_reorient  #important for SAPT in psi4, default
symmetry c1  #important for SAPT in psi4, default
}

set PROPERTIES_ORIGIN ["COM"]
properties('MP2/aug-cc-pvtz', properties = ['dipole'])
--------------------------------------------------------------------------

    Molecular point group: c1
  Charge       = 0
  Multiplicity = 1
  Basis Set: AUG-CC-PVTZ
    Blend: AUG-CC-PVTZ
  Basis Set: (AUG-CC-PVTZ AUX)
    Blend: AUG-CC-PVTZ-JKFIT

    Orbital Energies [Eh]
    ---------------------

    Doubly Occupied:

       1A    -20.646459     2A    -20.516538     3A    -15.589146
       4A    -11.361108     5A    -11.311260     6A    -11.302334
       7A    -11.259447     8A    -11.251274     9A    -11.248290
      10A     -1.482657    11A     -1.370953    12A     -1.231720
      13A     -1.101169    14A     -1.038893    15A     -0.953970
      16A     -0.839042    17A     -0.821802    18A     -0.775619
      19A     -0.766499    20A     -0.671967    21A     -0.662835
      22A     -0.641674    23A     -0.619214    24A     -0.601732
      25A     -0.587271    26A     -0.579609    27A     -0.559217
      28A     -0.542171    29A     -0.536128    30A     -0.433665
      31A     -0.413933    32A     -0.392008    33A     -0.329555

  @DF-RHF Final Energy:  -435.60196534937347

   => Energetics <=

    Nuclear Repulsion Energy =            429.5712398423232798
    One-Electron Energy =               -1445.4680928580066848
    Two-Electron Energy =                 580.2948876663099327
    Total Energy =                       -435.6019653493734722
  Basis Set: (AUG-CC-PVTZ AUX)
    Blend: AUG-CC-PVTZ-RI
    Molecular point group: c1

    Geometry (in Angstrom), charge = 0, multiplicity = 1:

       Center              X                  Y                   Z               Mass
    ------------   -----------------  -----------------  -----------------  -----------------
         O            0.946029397049    -1.093933935547     0.000000799170    15.994914619570
         O           -1.403352602951     1.602533064453     0.000004799170    15.994914619570
         N           -1.730203602951    -0.677502935547    -0.000003200830    14.003074004430
         C            0.499540897049     0.182512664453    -0.000004100830    12.000000000000
         C           -0.963159602951     0.448138064453    -0.000000200830    12.000000000000
         C            1.552168397049     1.072105064453    -0.000003200830    12.000000000000
         C            2.728392397049     0.272020064453    -0.000000200830    12.000000000000
         C            2.313291397049    -1.031335935547     0.000003799170    12.000000000000
         C           -3.178366602951    -0.616327935547     0.000000799170    12.000000000000
         H            1.470893397049     2.149957064453    -0.000009200830     1.007825032230
         H           -1.262045602951    -1.574246935547    -0.000008200830     1.007825032230
         H            3.755196397049     0.611530064453     0.000003799170     1.007825032230
         H            2.823647397049    -1.983120935547     0.000002799170     1.007825032230
         H           -3.454615602951     0.437712064453     0.000000799170     1.007825032230
         H           -3.591169602951    -1.097535935547     0.891316799170     1.007825032230
         H           -3.591173602951    -1.097535935547    -0.891314200830     1.007825032230

  Basis Set: AUG-CC-PVTZ
    Blend: AUG-CC-PVTZ
  Basis Set: (AUG-CC-PVTZ AUX)
    Blend: AUG-CC-PVTZ-JKFIT
	 Reference Energy          =    -435.6019653493734722 [Eh]
	 Singles Energy            =      -0.0000000000000000 [Eh]
	 Same-Spin Energy          =      -0.4478844144542384 [Eh]
	 Opposite-Spin Energy      =      -1.3712390018053662 [Eh]
	 Correlation Energy        =      -1.8191234162596046 [Eh]
	 Total Energy              =    -437.4210887656331010 [Eh]

	 ================> DF-SCS-MP2 Energies <==================
	-----------------------------------------------------------
	 SCS Same-Spin Scale       =       0.3333333333333333 [-]
	 SCS Opposite-Spin Scale   =       1.2000000000000000 [-]
	 SCS Same-Spin Energy      =      -0.1492948048180795 [Eh]
	 SCS Opposite-Spin Energy  =      -1.6454868021664393 [Eh]
	 SCS Correlation Energy    =      -1.7947816069845188 [Eh]
	 SCS Total Energy          =    -437.3967469563580153 [Eh]
	-----------------------------------------------------------

  Dipole Moment: [D]
     X:     1.0813      Y:    -3.2656      Z:    -0.0000     Total:     3.4399

*** Psi4 exiting successfully. Buy a developer a beer!
