                               Psi4 1.3.2 release

  ==> Input File <==

--------------------------------------------------------------------------
#psi4
#
memory 32 gb

molecule  {
0 1
  O        0.9755400    -1.0764940     0.0000010
  O       -1.3738420     1.6199730     0.0000050
  N       -1.7006930    -0.6600630    -0.0000030
  C        0.5224480     0.2188310    -0.0000040
  C       -0.9336490     0.4655780     0.0000000
  C        1.5816790     1.0895450    -0.0000030
  C        2.7579030     0.2894600     0.0000000
  C        2.3656119    -1.0209420     0.0000042
  C       -3.1488560    -0.5988880     0.0000010
  H        1.5004040     2.1673970    -0.0000090
  H       -1.2325350    -1.5568070    -0.0000080
  H        3.7847070     0.6289700     0.0000040
  H        2.8531580    -1.9656810     0.0000030
  H       -3.4251050     0.4551520     0.0000010
  H       -3.5616590    -1.0800960     0.8913170
  H       -3.5616630    -1.0800960    -0.8913140
units angstrom
no_reorient  #important for SAPT in psi4, default
symmetry c1  #important for SAPT in psi4, default
}

set PROPERTIES_ORIGIN ["COM"]
properties('MP2/aug-cc-pvtz', properties = ['dipole'])
--------------------------------------------------------------------------

    Molecular point group: c1
  Charge       = 0
  Multiplicity = 1
  Basis Set: AUG-CC-PVTZ
    Blend: AUG-CC-PVTZ
  Basis Set: (AUG-CC-PVTZ AUX)
    Blend: AUG-CC-PVTZ-JKFIT

    Orbital Energies [Eh]
    ---------------------

    Doubly Occupied:

       1A    -20.640300     2A    -20.516489     3A    -15.589232
       4A    -11.360879     5A    -11.311866     6A    -11.302761
       7A    -11.259506     8A    -11.252003     9A    -11.249932
      10A     -1.465155    11A     -1.371355    12A     -1.231567
      13A     -1.100217    14A     -1.038168    15A     -0.954541
      16A     -0.842806    17A     -0.817757    18A     -0.775372
      19A     -0.762635    20A     -0.672584    21A     -0.654216
      22A     -0.641973    23A     -0.617909    24A     -0.599983
      25A     -0.587043    26A     -0.575043    27A     -0.563977
      28A     -0.542277    29A     -0.536171    30A     -0.434325
      31A     -0.414279    32A     -0.391829    33A     -0.331495

  @DF-RHF Final Energy:  -435.60048941136637

   => Energetics <=

    Nuclear Repulsion Energy =            428.9281106928710869
    One-Electron Energy =               -1444.2459101676936370
    Two-Electron Energy =                 579.7173100634561251
    Total Energy =                       -435.6004894113664250
  Basis Set: (AUG-CC-PVTZ AUX)
    Blend: AUG-CC-PVTZ-RI
    Molecular point group: c1

    Geometry (in Angstrom), charge = 0, multiplicity = 1:

       Center              X                  Y                   Z               Mass
    ------------   -----------------  -----------------  -----------------  -----------------
         O            0.944474175854    -1.095069412844     0.000000789574    15.994914619570
         O           -1.404907824146     1.601397587156     0.000004789574    15.994914619570
         N           -1.731758824146    -0.678638412844    -0.000003210426    14.003074004430
         C            0.491382175854     0.200255587156    -0.000004210426    12.000000000000
         C           -0.964714824146     0.447002587156    -0.000000210426    12.000000000000
         C            1.550613175854     1.070969587156    -0.000003210426    12.000000000000
         C            2.726837175854     0.270884587156    -0.000000210426    12.000000000000
         C            2.334546075854    -1.039517412844     0.000003989574    12.000000000000
         C           -3.179921824146    -0.617463412844     0.000000789574    12.000000000000
         H            1.469338175854     2.148821587156    -0.000009210426     1.007825032230
         H           -1.263600824146    -1.575382412844    -0.000008210426     1.007825032230
         H            3.753641175854     0.610394587156     0.000003789574     1.007825032230
         H            2.822092175854    -1.984256412844     0.000002789574     1.007825032230
         H           -3.456170824146     0.436576587156     0.000000789574     1.007825032230
         H           -3.592724824146    -1.098671412844     0.891316789574     1.007825032230
         H           -3.592728824146    -1.098671412844    -0.891314210426     1.007825032230

  Basis Set: AUG-CC-PVTZ
    Blend: AUG-CC-PVTZ
  Basis Set: (AUG-CC-PVTZ AUX)
    Blend: AUG-CC-PVTZ-JKFIT
	 Reference Energy          =    -435.6004894113663681 [Eh]
	 Singles Energy            =      -0.0000000000000000 [Eh]
	 Same-Spin Energy          =      -0.4479245786344211 [Eh]
	 Opposite-Spin Energy      =      -1.3720906853279853 [Eh]
	 Correlation Energy        =      -1.8200152639624063 [Eh]
	 Total Energy              =    -437.4205046753288002 [Eh]

	 ================> DF-SCS-MP2 Energies <==================
	-----------------------------------------------------------
	 SCS Same-Spin Scale       =       0.3333333333333333 [-]
	 SCS Opposite-Spin Scale   =       1.2000000000000000 [-]
	 SCS Same-Spin Energy      =      -0.1493081928781403 [Eh]
	 SCS Opposite-Spin Energy  =      -1.6465088223935822 [Eh]
	 SCS Correlation Energy    =      -1.7958170152717225 [Eh]
	 SCS Total Energy          =    -437.3963064266380911 [Eh]
	-----------------------------------------------------------

  Dipole Moment: [D]
     X:     1.1093      Y:    -3.2296      Z:    -0.0000     Total:     3.4148

*** Psi4 exiting successfully. Buy a developer a beer!
