                               Psi4 1.3.2 release

  ==> Input File <==

--------------------------------------------------------------------------
#psi4
#
memory 32 gb

molecule  {
0 1
  O        0.9755400    -1.0764940     0.0000010
  O       -1.3738420     1.6199730     0.0000050
  N       -1.7006930    -0.6600630    -0.0000030
  C        0.5224480     0.2188310    -0.0000040
  C       -0.9336490     0.4655780     0.0000000
  C        1.5816790     1.0895450    -0.0000030
  C        2.7579030     0.2894600     0.0000000
  C        2.2528956    -0.9817651     0.0000034
  C       -3.1488560    -0.5988880     0.0000010
  H        1.5004040     2.1673970    -0.0000090
  H       -1.2325350    -1.5568070    -0.0000080
  H        3.7847070     0.6289700     0.0000040
  H        2.8531580    -1.9656810     0.0000030
  H       -3.4251050     0.4551520     0.0000010
  H       -3.5616590    -1.0800960     0.8913170
  H       -3.5616630    -1.0800960    -0.8913140
units angstrom
no_reorient  #important for SAPT in psi4, default
symmetry c1  #important for SAPT in psi4, default
}

set PROPERTIES_ORIGIN ["COM"]
properties('MP2/aug-cc-pvtz', properties = ['dipole'])
--------------------------------------------------------------------------

    Molecular point group: c1
  Charge       = 0
  Multiplicity = 1
  Basis Set: AUG-CC-PVTZ
    Blend: AUG-CC-PVTZ
  Basis Set: (AUG-CC-PVTZ AUX)
    Blend: AUG-CC-PVTZ-JKFIT

    Orbital Energies [Eh]
    ---------------------

    Doubly Occupied:

       1A    -20.656765     2A    -20.513410     3A    -15.588194
       4A    -11.358955     5A    -11.317230     6A    -11.296305
       7A    -11.259028     8A    -11.255317     9A    -11.241242
      10A     -1.517223    11A     -1.369633    12A     -1.231022
      13A     -1.108712    14A     -1.042751    15A     -0.951906
      16A     -0.836758    17A     -0.829896    18A     -0.780228
      19A     -0.770045    20A     -0.681334    21A     -0.668449
      22A     -0.641098    23A     -0.620493    24A     -0.610993
      25A     -0.593545    26A     -0.574666    27A     -0.548295
      28A     -0.537464    29A     -0.536909    30A     -0.431783
      31A     -0.415922    32A     -0.391777    33A     -0.328699

  @DF-RHF Final Energy:  -435.59469744025995

   => Energetics <=

    Nuclear Repulsion Energy =            431.6245028179946530
    One-Electron Energy =               -1449.4263111691091126
    Two-Electron Energy =                 582.2071109108544533
    Total Energy =                       -435.5946974402600063
  Basis Set: (AUG-CC-PVTZ AUX)
    Blend: AUG-CC-PVTZ-RI
    Molecular point group: c1

    Geometry (in Angstrom), charge = 0, multiplicity = 1:

       Center              X                  Y                   Z               Mass
    ------------   -----------------  -----------------  -----------------  -----------------
         O            0.955290814887    -1.098828961248     0.000000866344    15.994914619570
         O           -1.394091185113     1.597638038752     0.000004866344    15.994914619570
         N           -1.720942185113    -0.682397961248    -0.000003133656    14.003074004430
         C            0.502198814887     0.196496038752    -0.000004133656    12.000000000000
         C           -0.953898185113     0.443243038752    -0.000000133656    12.000000000000
         C            1.561429814887     1.067210038752    -0.000003133656    12.000000000000
         C            2.737653814887     0.267125038752    -0.000000133656    12.000000000000
         C            2.232646414887    -1.004100061248     0.000003266344    12.000000000000
         C           -3.169105185113    -0.621222961248     0.000000866344    12.000000000000
         H            1.480154814887     2.145062038752    -0.000009133656     1.007825032230
         H           -1.252784185113    -1.579141961248    -0.000008133656     1.007825032230
         H            3.764457814887     0.606635038752     0.000003866344     1.007825032230
         H            2.832908814887    -1.988015961248     0.000002866344     1.007825032230
         H           -3.445354185113     0.432817038752     0.000000866344     1.007825032230
         H           -3.581908185113    -1.102430961248     0.891316866344     1.007825032230
         H           -3.581912185113    -1.102430961248    -0.891314133656     1.007825032230

  Basis Set: AUG-CC-PVTZ
    Blend: AUG-CC-PVTZ
  Basis Set: (AUG-CC-PVTZ AUX)
    Blend: AUG-CC-PVTZ-JKFIT
	 Reference Energy          =    -435.5946974402599494 [Eh]
	 Singles Energy            =      -0.0000000000000000 [Eh]
	 Same-Spin Energy          =      -0.4475131232992020 [Eh]
	 Opposite-Spin Energy      =      -1.3690832347086190 [Eh]
	 Correlation Energy        =      -1.8165963580078210 [Eh]
	 Total Energy              =    -437.4112937982677636 [Eh]

	 ================> DF-SCS-MP2 Energies <==================
	-----------------------------------------------------------
	 SCS Same-Spin Scale       =       0.3333333333333333 [-]
	 SCS Opposite-Spin Scale   =       1.2000000000000000 [-]
	 SCS Same-Spin Energy      =      -0.1491710410997340 [Eh]
	 SCS Opposite-Spin Energy  =      -1.6428998816503428 [Eh]
	 SCS Correlation Energy    =      -1.7920709227500768 [Eh]
	 SCS Total Energy          =    -437.3867683630100487 [Eh]
	-----------------------------------------------------------

  Dipole Moment: [D]
     X:     1.0182      Y:    -3.2519      Z:    -0.0000     Total:     3.4076

*** Psi4 exiting successfully. Buy a developer a beer!
