                               Psi4 1.3.2 release

  ==> Input File <==

--------------------------------------------------------------------------
#psi4
#
memory 32 gb

molecule  {
0 1
  O        0.9755400    -1.0764940     0.0000010
  O       -1.3738420     1.6199730     0.0000050
  N       -1.7006930    -0.6600630    -0.0000030
  C        0.4564132     0.4076150    -0.0000047
  C       -0.9336490     0.4655780     0.0000000
  C        1.5816790     1.0895450    -0.0000030
  C        2.7579030     0.2894600     0.0000000
  C        2.3428020    -1.0138960     0.0000040
  C       -3.1488560    -0.5988880     0.0000010
  H        1.5004040     2.1673970    -0.0000090
  H       -1.2325350    -1.5568070    -0.0000080
  H        3.7847070     0.6289700     0.0000040
  H        2.8531580    -1.9656810     0.0000030
  H       -3.4251050     0.4551520     0.0000010
  H       -3.5616590    -1.0800960     0.8913170
  H       -3.5616630    -1.0800960    -0.8913140
units angstrom
no_reorient  #important for SAPT in psi4, default
symmetry c1  #important for SAPT in psi4, default
}

set PROPERTIES_ORIGIN ["COM"]
properties('MP2/aug-cc-pvtz', properties = ['dipole'])
--------------------------------------------------------------------------

    Molecular point group: c1
  Charge       = 0
  Multiplicity = 1
  Basis Set: AUG-CC-PVTZ
    Blend: AUG-CC-PVTZ
  Basis Set: (AUG-CC-PVTZ AUX)
    Blend: AUG-CC-PVTZ-JKFIT

    Orbital Energies [Eh]
    ---------------------

    Doubly Occupied:

       1A    -20.611800     2A    -20.513322     3A    -15.589890
       4A    -11.357978     5A    -11.321345     6A    -11.300912
       7A    -11.265068     8A    -11.260286     9A    -11.244656
      10A     -1.411621    11A     -1.375606    12A     -1.230816
      13A     -1.107822    14A     -1.040581    15A     -0.956838
      16A     -0.864195    17A     -0.807427    18A     -0.775314
      19A     -0.750460    20A     -0.670120    21A     -0.644212
      22A     -0.636258    23A     -0.606283    24A     -0.598746
      25A     -0.585166    26A     -0.580336    27A     -0.549672
      28A     -0.540864    29A     -0.525623    30A     -0.433408
      31A     -0.421259    32A     -0.392038    33A     -0.338362

  @DF-RHF Final Energy:  -435.56629683505406

   => Energetics <=

    Nuclear Repulsion Energy =            428.3717101128119680
    One-Electron Energy =               -1443.2594404018768728
    Two-Electron Energy =                 579.3214334540108439
    Total Energy =                       -435.5662968350540041
  Basis Set: (AUG-CC-PVTZ AUX)
    Blend: AUG-CC-PVTZ-RI
    Molecular point group: c1

    Geometry (in Angstrom), charge = 0, multiplicity = 1:

       Center              X                  Y                   Z               Mass
    ------------   -----------------  -----------------  -----------------  -----------------
         O            0.953000015062    -1.113861924858     0.000000875941    15.994914619570
         O           -1.396381984938     1.582605075142     0.000004875941    15.994914619570
         N           -1.723232984938    -0.697430924858    -0.000003124059    14.003074004430
         C            0.433873215062     0.370247075142    -0.000004824059    12.000000000000
         C           -0.956188984938     0.428210075142    -0.000000124059    12.000000000000
         C            1.559139015062     1.052177075142    -0.000003124059    12.000000000000
         C            2.735363015062     0.252092075142    -0.000000124059    12.000000000000
         C            2.320262015062    -1.051263924858     0.000003875941    12.000000000000
         C           -3.171395984938    -0.636255924858     0.000000875941    12.000000000000
         H            1.477864015062     2.130029075142    -0.000009124059     1.007825032230
         H           -1.255074984938    -1.594174924858    -0.000008124059     1.007825032230
         H            3.762167015062     0.591602075142     0.000003875941     1.007825032230
         H            2.830618015062    -2.003048924858     0.000002875941     1.007825032230
         H           -3.447644984938     0.417784075142     0.000000875941     1.007825032230
         H           -3.584198984938    -1.117463924858     0.891316875941     1.007825032230
         H           -3.584202984938    -1.117463924858    -0.891314124059     1.007825032230

  Basis Set: AUG-CC-PVTZ
    Blend: AUG-CC-PVTZ
  Basis Set: (AUG-CC-PVTZ AUX)
    Blend: AUG-CC-PVTZ-JKFIT
	 Reference Energy          =    -435.5662968350540609 [Eh]
	 Singles Energy            =      -0.0000000000000000 [Eh]
	 Same-Spin Energy          =      -0.4485881985918597 [Eh]
	 Opposite-Spin Energy      =      -1.3746769931998921 [Eh]
	 Correlation Energy        =      -1.8232651917917517 [Eh]
	 Total Energy              =    -437.3895620268457947 [Eh]

	 ================> DF-SCS-MP2 Energies <==================
	-----------------------------------------------------------
	 SCS Same-Spin Scale       =       0.3333333333333333 [-]
	 SCS Opposite-Spin Scale   =       1.2000000000000000 [-]
	 SCS Same-Spin Energy      =      -0.1495293995306199 [Eh]
	 SCS Opposite-Spin Energy  =      -1.6496123918398704 [Eh]
	 SCS Correlation Energy    =      -1.7991417913704904 [Eh]
	 SCS Total Energy          =    -437.3654386264245773 [Eh]
	-----------------------------------------------------------

  Dipole Moment: [D]
     X:     1.0179      Y:    -2.9141      Z:    -0.0000     Total:     3.0868

*** Psi4 exiting successfully. Buy a developer a beer!
