                               Psi4 1.3.2 release

  ==> Input File <==

--------------------------------------------------------------------------
#psi4
#
memory 32 gb

molecule  {
0 1
  O        0.9755400    -1.0764940     0.0000010
  O       -1.3738420     1.6199730     0.0000050
  N       -1.7006930    -0.6600630    -0.0000030
  C        0.5224480     0.2188310    -0.0000040
  C       -0.9336490     0.4655780     0.0000000
  C        1.5816790     1.0895450    -0.0000030
  C        2.5925342     0.4019463    -0.0000004
  C        2.3428020    -1.0138960     0.0000040
  C       -3.1488560    -0.5988880     0.0000010
  H        1.5004040     2.1673970    -0.0000090
  H       -1.2325350    -1.5568070    -0.0000080
  H        3.7847070     0.6289700     0.0000040
  H        2.8531580    -1.9656810     0.0000030
  H       -3.4251050     0.4551520     0.0000010
  H       -3.5616590    -1.0800960     0.8913170
  H       -3.5616630    -1.0800960    -0.8913140
units angstrom
no_reorient  #important for SAPT in psi4, default
symmetry c1  #important for SAPT in psi4, default
}

set PROPERTIES_ORIGIN ["COM"]
properties('MP2/aug-cc-pvtz', properties = ['dipole'])
--------------------------------------------------------------------------

    Molecular point group: c1
  Charge       = 0
  Multiplicity = 1
  Basis Set: AUG-CC-PVTZ
    Blend: AUG-CC-PVTZ
  Basis Set: (AUG-CC-PVTZ AUX)
    Blend: AUG-CC-PVTZ-JKFIT

    Orbital Energies [Eh]
    ---------------------

    Doubly Occupied:

       1A    -20.655995     2A    -20.514624     3A    -15.586897
       4A    -11.358798     5A    -11.317855     6A    -11.300786
       7A    -11.258393     8A    -11.247503     9A    -11.231800
      10A     -1.482563    11A     -1.369959    12A     -1.230007
      13A     -1.145608    14A     -1.031940    15A     -0.949117
      16A     -0.852783    17A     -0.805447    18A     -0.784578
      19A     -0.764788    20A     -0.675142    21A     -0.663195
      22A     -0.639708    23A     -0.622811    24A     -0.617995
      25A     -0.591126    26A     -0.578033    27A     -0.542634
      28A     -0.535114    29A     -0.519476    30A     -0.446611
      31A     -0.432407    32A     -0.391496    33A     -0.310191

  @DF-RHF Final Energy:  -435.53380000870931

   => Energetics <=

    Nuclear Repulsion Energy =            432.4166821555427873
    One-Electron Energy =               -1450.9902097074805170
    Two-Electron Energy =                 583.0397275432285369
    Total Energy =                       -435.5338000087092496
  Basis Set: (AUG-CC-PVTZ AUX)
    Blend: AUG-CC-PVTZ-RI
    Molecular point group: c1

    Geometry (in Angstrom), charge = 0, multiplicity = 1:

       Center              X                  Y                   Z               Mass
    ------------   -----------------  -----------------  -----------------  -----------------
         O            0.962532443129    -1.106540138391     0.000000847152    15.994914619570
         O           -1.386849556871     1.589926861609     0.000004847152    15.994914619570
         N           -1.713700556871    -0.690109138391    -0.000003152848    14.003074004430
         C            0.509440443129     0.188784861609    -0.000004152848    12.000000000000
         C           -0.946656556871     0.435531861609    -0.000000152848    12.000000000000
         C            1.568671443129     1.059498861609    -0.000003152848    12.000000000000
         C            2.579526643129     0.371900161609    -0.000000552848    12.000000000000
         C            2.329794443129    -1.043942138391     0.000003847152    12.000000000000
         C           -3.161863556871    -0.628934138391     0.000000847152    12.000000000000
         H            1.487396443129     2.137350861609    -0.000009152848     1.007825032230
         H           -1.245542556871    -1.586853138391    -0.000008152848     1.007825032230
         H            3.771699443129     0.598923861609     0.000003847152     1.007825032230
         H            2.840150443129    -1.995727138391     0.000002847152     1.007825032230
         H           -3.438112556871     0.425105861609     0.000000847152     1.007825032230
         H           -3.574666556871    -1.110142138391     0.891316847152     1.007825032230
         H           -3.574670556871    -1.110142138391    -0.891314152848     1.007825032230

  Basis Set: AUG-CC-PVTZ
    Blend: AUG-CC-PVTZ
  Basis Set: (AUG-CC-PVTZ AUX)
    Blend: AUG-CC-PVTZ-JKFIT
	 Reference Energy          =    -435.5338000087093064 [Eh]
	 Singles Energy            =      -0.0000000000000000 [Eh]
	 Same-Spin Energy          =      -0.4536605938679762 [Eh]
	 Opposite-Spin Energy      =      -1.3789416101314083 [Eh]
	 Correlation Energy        =      -1.8326022039993846 [Eh]
	 Total Energy              =    -437.3664022127086923 [Eh]

	 ================> DF-SCS-MP2 Energies <==================
	-----------------------------------------------------------
	 SCS Same-Spin Scale       =       0.3333333333333333 [-]
	 SCS Opposite-Spin Scale   =       1.2000000000000000 [-]
	 SCS Same-Spin Energy      =      -0.1512201979559921 [Eh]
	 SCS Opposite-Spin Energy  =      -1.6547299321576898 [Eh]
	 SCS Correlation Energy    =      -1.8059501301136818 [Eh]
	 SCS Total Energy          =    -437.3397501388229784 [Eh]
	-----------------------------------------------------------

  Dipole Moment: [D]
     X:     1.0735      Y:    -3.2561      Z:    -0.0000     Total:     3.4285

*** Psi4 exiting successfully. Buy a developer a beer!
