                               Psi4 1.3.2 release

  ==> Input File <==

--------------------------------------------------------------------------
#psi4
#
memory 32 gb

molecule  {
0 1
  O        0.9755400    -1.0764940     0.0000010
  O       -1.3738420     1.6199730     0.0000050
  N       -1.7202213    -0.6465048    -0.0000029
  C        0.5224480     0.2188310    -0.0000040
  C       -0.9336490     0.4655780     0.0000000
  C        1.5816790     1.0895450    -0.0000030
  C        2.7579030     0.2894600     0.0000000
  C        2.3428020    -1.0138960     0.0000040
  C       -3.1488560    -0.5988880     0.0000010
  H        1.5004040     2.1673970    -0.0000090
  H       -1.2325350    -1.5568070    -0.0000080
  H        3.7847070     0.6289700     0.0000040
  H        2.8531580    -1.9656810     0.0000030
  H       -3.4251050     0.4551520     0.0000010
  H       -3.5616590    -1.0800960     0.8913170
  H       -3.5616630    -1.0800960    -0.8913140
units angstrom
no_reorient  #important for SAPT in psi4, default
symmetry c1  #important for SAPT in psi4, default
}

set PROPERTIES_ORIGIN ["COM"]
properties('MP2/aug-cc-pvtz', properties = ['dipole'])
--------------------------------------------------------------------------

    Molecular point group: c1
  Charge       = 0
  Multiplicity = 1
  Basis Set: AUG-CC-PVTZ
    Blend: AUG-CC-PVTZ
  Basis Set: (AUG-CC-PVTZ AUX)
    Blend: AUG-CC-PVTZ-JKFIT

    Orbital Energies [Eh]
    ---------------------

    Doubly Occupied:

       1A    -20.644283     2A    -20.514871     3A    -15.589761
       4A    -11.360277     5A    -11.313218     6A    -11.302609
       7A    -11.257553     8A    -11.253373     9A    -11.248631
      10A     -1.475031    11A     -1.371239    12A     -1.232173
      13A     -1.102176    14A     -1.040224    15A     -0.955289
      16A     -0.839412    17A     -0.820236    18A     -0.771970
      19A     -0.764806    20A     -0.672168    21A     -0.659400
      22A     -0.644956    23A     -0.620647    24A     -0.601088
      25A     -0.587229    26A     -0.578931    27A     -0.562267
      28A     -0.538892    29A     -0.535564    30A     -0.433611
      31A     -0.414825    32A     -0.389861    33A     -0.331637

  @DF-RHF Final Energy:  -435.60092960552419

   => Energetics <=

    Nuclear Repulsion Energy =            429.4803832773723116
    One-Electron Energy =               -1445.3062085564820336
    Two-Electron Energy =                 580.2248956735855927
    Total Energy =                       -435.6009296055241293
  Basis Set: (AUG-CC-PVTZ AUX)
    Blend: AUG-CC-PVTZ-RI
    Molecular point group: c1

    Geometry (in Angstrom), charge = 0, multiplicity = 1:

       Center              X                  Y                   Z               Mass
    ------------   -----------------  -----------------  -----------------  -----------------
         O            0.948849907069    -1.097263843651     0.000000797568    15.994914619570
         O           -1.400532092931     1.599203156349     0.000004797568    15.994914619570
         N           -1.746911392931    -0.667274643651    -0.000003102432    14.003074004430
         C            0.495757907069     0.198061156349    -0.000004202432    12.000000000000
         C           -0.960339092931     0.444808156349    -0.000000202432    12.000000000000
         C            1.554988907069     1.068775156349    -0.000003202432    12.000000000000
         C            2.731212907069     0.268690156349    -0.000000202432    12.000000000000
         C            2.316111907069    -1.034665843651     0.000003797568    12.000000000000
         C           -3.175546092931    -0.619657843651     0.000000797568    12.000000000000
         H            1.473713907069     2.146627156349    -0.000009202432     1.007825032230
         H           -1.259225092931    -1.577576843651    -0.000008202432     1.007825032230
         H            3.758016907069     0.608200156349     0.000003797568     1.007825032230
         H            2.826467907069    -1.986450843651     0.000002797568     1.007825032230
         H           -3.451795092931     0.434382156349     0.000000797568     1.007825032230
         H           -3.588349092931    -1.100865843651     0.891316797568     1.007825032230
         H           -3.588353092931    -1.100865843651    -0.891314202432     1.007825032230

  Basis Set: AUG-CC-PVTZ
    Blend: AUG-CC-PVTZ
  Basis Set: (AUG-CC-PVTZ AUX)
    Blend: AUG-CC-PVTZ-JKFIT
	 Reference Energy          =    -435.6009296055241862 [Eh]
	 Singles Energy            =      -0.0000000000000000 [Eh]
	 Same-Spin Energy          =      -0.4480425713719571 [Eh]
	 Opposite-Spin Energy      =      -1.3716609317912924 [Eh]
	 Correlation Energy        =      -1.8197035031632496 [Eh]
	 Total Energy              =    -437.4206331086874115 [Eh]

	 ================> DF-SCS-MP2 Energies <==================
	-----------------------------------------------------------
	 SCS Same-Spin Scale       =       0.3333333333333333 [-]
	 SCS Opposite-Spin Scale   =       1.2000000000000000 [-]
	 SCS Same-Spin Energy      =      -0.1493475237906524 [Eh]
	 SCS Opposite-Spin Energy  =      -1.6459931181495508 [Eh]
	 SCS Correlation Energy    =      -1.7953406419402032 [Eh]
	 SCS Total Energy          =    -437.3962702474643720 [Eh]
	-----------------------------------------------------------

  Dipole Moment: [D]
     X:     1.1595      Y:    -3.2509      Z:    -0.0000     Total:     3.4515

*** Psi4 exiting successfully. Buy a developer a beer!
