                               Psi4 1.3.2 release

  ==> Input File <==

--------------------------------------------------------------------------
#psi4
#
memory 32 gb

molecule  {
0 1
  O        0.9755400    -1.0764940     0.0000010
  O       -1.3738420     1.6199730     0.0000050
  N       -1.7006930    -0.6600630    -0.0000030
  C        0.5224480     0.2188310    -0.0000040
  C       -0.9336490     0.4655780     0.0000000
  C        1.5816790     1.0895450    -0.0000030
  C        2.7851090     0.3309970    -0.0000003
  C        2.3428020    -1.0138960     0.0000040
  C       -3.1488560    -0.5988880     0.0000010
  H        1.5004040     2.1673970    -0.0000090
  H       -1.2325350    -1.5568070    -0.0000080
  H        3.7847070     0.6289700     0.0000040
  H        2.8531580    -1.9656810     0.0000030
  H       -3.4251050     0.4551520     0.0000010
  H       -3.5616590    -1.0800960     0.8913170
  H       -3.5616630    -1.0800960    -0.8913140
units angstrom
no_reorient  #important for SAPT in psi4, default
symmetry c1  #important for SAPT in psi4, default
}

set PROPERTIES_ORIGIN ["COM"]
properties('MP2/aug-cc-pvtz', properties = ['dipole'])
--------------------------------------------------------------------------

    Molecular point group: c1
  Charge       = 0
  Multiplicity = 1
  Basis Set: AUG-CC-PVTZ
    Blend: AUG-CC-PVTZ
  Basis Set: (AUG-CC-PVTZ AUX)
    Blend: AUG-CC-PVTZ-JKFIT

    Orbital Energies [Eh]
    ---------------------

    Doubly Occupied:

       1A    -20.648071     2A    -20.515239     3A    -15.588777
       4A    -11.360358     5A    -11.320812     6A    -11.300723
       7A    -11.259287     8A    -11.253987     9A    -11.251630
      10A     -1.475454    11A     -1.370597    12A     -1.231221
      13A     -1.098204    14A     -1.036188    15A     -0.952644
      16A     -0.839645    17A     -0.824740    18A     -0.775022
      19A     -0.766586    20A     -0.671699    21A     -0.658615
      22A     -0.644211    23A     -0.618471    24A     -0.608692
      25A     -0.583741    26A     -0.580114    27A     -0.558446
      28A     -0.541962    29A     -0.536053    30A     -0.433439
      31A     -0.412648    32A     -0.391697    33A     -0.326012

  @DF-RHF Final Energy:  -435.59648542707782

   => Energetics <=

    Nuclear Repulsion Energy =            428.6033282090667171
    One-Electron Energy =               -1443.5296579527198446
    Two-Electron Energy =                 579.3298443165753042
    Total Energy =                       -435.5964854270778233
  Basis Set: (AUG-CC-PVTZ AUX)
    Blend: AUG-CC-PVTZ-RI
    Molecular point group: c1

    Geometry (in Angstrom), charge = 0, multiplicity = 1:

       Center              X                  Y                   Z               Mass
    ------------   -----------------  -----------------  -----------------  -----------------
         O            0.944052311164    -1.099731602556     0.000000837555    15.994914619570
         O           -1.405329688836     1.596735397444     0.000004837555    15.994914619570
         N           -1.732180688836    -0.683300602556    -0.000003162445    14.003074004430
         C            0.490960311164     0.195593397444    -0.000004162445    12.000000000000
         C           -0.965136688836     0.442340397444    -0.000000162445    12.000000000000
         C            1.550191311164     1.066307397444    -0.000003162445    12.000000000000
         C            2.753621311164     0.307759397444    -0.000000462445    12.000000000000
         C            2.311314311164    -1.037133602556     0.000003837555    12.000000000000
         C           -3.180343688836    -0.622125602556     0.000000837555    12.000000000000
         H            1.468916311164     2.144159397444    -0.000009162445     1.007825032230
         H           -1.264022688836    -1.580044602556    -0.000008162445     1.007825032230
         H            3.753219311164     0.605732397444     0.000003837555     1.007825032230
         H            2.821670311164    -1.988918602556     0.000002837555     1.007825032230
         H           -3.456592688836     0.431914397444     0.000000837555     1.007825032230
         H           -3.593146688836    -1.103333602556     0.891316837555     1.007825032230
         H           -3.593150688836    -1.103333602556    -0.891314162445     1.007825032230

  Basis Set: AUG-CC-PVTZ
    Blend: AUG-CC-PVTZ
  Basis Set: (AUG-CC-PVTZ AUX)
    Blend: AUG-CC-PVTZ-JKFIT
	 Reference Energy          =    -435.5964854270778233 [Eh]
	 Singles Energy            =      -0.0000000000000000 [Eh]
	 Same-Spin Energy          =      -0.4485194770372861 [Eh]
	 Opposite-Spin Energy      =      -1.3728331684280244 [Eh]
	 Correlation Energy        =      -1.8213526454653106 [Eh]
	 Total Energy              =    -437.4178380725431339 [Eh]

	 ================> DF-SCS-MP2 Energies <==================
	-----------------------------------------------------------
	 SCS Same-Spin Scale       =       0.3333333333333333 [-]
	 SCS Opposite-Spin Scale   =       1.2000000000000000 [-]
	 SCS Same-Spin Energy      =      -0.1495064923457620 [Eh]
	 SCS Opposite-Spin Energy  =      -1.6473998021136291 [Eh]
	 SCS Correlation Energy    =      -1.7969062944593912 [Eh]
	 SCS Total Energy          =    -437.3933917215372276 [Eh]
	-----------------------------------------------------------

  Dipole Moment: [D]
     X:     1.0929      Y:    -3.2471      Z:    -0.0000     Total:     3.4260

*** Psi4 exiting successfully. Buy a developer a beer!
