                               Psi4 1.3.2 release

  ==> Input File <==

--------------------------------------------------------------------------
#psi4
#
memory 32 gb

molecule  {
0 1
  O        0.9755400    -1.0764940     0.0000010
  O       -1.3738420     1.6199730     0.0000050
  N       -1.7006930    -0.6600630    -0.0000030
  C        0.5224480     0.2188310    -0.0000040
  C       -0.9473142     0.3634047    -0.0000004
  C        1.5816790     1.0895450    -0.0000030
  C        2.7579030     0.2894600     0.0000000
  C        2.3428020    -1.0138960     0.0000040
  C       -3.1488560    -0.5988880     0.0000010
  H        1.5004040     2.1673970    -0.0000090
  H       -1.2325350    -1.5568070    -0.0000080
  H        3.7847070     0.6289700     0.0000040
  H        2.8531580    -1.9656810     0.0000030
  H       -3.4251050     0.4551520     0.0000010
  H       -3.5616590    -1.0800960     0.8913170
  H       -3.5616630    -1.0800960    -0.8913140
units angstrom
no_reorient  #important for SAPT in psi4, default
symmetry c1  #important for SAPT in psi4, default
}

set PROPERTIES_ORIGIN ["COM"]
properties('MP2/aug-cc-pvtz', properties = ['dipole'])
--------------------------------------------------------------------------

    Molecular point group: c1
  Charge       = 0
  Multiplicity = 1
  Basis Set: AUG-CC-PVTZ
    Blend: AUG-CC-PVTZ
  Basis Set: (AUG-CC-PVTZ AUX)
    Blend: AUG-CC-PVTZ-JKFIT

    Orbital Energies [Eh]
    ---------------------

    Doubly Occupied:

       1A    -20.642197     2A    -20.492919     3A    -15.608678
       4A    -11.355837     5A    -11.311617     6A    -11.303101
       7A    -11.270269     8A    -11.252771     9A    -11.247891
      10A     -1.474883    11A     -1.341259    12A     -1.237604
      13A     -1.100449    14A     -1.040819    15A     -0.974378
      16A     -0.841806    17A     -0.818673    18A     -0.796450
      19A     -0.766113    20A     -0.672163    21A     -0.661159
      22A     -0.650620    23A     -0.631190    24A     -0.588001
      25A     -0.584499    26A     -0.571517    27A     -0.556611
      28A     -0.539318    29A     -0.526955    30A     -0.414644
      31A     -0.412363    32A     -0.387988    33A     -0.329184

  @DF-RHF Final Energy:  -435.58110621531051

   => Energetics <=

    Nuclear Repulsion Energy =            429.6211679309258216
    One-Electron Energy =               -1445.5966920709245187
    Two-Electron Energy =                 580.3944179246881276
    Total Energy =                       -435.5811062153105695
  Basis Set: (AUG-CC-PVTZ AUX)
    Blend: AUG-CC-PVTZ-RI
    Molecular point group: c1

    Geometry (in Angstrom), charge = 0, multiplicity = 1:

       Center              X                  Y                   Z               Mass
    ------------   -----------------  -----------------  -----------------  -----------------
         O            0.947974450352    -1.085940673998     0.000000847152    15.994914619570
         O           -1.401407549648     1.610526326002     0.000004847152    15.994914619570
         N           -1.728258549648    -0.669509673998    -0.000003152848    14.003074004430
         C            0.494882450352     0.209384326002    -0.000004152848    12.000000000000
         C           -0.974879749648     0.353958026002    -0.000000552848    12.000000000000
         C            1.554113450352     1.080098326002    -0.000003152848    12.000000000000
         C            2.730337450352     0.280013326002    -0.000000152848    12.000000000000
         C            2.315236450352    -1.023342673998     0.000003847152    12.000000000000
         C           -3.176421549648    -0.608334673998     0.000000847152    12.000000000000
         H            1.472838450352     2.157950326002    -0.000009152848     1.007825032230
         H           -1.260100549648    -1.566253673998    -0.000008152848     1.007825032230
         H            3.757141450352     0.619523326002     0.000003847152     1.007825032230
         H            2.825592450352    -1.975127673998     0.000002847152     1.007825032230
         H           -3.452670549648     0.445705326002     0.000000847152     1.007825032230
         H           -3.589224549648    -1.089542673998     0.891316847152     1.007825032230
         H           -3.589228549648    -1.089542673998    -0.891314152848     1.007825032230

  Basis Set: AUG-CC-PVTZ
    Blend: AUG-CC-PVTZ
  Basis Set: (AUG-CC-PVTZ AUX)
    Blend: AUG-CC-PVTZ-JKFIT
	 Reference Energy          =    -435.5811062153105127 [Eh]
	 Singles Energy            =      -0.0000000000000000 [Eh]
	 Same-Spin Energy          =      -0.4492390506204423 [Eh]
	 Opposite-Spin Energy      =      -1.3740892305512826 [Eh]
	 Correlation Energy        =      -1.8233282811717251 [Eh]
	 Total Energy              =    -437.4044344964822244 [Eh]

	 ================> DF-SCS-MP2 Energies <==================
	-----------------------------------------------------------
	 SCS Same-Spin Scale       =       0.3333333333333333 [-]
	 SCS Opposite-Spin Scale   =       1.2000000000000000 [-]
	 SCS Same-Spin Energy      =      -0.1497463502068141 [Eh]
	 SCS Opposite-Spin Energy  =      -1.6489070766615390 [Eh]
	 SCS Correlation Energy    =      -1.7986534268683532 [Eh]
	 SCS Total Energy          =    -437.3797596421788398 [Eh]
	-----------------------------------------------------------

  Dipole Moment: [D]
     X:     0.7888      Y:    -4.0218      Z:    -0.0000     Total:     4.0984

*** Psi4 exiting successfully. Buy a developer a beer!
