                               Psi4 1.3.2 release

  ==> Input File <==

--------------------------------------------------------------------------
#psi4
#
memory 32 gb

molecule  {
0 1
  O        0.9755400    -1.0764940     0.0000010
  O       -1.3738420     1.6199730     0.0000050
  N       -1.7006930    -0.6600630    -0.0000030
  C        0.5224480     0.2188310    -0.0000040
  C       -0.9336490     0.4655780     0.0000000
  C        1.5816790     1.0895450    -0.0000030
  C        2.7579030     0.2894600     0.0000000
  C        2.3428020    -1.0138960     0.0000040
  C       -3.1488560    -0.5988880     0.0000010
  H        1.5004040     2.1673970    -0.0000090
  H       -1.2325350    -1.5568070    -0.0000080
  H        3.5948179     0.5661837     0.0000033
  H        2.8531580    -1.9656810     0.0000030
  H       -3.4251050     0.4551520     0.0000010
  H       -3.5616590    -1.0800960     0.8913170
  H       -3.5616630    -1.0800960    -0.8913140
units angstrom
no_reorient  #important for SAPT in psi4, default
symmetry c1  #important for SAPT in psi4, default
}

set PROPERTIES_ORIGIN ["COM"]
properties('MP2/aug-cc-pvtz', properties = ['dipole'])
--------------------------------------------------------------------------

    Molecular point group: c1
  Charge       = 0
  Multiplicity = 1
  Basis Set: AUG-CC-PVTZ
    Blend: AUG-CC-PVTZ
  Basis Set: (AUG-CC-PVTZ AUX)
    Blend: AUG-CC-PVTZ-JKFIT

    Orbital Energies [Eh]
    ---------------------

    Doubly Occupied:

       1A    -20.643012     2A    -20.515536     3A    -15.588714
       4A    -11.360057     5A    -11.312375     6A    -11.300633
       7A    -11.259200     8A    -11.251347     9A    -11.225509
      10A     -1.473797    11A     -1.370700    12A     -1.231160
      13A     -1.106951    14A     -1.040627    15A     -0.955225
      16A     -0.846111    17A     -0.840701    18A     -0.779863
      19A     -0.772196    20A     -0.671379    21A     -0.658150
      22A     -0.650894    23A     -0.618394    24A     -0.616480
      25A     -0.587635    26A     -0.582572    27A     -0.562322
      28A     -0.542056    29A     -0.536034    30A     -0.433540
      31A     -0.414054    32A     -0.391538    33A     -0.330644

  @DF-RHF Final Energy:  -435.56581441466250

   => Energetics <=

    Nuclear Repulsion Energy =            430.6083455429209152
    One-Electron Energy =               -1447.4095056221644882
    Two-Electron Energy =                 581.2353456645811320
    Total Energy =                       -435.5658144146624409
  Basis Set: (AUG-CC-PVTZ AUX)
    Blend: AUG-CC-PVTZ-RI
    Molecular point group: c1

    Geometry (in Angstrom), charge = 0, multiplicity = 1:

       Center              X                  Y                   Z               Mass
    ------------   -----------------  -----------------  -----------------  -----------------
         O            0.948193507504    -1.095239543113     0.000000814408    15.994914619570
         O           -1.401188492496     1.601227456887     0.000004814408    15.994914619570
         N           -1.728039492496    -0.678808543113    -0.000003185592    14.003074004430
         C            0.495101507504     0.200085456887    -0.000004185592    12.000000000000
         C           -0.960995492496     0.446832456887    -0.000000185592    12.000000000000
         C            1.554332507504     1.070799456887    -0.000003185592    12.000000000000
         C            2.730556507504     0.270714456887    -0.000000185592    12.000000000000
         C            2.315455507504    -1.032641543113     0.000003814408    12.000000000000
         C           -3.176202492496    -0.617633543113     0.000000814408    12.000000000000
         H            1.473057507504     2.148651456887    -0.000009185592     1.007825032230
         H           -1.259881492496    -1.575552543113    -0.000008185592     1.007825032230
         H            3.567471407504     0.547438156887     0.000003114408     1.007825032230
         H            2.825811507504    -1.984426543113     0.000002814408     1.007825032230
         H           -3.452451492496     0.436406456887     0.000000814408     1.007825032230
         H           -3.589005492496    -1.098841543113     0.891316814408     1.007825032230
         H           -3.589009492496    -1.098841543113    -0.891314185592     1.007825032230

  Basis Set: AUG-CC-PVTZ
    Blend: AUG-CC-PVTZ
  Basis Set: (AUG-CC-PVTZ AUX)
    Blend: AUG-CC-PVTZ-JKFIT
	 Reference Energy          =    -435.5658144146624977 [Eh]
	 Singles Energy            =      -0.0000000000000000 [Eh]
	 Same-Spin Energy          =      -0.4476907847494646 [Eh]
	 Opposite-Spin Energy      =      -1.3710728036508937 [Eh]
	 Correlation Energy        =      -1.8187635884003583 [Eh]
	 Total Energy              =    -437.3845780030628703 [Eh]

	 ================> DF-SCS-MP2 Energies <==================
	-----------------------------------------------------------
	 SCS Same-Spin Scale       =       0.3333333333333333 [-]
	 SCS Opposite-Spin Scale   =       1.2000000000000000 [-]
	 SCS Same-Spin Energy      =      -0.1492302615831549 [Eh]
	 SCS Opposite-Spin Energy  =      -1.6452873643810724 [Eh]
	 SCS Correlation Energy    =      -1.7945176259642273 [Eh]
	 SCS Total Energy          =    -437.3603320406267017 [Eh]
	-----------------------------------------------------------

  Dipole Moment: [D]
     X:     1.0854      Y:    -3.2602      Z:    -0.0000     Total:     3.4361

*** Psi4 exiting successfully. Buy a developer a beer!
