                               Psi4 1.3.2 release

  ==> Input File <==

--------------------------------------------------------------------------
#psi4
#
memory 32 gb

molecule  {
0 1
  O        0.9755400    -1.0764940     0.0000010
  O       -1.3738420     1.6199730     0.0000050
  N       -1.7006930    -0.6600630    -0.0000030
  C        0.5224480     0.2188310    -0.0000040
  C       -0.9336490     0.4655780     0.0000000
  C        1.5958216     1.1099511    -0.0000029
  C        2.7579030     0.2894600     0.0000000
  C        2.3428020    -1.0138960     0.0000040
  C       -3.1488560    -0.5988880     0.0000010
  H        1.5004040     2.1673970    -0.0000090
  H       -1.2325350    -1.5568070    -0.0000080
  H        3.7847070     0.6289700     0.0000040
  H        2.8531580    -1.9656810     0.0000030
  H       -3.4251050     0.4551520     0.0000010
  H       -3.5616590    -1.0800960     0.8913170
  H       -3.5616630    -1.0800960    -0.8913140
units angstrom
no_reorient  #important for SAPT in psi4, default
symmetry c1  #important for SAPT in psi4, default
}

set PROPERTIES_ORIGIN ["COM"]
properties('MP2/aug-cc-pvtz', properties = ['dipole'])
--------------------------------------------------------------------------

    Molecular point group: c1
  Charge       = 0
  Multiplicity = 1
  Basis Set: AUG-CC-PVTZ
    Blend: AUG-CC-PVTZ
  Basis Set: (AUG-CC-PVTZ AUX)
    Blend: AUG-CC-PVTZ-JKFIT

    Orbital Energies [Eh]
    ---------------------

    Doubly Occupied:

       1A    -20.645612     2A    -20.515749     3A    -15.588889
       4A    -11.360352     5A    -11.312594     6A    -11.304733
       7A    -11.259337     8A    -11.254603     9A    -11.248844
      10A     -1.474700    11A     -1.370919    12A     -1.231354
      13A     -1.099720    14A     -1.037615    15A     -0.953347
      16A     -0.842202    17A     -0.819519    18A     -0.775949
      19A     -0.765377    20A     -0.672202    21A     -0.658393
      22A     -0.641389    23A     -0.618613    24A     -0.600472
      25A     -0.592463    26A     -0.577638    27A     -0.559776
      28A     -0.541828    29A     -0.536207    30A     -0.433703
      31A     -0.413712    32A     -0.391729    33A     -0.328214

  @DF-RHF Final Energy:  -435.59991616543397

   => Energetics <=

    Nuclear Repulsion Energy =            428.9442528721904750
    One-Electron Energy =               -1444.2328308143778486
    Two-Electron Energy =                 579.6886617767534062
    Total Energy =                       -435.5999161654340242
  Basis Set: (AUG-CC-PVTZ AUX)
    Blend: AUG-CC-PVTZ-RI
    Molecular point group: c1

    Geometry (in Angstrom), charge = 0, multiplicity = 1:

       Center              X                  Y                   Z               Mass
    ------------   -----------------  -----------------  -----------------  -----------------
         O            0.945305919403    -1.097703809612     0.000000799170    15.994914619570
         O           -1.404076080597     1.598763190388     0.000004799170    15.994914619570
         N           -1.730927080597    -0.681272809612    -0.000003200830    14.003074004430
         C            0.492213919403     0.197621190388    -0.000004200830    12.000000000000
         C           -0.963883080597     0.444368190388    -0.000000200830    12.000000000000
         C            1.565587519403     1.088741290388    -0.000003100830    12.000000000000
         C            2.727668919403     0.268250190388    -0.000000200830    12.000000000000
         C            2.312567919403    -1.035105809612     0.000003799170    12.000000000000
         C           -3.179090080597    -0.620097809612     0.000000799170    12.000000000000
         H            1.470169919403     2.146187190388    -0.000009200830     1.007825032230
         H           -1.262769080597    -1.578016809612    -0.000008200830     1.007825032230
         H            3.754472919403     0.607760190388     0.000003799170     1.007825032230
         H            2.822923919403    -1.986890809612     0.000002799170     1.007825032230
         H           -3.455339080597     0.433942190388     0.000000799170     1.007825032230
         H           -3.591893080597    -1.101305809612     0.891316799170     1.007825032230
         H           -3.591897080597    -1.101305809612    -0.891314200830     1.007825032230

  Basis Set: AUG-CC-PVTZ
    Blend: AUG-CC-PVTZ
  Basis Set: (AUG-CC-PVTZ AUX)
    Blend: AUG-CC-PVTZ-JKFIT
	 Reference Energy          =    -435.5999161654339673 [Eh]
	 Singles Energy            =      -0.0000000000000000 [Eh]
	 Same-Spin Energy          =      -0.4482500891649246 [Eh]
	 Opposite-Spin Energy      =      -1.3721717322084115 [Eh]
	 Correlation Energy        =      -1.8204218213733361 [Eh]
	 Total Energy              =    -437.4203379868072830 [Eh]

	 ================> DF-SCS-MP2 Energies <==================
	-----------------------------------------------------------
	 SCS Same-Spin Scale       =       0.3333333333333333 [-]
	 SCS Opposite-Spin Scale   =       1.2000000000000000 [-]
	 SCS Same-Spin Energy      =      -0.1494166963883082 [Eh]
	 SCS Opposite-Spin Energy  =      -1.6466060786500938 [Eh]
	 SCS Correlation Energy    =      -1.7960227750384019 [Eh]
	 SCS Total Energy          =    -437.3959389404723765 [Eh]
	-----------------------------------------------------------

  Dipole Moment: [D]
     X:     1.0898      Y:    -3.2465      Z:    -0.0000     Total:     3.4245

*** Psi4 exiting successfully. Buy a developer a beer!
