                               Psi4 1.3.2 release

  ==> Input File <==

--------------------------------------------------------------------------
#psi4
#
memory 32 gb

molecule  {
0 1
  O        0.8840790    -1.1049448     0.0000008
  O       -1.3738420     1.6199730     0.0000050
  N       -1.7006930    -0.6600630    -0.0000030
  C        0.5224480     0.2188310    -0.0000040
  C       -0.9336490     0.4655780     0.0000000
  C        1.5816790     1.0895450    -0.0000030
  C        2.7579030     0.2894600     0.0000000
  C        2.3428020    -1.0138960     0.0000040
  C       -3.1488560    -0.5988880     0.0000010
  H        1.5004040     2.1673970    -0.0000090
  H       -1.2325350    -1.5568070    -0.0000080
  H        3.7847070     0.6289700     0.0000040
  H        2.8531580    -1.9656810     0.0000030
  H       -3.4251050     0.4551520     0.0000010
  H       -3.5616590    -1.0800960     0.8913170
  H       -3.5616630    -1.0800960    -0.8913140
units angstrom
no_reorient  #important for SAPT in psi4, default
symmetry c1  #important for SAPT in psi4, default
}

set PROPERTIES_ORIGIN ["COM"]
properties('MP2/aug-cc-pvtz', properties = ['dipole'])
--------------------------------------------------------------------------

    Molecular point group: c1
  Charge       = 0
  Multiplicity = 1
  Basis Set: AUG-CC-PVTZ
    Blend: AUG-CC-PVTZ
  Basis Set: (AUG-CC-PVTZ AUX)
    Blend: AUG-CC-PVTZ-JKFIT

    Orbital Energies [Eh]
    ---------------------

    Doubly Occupied:

       1A    -20.641626     2A    -20.514687     3A    -15.587033
       4A    -11.357248     5A    -11.317916     6A    -11.305672
       7A    -11.258973     8A    -11.258152     9A    -11.253069
      10A     -1.447953    11A     -1.368898    12A     -1.229454
      13A     -1.108682    14A     -1.029030    15A     -0.951587
      16A     -0.842958    17A     -0.811432    18A     -0.773727
      19A     -0.760525    20A     -0.659664    21A     -0.647307
      22A     -0.641335    23A     -0.614021    24A     -0.596737
      25A     -0.585430    26A     -0.583496    27A     -0.565994
      28A     -0.541223    29A     -0.533176    30A     -0.431366
      31A     -0.422936    32A     -0.389766    33A     -0.330670

  @DF-RHF Final Energy:  -435.58983306888916

   => Energetics <=

    Nuclear Repulsion Energy =            428.3913109302465614
    One-Electron Energy =               -1443.2388009989599595
    Two-Electron Energy =                 579.2576569998241212
    Total Energy =                       -435.5898330688892202
  Basis Set: (AUG-CC-PVTZ AUX)
    Blend: AUG-CC-PVTZ-RI
    Molecular point group: c1

    Geometry (in Angstrom), charge = 0, multiplicity = 1:

       Center              X                  Y                   Z               Mass
    ------------   -----------------  -----------------  -----------------  -----------------
         O            0.866900916172    -1.120557214079     0.000000634349    15.994914619570
         O           -1.391020083828     1.604360585921     0.000004834349    15.994914619570
         N           -1.717871083828    -0.675675414079    -0.000003165651    14.003074004430
         C            0.505269916172     0.203218585921    -0.000004165651    12.000000000000
         C           -0.950827083828     0.449965585921    -0.000000165651    12.000000000000
         C            1.564500916172     1.073932585921    -0.000003165651    12.000000000000
         C            2.740724916172     0.273847585921    -0.000000165651    12.000000000000
         C            2.325623916172    -1.029508414079     0.000003834349    12.000000000000
         C           -3.166034083828    -0.614500414079     0.000000834349    12.000000000000
         H            1.483225916172     2.151784585921    -0.000009165651     1.007825032230
         H           -1.249713083828    -1.572419414079    -0.000008165651     1.007825032230
         H            3.767528916172     0.613357585921     0.000003834349     1.007825032230
         H            2.835979916172    -1.981293414079     0.000002834349     1.007825032230
         H           -3.442283083828     0.439539585921     0.000000834349     1.007825032230
         H           -3.578837083828    -1.095708414079     0.891316834349     1.007825032230
         H           -3.578841083828    -1.095708414079    -0.891314165651     1.007825032230

  Basis Set: AUG-CC-PVTZ
    Blend: AUG-CC-PVTZ
  Basis Set: (AUG-CC-PVTZ AUX)
    Blend: AUG-CC-PVTZ-JKFIT
	 Reference Energy          =    -435.5898330688891633 [Eh]
	 Singles Energy            =      -0.0000000000000000 [Eh]
	 Same-Spin Energy          =      -0.4484046225860820 [Eh]
	 Opposite-Spin Energy      =      -1.3750754517507917 [Eh]
	 Correlation Energy        =      -1.8234800743368738 [Eh]
	 Total Energy              =    -437.4133131432260484 [Eh]

	 ================> DF-SCS-MP2 Energies <==================
	-----------------------------------------------------------
	 SCS Same-Spin Scale       =       0.3333333333333333 [-]
	 SCS Opposite-Spin Scale   =       1.2000000000000000 [-]
	 SCS Same-Spin Energy      =      -0.1494682075286940 [Eh]
	 SCS Opposite-Spin Energy  =      -1.6500905421009500 [Eh]
	 SCS Correlation Energy    =      -1.7995587496296439 [Eh]
	 SCS Total Energy          =    -437.3893918185187886 [Eh]
	-----------------------------------------------------------

  Dipole Moment: [D]
     X:     1.3903      Y:    -3.0840      Z:    -0.0000     Total:     3.3829

*** Psi4 exiting successfully. Buy a developer a beer!
