                               Psi4 1.3.2 release

  ==> Input File <==

--------------------------------------------------------------------------
#psi4
#
memory 32 gb

molecule  {
0 1
  O        0.9755400    -1.0764940     0.0000010
  O       -1.3738420     1.6199730     0.0000050
  N       -1.7006930    -0.6600630    -0.0000030
  C        0.5224480     0.2188310    -0.0000040
  C       -0.9241506     0.5162447     0.0000002
  C        1.5816790     1.0895450    -0.0000030
  C        2.7579030     0.2894600     0.0000000
  C        2.3428020    -1.0138960     0.0000040
  C       -3.1488560    -0.5988880     0.0000010
  H        1.5004040     2.1673970    -0.0000090
  H       -1.2325350    -1.5568070    -0.0000080
  H        3.7847070     0.6289700     0.0000040
  H        2.8531580    -1.9656810     0.0000030
  H       -3.4251050     0.4551520     0.0000010
  H       -3.5616590    -1.0800960     0.8913170
  H       -3.5616630    -1.0800960    -0.8913140
units angstrom
no_reorient  #important for SAPT in psi4, default
symmetry c1  #important for SAPT in psi4, default
}

set PROPERTIES_ORIGIN ["COM"]
properties('MP2/aug-cc-pvtz', properties = ['dipole'])
--------------------------------------------------------------------------

    Molecular point group: c1
  Charge       = 0
  Multiplicity = 1
  Basis Set: AUG-CC-PVTZ
    Blend: AUG-CC-PVTZ
  Basis Set: (AUG-CC-PVTZ AUX)
    Blend: AUG-CC-PVTZ-JKFIT

    Orbital Energies [Eh]
    ---------------------

    Doubly Occupied:

       1A    -20.644416     2A    -20.527011     3A    -15.578349
       4A    -11.361480     5A    -11.313231     6A    -11.301194
       7A    -11.253928     8A    -11.252636     9A    -11.248240
      10A     -1.474468    11A     -1.401145    12A     -1.217031
      13A     -1.102279    14A     -1.038660    15A     -0.943770
      16A     -0.841445    17A     -0.820104    18A     -0.769788
      19A     -0.760318    20A     -0.674873    21A     -0.658708
      22A     -0.640323    23A     -0.613399    24A     -0.612602
      25A     -0.587319    26A     -0.578233    27A     -0.562128
      28A     -0.547340    29A     -0.537657    30A     -0.440526
      31A     -0.414442    32A     -0.389181    33A     -0.331690

  @DF-RHF Final Energy:  -435.60068404505648

   => Energetics <=

    Nuclear Repulsion Energy =            429.4459225859438902
    One-Electron Energy =               -1445.2173861311937344
    Two-Electron Energy =                 580.1707795001933619
    Total Energy =                       -435.6006840450564823
  Basis Set: (AUG-CC-PVTZ AUX)
    Blend: AUG-CC-PVTZ-RI
    Molecular point group: c1

    Geometry (in Angstrom), charge = 0, multiplicity = 1:

       Center              X                  Y                   Z               Mass
    ------------   -----------------  -----------------  -----------------  -----------------
         O            0.945751592611    -1.100607719580     0.000000789574    15.994914619570
         O           -1.403630407389     1.595859280420     0.000004789574    15.994914619570
         N           -1.730481407389    -0.684176719580    -0.000003210426    14.003074004430
         C            0.492659592611     0.194717280420    -0.000004210426    12.000000000000
         C           -0.953939007389     0.492130980420    -0.000000010426    12.000000000000
         C            1.551890592611     1.065431280420    -0.000003210426    12.000000000000
         C            2.728114592611     0.265346280420    -0.000000210426    12.000000000000
         C            2.313013592611    -1.038009719580     0.000003789574    12.000000000000
         C           -3.178644407389    -0.623001719580     0.000000789574    12.000000000000
         H            1.470615592611     2.143283280420    -0.000009210426     1.007825032230
         H           -1.262323407389    -1.580920719580    -0.000008210426     1.007825032230
         H            3.754918592611     0.604856280420     0.000003789574     1.007825032230
         H            2.823369592611    -1.989794719580     0.000002789574     1.007825032230
         H           -3.454893407389     0.431038280420     0.000000789574     1.007825032230
         H           -3.591447407389    -1.104209719580     0.891316789574     1.007825032230
         H           -3.591451407389    -1.104209719580    -0.891314210426     1.007825032230

  Basis Set: AUG-CC-PVTZ
    Blend: AUG-CC-PVTZ
  Basis Set: (AUG-CC-PVTZ AUX)
    Blend: AUG-CC-PVTZ-JKFIT
	 Reference Energy          =    -435.6006840450564823 [Eh]
	 Singles Energy            =      -0.0000000000000000 [Eh]
	 Same-Spin Energy          =      -0.4471045651478528 [Eh]
	 Opposite-Spin Energy      =      -1.3700955292294326 [Eh]
	 Correlation Energy        =      -1.8172000943772852 [Eh]
	 Total Energy              =    -437.4178841394337951 [Eh]

	 ================> DF-SCS-MP2 Energies <==================
	-----------------------------------------------------------
	 SCS Same-Spin Scale       =       0.3333333333333333 [-]
	 SCS Opposite-Spin Scale   =       1.2000000000000000 [-]
	 SCS Same-Spin Energy      =      -0.1490348550492843 [Eh]
	 SCS Opposite-Spin Energy  =      -1.6441146350753191 [Eh]
	 SCS Correlation Energy    =      -1.7931494901246032 [Eh]
	 SCS Total Energy          =    -437.3938335351811020 [Eh]
	-----------------------------------------------------------

  Dipole Moment: [D]
     X:     1.2788      Y:    -2.8237      Z:    -0.0000     Total:     3.0998

*** Psi4 exiting successfully. Buy a developer a beer!
