                               Psi4 1.3.2 release

  ==> Input File <==

--------------------------------------------------------------------------
#psi4
#
memory 32 gb

molecule  {
0 1
  O        0.9528645    -1.0842043     0.0000009
  O       -1.3738420     1.6199730     0.0000050
  N       -1.7006930    -0.6600630    -0.0000030
  C        0.5224480     0.2188310    -0.0000040
  C       -0.9336490     0.4655780     0.0000000
  C        1.5816790     1.0895450    -0.0000030
  C        2.7579030     0.2894600     0.0000000
  C        2.3428020    -1.0138960     0.0000040
  C       -3.1488560    -0.5988880     0.0000010
  H        1.5004040     2.1673970    -0.0000090
  H       -1.2325350    -1.5568070    -0.0000080
  H        3.7847070     0.6289700     0.0000040
  H        2.8531580    -1.9656810     0.0000030
  H       -3.4251050     0.4551520     0.0000010
  H       -3.5616590    -1.0800960     0.8913170
  H       -3.5616630    -1.0800960    -0.8913140
units angstrom
no_reorient  #important for SAPT in psi4, default
symmetry c1  #important for SAPT in psi4, default
}

set PROPERTIES_ORIGIN ["COM"]
properties('MP2/aug-cc-pvtz', properties = ['dipole'])
--------------------------------------------------------------------------

    Molecular point group: c1
  Charge       = 0
  Multiplicity = 1
  Basis Set: AUG-CC-PVTZ
    Blend: AUG-CC-PVTZ
  Basis Set: (AUG-CC-PVTZ AUX)
    Blend: AUG-CC-PVTZ-JKFIT

    Orbital Energies [Eh]
    ---------------------

    Doubly Occupied:

       1A    -20.643172     2A    -20.515599     3A    -15.588573
       4A    -11.359697     5A    -11.313852     6A    -11.302494
       7A    -11.259118     8A    -11.252787     9A    -11.250748
      10A     -1.467080    11A     -1.370563    12A     -1.230994
      13A     -1.103215    14A     -1.036335    15A     -0.953303
      16A     -0.841519    17A     -0.817251    18A     -0.775149
      19A     -0.763816    20A     -0.668094    21A     -0.655423
      22A     -0.641638    23A     -0.617627    24A     -0.600061
      25A     -0.586365    26A     -0.579232    27A     -0.563085
      28A     -0.542180    29A     -0.535577    30A     -0.433284
      31A     -0.416452    32A     -0.391323    33A     -0.330951

  @DF-RHF Final Energy:  -435.60029505578598

   => Energetics <=

    Nuclear Repulsion Energy =            429.1522785949759395
    One-Electron Energy =               -1444.6920305706889849
    Two-Electron Energy =                 579.9394569199270109
    Total Energy =                       -435.6002950557859776
  Basis Set: (AUG-CC-PVTZ AUX)
    Blend: AUG-CC-PVTZ-RI
    Molecular point group: c1

    Geometry (in Angstrom), charge = 0, multiplicity = 1:

       Center              X                  Y                   Z               Mass
    ------------   -----------------  -----------------  -----------------  -----------------
         O            0.926888026526    -1.102469642392     0.000000721557    15.994914619570
         O           -1.399818473474     1.601707657608     0.000004821557    15.994914619570
         N           -1.726669473474    -0.678328342392    -0.000003178443    14.003074004430
         C            0.496471526526     0.200565657608    -0.000004178443    12.000000000000
         C           -0.959625473474     0.447312657608    -0.000000178443    12.000000000000
         C            1.555702526526     1.071279657608    -0.000003178443    12.000000000000
         C            2.731926526526     0.271194657608    -0.000000178443    12.000000000000
         C            2.316825526526    -1.032161342392     0.000003821557    12.000000000000
         C           -3.174832473474    -0.617153342392     0.000000821557    12.000000000000
         H            1.474427526526     2.149131657608    -0.000009178443     1.007825032230
         H           -1.258511473474    -1.575072342392    -0.000008178443     1.007825032230
         H            3.758730526526     0.610704657608     0.000003821557     1.007825032230
         H            2.827181526526    -1.983946342392     0.000002821557     1.007825032230
         H           -3.451081473474     0.436886657608     0.000000821557     1.007825032230
         H           -3.587635473474    -1.098361342392     0.891316821557     1.007825032230
         H           -3.587639473474    -1.098361342392    -0.891314178443     1.007825032230

  Basis Set: AUG-CC-PVTZ
    Blend: AUG-CC-PVTZ
  Basis Set: (AUG-CC-PVTZ AUX)
    Blend: AUG-CC-PVTZ-JKFIT
	 Reference Energy          =    -435.6002950557859776 [Eh]
	 Singles Energy            =      -0.0000000000000000 [Eh]
	 Same-Spin Energy          =      -0.4479395035748824 [Eh]
	 Opposite-Spin Energy      =      -1.3722939748378318 [Eh]
	 Correlation Energy        =      -1.8202334784127143 [Eh]
	 Total Energy              =    -437.4205285341986951 [Eh]

	 ================> DF-SCS-MP2 Energies <==================
	-----------------------------------------------------------
	 SCS Same-Spin Scale       =       0.3333333333333333 [-]
	 SCS Opposite-Spin Scale   =       1.2000000000000000 [-]
	 SCS Same-Spin Energy      =      -0.1493131678582941 [Eh]
	 SCS Opposite-Spin Energy  =      -1.6467527698053981 [Eh]
	 SCS Correlation Energy    =      -1.7960659376636923 [Eh]
	 SCS Total Energy          =    -437.3963609934496617 [Eh]
	-----------------------------------------------------------

  Dipole Moment: [D]
     X:     1.1660      Y:    -3.1950      Z:    -0.0000     Total:     3.4011

*** Psi4 exiting successfully. Buy a developer a beer!
