                               Psi4 1.3.2 release

  ==> Input File <==

--------------------------------------------------------------------------
#psi4
#
memory 32 gb

molecule  {
0 1
  O        0.9755400    -1.0764940     0.0000010
  O       -1.3738420     1.6199730     0.0000050
  N       -1.5788295    -0.7340746    -0.0000036
  C        0.5224480     0.2188310    -0.0000040
  C       -0.9336490     0.4655780     0.0000000
  C        1.5816790     1.0895450    -0.0000030
  C        2.7579030     0.2894600     0.0000000
  C        2.3428020    -1.0138960     0.0000040
  C       -3.1488560    -0.5988880     0.0000010
  H        1.5004040     2.1673970    -0.0000090
  H       -1.2325350    -1.5568070    -0.0000080
  H        3.7847070     0.6289700     0.0000040
  H        2.8531580    -1.9656810     0.0000030
  H       -3.4251050     0.4551520     0.0000010
  H       -3.5616590    -1.0800960     0.8913170
  H       -3.5616630    -1.0800960    -0.8913140
units angstrom
no_reorient  #important for SAPT in psi4, default
symmetry c1  #important for SAPT in psi4, default
}

set PROPERTIES_ORIGIN ["COM"]
properties('MP2/aug-cc-pvtz', properties = ['dipole'])
--------------------------------------------------------------------------

    Molecular point group: c1
  Charge       = 0
  Multiplicity = 1
  Basis Set: AUG-CC-PVTZ
    Blend: AUG-CC-PVTZ
  Basis Set: (AUG-CC-PVTZ AUX)
    Blend: AUG-CC-PVTZ-JKFIT

    Orbital Energies [Eh]
    ---------------------

    Doubly Occupied:

       1A    -20.639589     2A    -20.522608     3A    -15.584188
       4A    -11.364410     5A    -11.308992     6A    -11.294787
       7A    -11.270551     8A    -11.247662     9A    -11.244684
      10A     -1.471082    11A     -1.371540    12A     -1.234029
      13A     -1.097710    14A     -1.032219    15A     -0.947406
      16A     -0.864418    17A     -0.816219    18A     -0.793124
      19A     -0.761608    20A     -0.669336    21A     -0.655469
      22A     -0.627475    23A     -0.608919    24A     -0.598607
      25A     -0.582841    26A     -0.568306    27A     -0.565882
      28A     -0.541907    29A     -0.541487    30A     -0.434364
      31A     -0.412999    32A     -0.401573    33A     -0.327066

  @DF-RHF Final Energy:  -435.57324137110544

   => Energetics <=

    Nuclear Repulsion Energy =            429.4477377018773154
    One-Electron Energy =               -1445.2358434768254938
    Two-Electron Energy =                 580.2148644038428529
    Total Energy =                       -435.5732413711053823
  Basis Set: (AUG-CC-PVTZ AUX)
    Blend: AUG-CC-PVTZ-RI
    Molecular point group: c1

    Geometry (in Angstrom), charge = 0, multiplicity = 1:

       Center              X                  Y                   Z               Mass
    ------------   -----------------  -----------------  -----------------  -----------------
         O            0.933016587624    -1.087457612900     0.000000875956    15.994914619570
         O           -1.416365412376     1.609009387100     0.000004875956    15.994914619570
         N           -1.621352912376    -0.745038212900    -0.000003724044    14.003074004430
         C            0.479924587624     0.207867387100    -0.000004124044    12.000000000000
         C           -0.976172412376     0.454614387100    -0.000000124044    12.000000000000
         C            1.539155587624     1.078581387100    -0.000003124044    12.000000000000
         C            2.715379587624     0.278496387100    -0.000000124044    12.000000000000
         C            2.300278587624    -1.024859612900     0.000003875956    12.000000000000
         C           -3.191379412376    -0.609851612900     0.000000875956    12.000000000000
         H            1.457880587624     2.156433387100    -0.000009124044     1.007825032230
         H           -1.275058412376    -1.567770612900    -0.000008124044     1.007825032230
         H            3.742183587624     0.618006387100     0.000003875956     1.007825032230
         H            2.810634587624    -1.976644612900     0.000002875956     1.007825032230
         H           -3.467628412376     0.444188387100     0.000000875956     1.007825032230
         H           -3.604182412376    -1.091059612900     0.891316875956     1.007825032230
         H           -3.604186412376    -1.091059612900    -0.891314124044     1.007825032230

  Basis Set: AUG-CC-PVTZ
    Blend: AUG-CC-PVTZ
  Basis Set: (AUG-CC-PVTZ AUX)
    Blend: AUG-CC-PVTZ-JKFIT
	 Reference Energy          =    -435.5732413711054392 [Eh]
	 Singles Energy            =      -0.0000000000000000 [Eh]
	 Same-Spin Energy          =      -0.4473991706983337 [Eh]
	 Opposite-Spin Energy      =      -1.3722010091928323 [Eh]
	 Correlation Energy        =      -1.8196001798911658 [Eh]
	 Total Energy              =    -437.3928415509965930 [Eh]

	 ================> DF-SCS-MP2 Energies <==================
	-----------------------------------------------------------
	 SCS Same-Spin Scale       =       0.3333333333333333 [-]
	 SCS Opposite-Spin Scale   =       1.2000000000000000 [-]
	 SCS Same-Spin Energy      =      -0.1491330568994446 [Eh]
	 SCS Opposite-Spin Energy  =      -1.6466412110313986 [Eh]
	 SCS Correlation Energy    =      -1.7957742679308430 [Eh]
	 SCS Total Energy          =    -437.3690156390362631 [Eh]
	-----------------------------------------------------------

  Dipole Moment: [D]
     X:     0.7019      Y:    -3.1204      Z:    -0.0000     Total:     3.1984

*** Psi4 exiting successfully. Buy a developer a beer!
