                               Psi4 1.3.2 release

  ==> Input File <==

--------------------------------------------------------------------------
#psi4
#
memory 32 gb

molecule  {
0 1
  O        0.8376596    -1.1167591     0.0000007
  O       -1.3738420     1.6199730     0.0000050
  N       -1.7006930    -0.6600630    -0.0000030
  C        0.5224480     0.2188310    -0.0000040
  C       -0.9336490     0.4655780     0.0000000
  C        1.5816790     1.0895450    -0.0000030
  C        2.7579030     0.2894600     0.0000000
  C        2.3428020    -1.0138960     0.0000040
  C       -3.1488560    -0.5988880     0.0000010
  H        1.5004040     2.1673970    -0.0000090
  H       -1.2325350    -1.5568070    -0.0000080
  H        3.7847070     0.6289700     0.0000040
  H        2.8531580    -1.9656810     0.0000030
  H       -3.4251050     0.4551520     0.0000010
  H       -3.5616590    -1.0800960     0.8913170
  H       -3.5616630    -1.0800960    -0.8913140
units angstrom
no_reorient  #important for SAPT in psi4, default
symmetry c1  #important for SAPT in psi4, default
}

set PROPERTIES_ORIGIN ["COM"]
properties('MP2/aug-cc-pvtz', properties = ['dipole'])
--------------------------------------------------------------------------

    Molecular point group: c1
  Charge       = 0
  Multiplicity = 1
  Basis Set: AUG-CC-PVTZ
    Blend: AUG-CC-PVTZ
  Basis Set: (AUG-CC-PVTZ AUX)
    Blend: AUG-CC-PVTZ-JKFIT

    Orbital Energies [Eh]
    ---------------------

    Doubly Occupied:

       1A    -20.640354     2A    -20.513994     3A    -15.585815
       4A    -11.355552     5A    -11.320820     6A    -11.307793
       7A    -11.264077     8A    -11.257405     9A    -11.253339
      10A     -1.437480    11A     -1.367551    12A     -1.228274
      13A     -1.112443    14A     -1.024757    15A     -0.950638
      16A     -0.844115    17A     -0.808797    18A     -0.772279
      19A     -0.758180    20A     -0.655882    21A     -0.643248
      22A     -0.641328    23A     -0.611281    24A     -0.595372
      25A     -0.587347    26A     -0.581082    27A     -0.566906
      28A     -0.540099    29A     -0.531460    30A     -0.429904
      31A     -0.427340    32A     -0.388619    33A     -0.330391

  @DF-RHF Final Energy:  -435.57951718988284

   => Energetics <=

    Nuclear Repulsion Energy =            427.9730531952363890
    One-Electron Energy =               -1442.4372995754547446
    Two-Electron Energy =                 578.8847291903355199
    Total Energy =                       -435.5795171898828357
  Basis Set: (AUG-CC-PVTZ AUX)
    Blend: AUG-CC-PVTZ-RI
    Molecular point group: c1

    Geometry (in Angstrom), charge = 0, multiplicity = 1:

       Center              X                  Y                   Z               Mass
    ------------   -----------------  -----------------  -----------------  -----------------
         O            0.826419046151    -1.130860340724     0.000000547140    15.994914619570
         O           -1.385082553849     1.605871759276     0.000004847140    15.994914619570
         N           -1.711933553849    -0.674164240724    -0.000003152860    14.003074004430
         C            0.511207446151     0.204729759276    -0.000004152860    12.000000000000
         C           -0.944889553849     0.451476759276    -0.000000152860    12.000000000000
         C            1.570438446151     1.075443759276    -0.000003152860    12.000000000000
         C            2.746662446151     0.275358759276    -0.000000152860    12.000000000000
         C            2.331561446151    -1.027997240724     0.000003847140    12.000000000000
         C           -3.160096553849    -0.612989240724     0.000000847140    12.000000000000
         H            1.489163446151     2.153295759276    -0.000009152860     1.007825032230
         H           -1.243775553849    -1.570908240724    -0.000008152860     1.007825032230
         H            3.773466446151     0.614868759276     0.000003847140     1.007825032230
         H            2.841917446151    -1.979782240724     0.000002847140     1.007825032230
         H           -3.436345553849     0.441050759276     0.000000847140     1.007825032230
         H           -3.572899553849    -1.094197240724     0.891316847140     1.007825032230
         H           -3.572903553849    -1.094197240724    -0.891314152860     1.007825032230

  Basis Set: AUG-CC-PVTZ
    Blend: AUG-CC-PVTZ
  Basis Set: (AUG-CC-PVTZ AUX)
    Blend: AUG-CC-PVTZ-JKFIT
	 Reference Energy          =    -435.5795171898828357 [Eh]
	 Singles Energy            =      -0.0000000000000000 [Eh]
	 Same-Spin Energy          =      -0.4488155152578363 [Eh]
	 Opposite-Spin Energy      =      -1.3770614420582952 [Eh]
	 Correlation Energy        =      -1.8258769573161313 [Eh]
	 Total Energy              =    -437.4053941471989901 [Eh]

	 ================> DF-SCS-MP2 Energies <==================
	-----------------------------------------------------------
	 SCS Same-Spin Scale       =       0.3333333333333333 [-]
	 SCS Opposite-Spin Scale   =       1.2000000000000000 [-]
	 SCS Same-Spin Energy      =      -0.1496051717526121 [Eh]
	 SCS Opposite-Spin Energy  =      -1.6524737304699542 [Eh]
	 SCS Correlation Energy    =      -1.8020789022225663 [Eh]
	 SCS Total Energy          =    -437.3815960921053829 [Eh]
	-----------------------------------------------------------

  Dipole Moment: [D]
     X:     1.5407      Y:    -3.0224      Z:    -0.0000     Total:     3.3924

*** Psi4 exiting successfully. Buy a developer a beer!
