                               Psi4 1.3.2 release

  ==> Input File <==

--------------------------------------------------------------------------
#psi4
#
memory 32 gb

molecule  {
0 1
  O        0.9755400    -1.0764940     0.0000010
  O       -1.3738420     1.6199730     0.0000050
  N       -1.7006930    -0.6600630    -0.0000030
  C        0.5224480     0.2188310    -0.0000040
  C       -0.9336490     0.4655780     0.0000000
  C        1.6717541     1.2081109    -0.0000033
  C        2.7579030     0.2894600     0.0000000
  C        2.3428020    -1.0138960     0.0000040
  C       -3.1488560    -0.5988880     0.0000010
  H        1.5004040     2.1673970    -0.0000090
  H       -1.2325350    -1.5568070    -0.0000080
  H        3.7847070     0.6289700     0.0000040
  H        2.8531580    -1.9656810     0.0000030
  H       -3.4251050     0.4551520     0.0000010
  H       -3.5616590    -1.0800960     0.8913170
  H       -3.5616630    -1.0800960    -0.8913140
units angstrom
no_reorient  #important for SAPT in psi4, default
symmetry c1  #important for SAPT in psi4, default
}

set PROPERTIES_ORIGIN ["COM"]
properties('MP2/aug-cc-pvtz', properties = ['dipole'])
--------------------------------------------------------------------------

    Molecular point group: c1
  Charge       = 0
  Multiplicity = 1
  Basis Set: AUG-CC-PVTZ
    Blend: AUG-CC-PVTZ
  Basis Set: (AUG-CC-PVTZ AUX)
    Blend: AUG-CC-PVTZ-JKFIT

    Orbital Energies [Eh]
    ---------------------

    Doubly Occupied:

       1A    -20.655650     2A    -20.515669     3A    -15.588661
       4A    -11.360110     5A    -11.319558     6A    -11.312547
       7A    -11.264718     8A    -11.259255     9A    -11.253918
      10A     -1.477096    11A     -1.370727    12A     -1.231241
      13A     -1.093028    14A     -1.032131    15A     -0.951411
      16A     -0.850916    17A     -0.823261    18A     -0.776275
      19A     -0.765081    20A     -0.680072    21A     -0.657603
      22A     -0.640113    23A     -0.620155    24A     -0.618653
      25A     -0.598887    26A     -0.580483    27A     -0.547384
      28A     -0.535881    29A     -0.529742    30A     -0.433209
      31A     -0.412374    32A     -0.391690    33A     -0.314988

  @DF-RHF Final Energy:  -435.56454371241898

   => Energetics <=

    Nuclear Repulsion Energy =            426.5981386087925102
    One-Electron Energy =               -1439.4003917378281585
    Two-Electron Energy =                 577.2377094166166671
    Total Energy =                       -435.5645437124189812
  Basis Set: (AUG-CC-PVTZ AUX)
    Blend: AUG-CC-PVTZ-RI
    Molecular point group: c1

    Geometry (in Angstrom), charge = 0, multiplicity = 1:

       Center              X                  Y                   Z               Mass
    ------------   -----------------  -----------------  -----------------  -----------------
         O            0.938019178769    -1.107123557459     0.000000837555    15.994914619570
         O           -1.411362821231     1.589343442541     0.000004837555    15.994914619570
         N           -1.738213821231    -0.690692557459    -0.000003162445    14.003074004430
         C            0.484927178769     0.188201442541    -0.000004162445    12.000000000000
         C           -0.971169821231     0.434948442541    -0.000000162445    12.000000000000
         C            1.634233278769     1.177481342541    -0.000003462445    12.000000000000
         C            2.720382178769     0.258830442541    -0.000000162445    12.000000000000
         C            2.305281178769    -1.044525557459     0.000003837555    12.000000000000
         C           -3.186376821231    -0.629517557459     0.000000837555    12.000000000000
         H            1.462883178769     2.136767442541    -0.000009162445     1.007825032230
         H           -1.270055821231    -1.587436557459    -0.000008162445     1.007825032230
         H            3.747186178769     0.598340442541     0.000003837555     1.007825032230
         H            2.815637178769    -1.996310557459     0.000002837555     1.007825032230
         H           -3.462625821231     0.424522442541     0.000000837555     1.007825032230
         H           -3.599179821231    -1.110725557459     0.891316837555     1.007825032230
         H           -3.599183821231    -1.110725557459    -0.891314162445     1.007825032230

  Basis Set: AUG-CC-PVTZ
    Blend: AUG-CC-PVTZ
  Basis Set: (AUG-CC-PVTZ AUX)
    Blend: AUG-CC-PVTZ-JKFIT
	 Reference Energy          =    -435.5645437124189812 [Eh]
	 Singles Energy            =      -0.0000000000000000 [Eh]
	 Same-Spin Energy          =      -0.4510424354499129 [Eh]
	 Opposite-Spin Energy      =      -1.3774078066024646 [Eh]
	 Correlation Energy        =      -1.8284502420523776 [Eh]
	 Total Energy              =    -437.3929939544713648 [Eh]

	 ================> DF-SCS-MP2 Energies <==================
	-----------------------------------------------------------
	 SCS Same-Spin Scale       =       0.3333333333333333 [-]
	 SCS Opposite-Spin Scale   =       1.2000000000000000 [-]
	 SCS Same-Spin Energy      =      -0.1503474784833043 [Eh]
	 SCS Opposite-Spin Energy  =      -1.6528893679229575 [Eh]
	 SCS Correlation Energy    =      -1.8032368464062618 [Eh]
	 SCS Total Energy          =    -437.3677805588252454 [Eh]
	-----------------------------------------------------------

  Dipole Moment: [D]
     X:     1.0881      Y:    -3.3091      Z:    -0.0000     Total:     3.4834

*** Psi4 exiting successfully. Buy a developer a beer!
