                               Psi4 1.3.2 release

  ==> Input File <==

--------------------------------------------------------------------------
#psi4
#
memory 32 gb

molecule  {
0 1
  O        0.9755400    -1.0764940     0.0000010
  O       -1.3738420     1.6199730     0.0000050
  N       -1.7006930    -0.6600630    -0.0000030
  C        0.4927058     0.2563280    -0.0000041
  C       -0.9336490     0.4655780     0.0000000
  C        1.5816790     1.0895450    -0.0000030
  C        2.7579030     0.2894600     0.0000000
  C        2.3428020    -1.0138960     0.0000040
  C       -3.1488560    -0.5988880     0.0000010
  H        1.5004040     2.1673970    -0.0000090
  H       -1.2325350    -1.5568070    -0.0000080
  H        3.7847070     0.6289700     0.0000040
  H        2.8531580    -1.9656810     0.0000030
  H       -3.4251050     0.4551520     0.0000010
  H       -3.5616590    -1.0800960     0.8913170
  H       -3.5616630    -1.0800960    -0.8913140
units angstrom
no_reorient  #important for SAPT in psi4, default
symmetry c1  #important for SAPT in psi4, default
}

set PROPERTIES_ORIGIN ["COM"]
properties('MP2/aug-cc-pvtz', properties = ['dipole'])
--------------------------------------------------------------------------

    Molecular point group: c1
  Charge       = 0
  Multiplicity = 1
  Basis Set: AUG-CC-PVTZ
    Blend: AUG-CC-PVTZ
  Basis Set: (AUG-CC-PVTZ AUX)
    Blend: AUG-CC-PVTZ-JKFIT

    Orbital Energies [Eh]
    ---------------------

    Doubly Occupied:

       1A    -20.637695     2A    -20.513931     3A    -15.588190
       4A    -11.357903     5A    -11.316541     6A    -11.300456
       7A    -11.258971     8A    -11.258134     9A    -11.248074
      10A     -1.457268    11A     -1.371344    12A     -1.230752
      13A     -1.100516    14A     -1.040912    15A     -0.953865
      16A     -0.848775    17A     -0.814643    18A     -0.774957
      19A     -0.761202    20A     -0.672514    21A     -0.650792
      22A     -0.642007    23A     -0.616762    24A     -0.600085
      25A     -0.585108    26A     -0.573139    27A     -0.564086
      28A     -0.541085    29A     -0.537106    30A     -0.434274
      31A     -0.414566    32A     -0.391178    33A     -0.332555

  @DF-RHF Final Energy:  -435.59809292952139

   => Energetics <=

    Nuclear Repulsion Energy =            429.1767862655082695
    One-Electron Energy =               -1444.7709877451829925
    Two-Electron Energy =                 579.9961085501532807
    Total Energy =                       -435.5980929295213855
  Basis Set: (AUG-CC-PVTZ AUX)
    Blend: AUG-CC-PVTZ-RI
    Molecular point group: c1

    Geometry (in Angstrom), charge = 0, multiplicity = 1:

       Center              X                  Y                   Z               Mass
    ------------   -----------------  -----------------  -----------------  -----------------
         O            0.949517253884    -1.099343910432     0.000000818363    15.994914619570
         O           -1.399864746116     1.597123089568     0.000004818363    15.994914619570
         N           -1.726715746116    -0.682912910432    -0.000003181637    14.003074004430
         C            0.466683053884     0.233478089568    -0.000004281637    12.000000000000
         C           -0.959671746116     0.442728089568    -0.000000181637    12.000000000000
         C            1.555656253884     1.066695089568    -0.000003181637    12.000000000000
         C            2.731880253884     0.266610089568    -0.000000181637    12.000000000000
         C            2.316779253884    -1.036745910432     0.000003818363    12.000000000000
         C           -3.174878746116    -0.621737910432     0.000000818363    12.000000000000
         H            1.474381253884     2.144547089568    -0.000009181637     1.007825032230
         H           -1.258557746116    -1.579656910432    -0.000008181637     1.007825032230
         H            3.758684253884     0.606120089568     0.000003818363     1.007825032230
         H            2.827135253884    -1.988530910432     0.000002818363     1.007825032230
         H           -3.451127746116     0.432302089568     0.000000818363     1.007825032230
         H           -3.587681746116    -1.102945910432     0.891316818363     1.007825032230
         H           -3.587685746116    -1.102945910432    -0.891314181637     1.007825032230

  Basis Set: AUG-CC-PVTZ
    Blend: AUG-CC-PVTZ
  Basis Set: (AUG-CC-PVTZ AUX)
    Blend: AUG-CC-PVTZ-JKFIT
	 Reference Energy          =    -435.5980929295213855 [Eh]
	 Singles Energy            =      -0.0000000000000000 [Eh]
	 Same-Spin Energy          =      -0.4481665731476591 [Eh]
	 Opposite-Spin Energy      =      -1.3724710518598113 [Eh]
	 Correlation Energy        =      -1.8206376250074703 [Eh]
	 Total Energy              =    -437.4187305545288496 [Eh]

	 ================> DF-SCS-MP2 Energies <==================
	-----------------------------------------------------------
	 SCS Same-Spin Scale       =       0.3333333333333333 [-]
	 SCS Opposite-Spin Scale   =       1.2000000000000000 [-]
	 SCS Same-Spin Energy      =      -0.1493888577158863 [Eh]
	 SCS Opposite-Spin Energy  =      -1.6469652622317736 [Eh]
	 SCS Correlation Energy    =      -1.7963541199476600 [Eh]
	 SCS Total Energy          =    -437.3944470494690222 [Eh]
	-----------------------------------------------------------

  Dipole Moment: [D]
     X:     1.1366      Y:    -3.1920      Z:    -0.0000     Total:     3.3883

*** Psi4 exiting successfully. Buy a developer a beer!
