                               Psi4 1.3.2 release

  ==> Input File <==

--------------------------------------------------------------------------
#psi4
#
memory 32 gb

molecule  {
0 1
  O        0.9755400    -1.0764940     0.0000010
  O       -1.3738420     1.6199730     0.0000050
  N       -1.7006930    -0.6600630    -0.0000030
  C        0.5224480     0.2188310    -0.0000040
  C       -0.9336490     0.4655780     0.0000000
  C        1.5044908     0.9622132    -0.0000026
  C        2.7579030     0.2894600     0.0000000
  C        2.3428020    -1.0138960     0.0000040
  C       -3.1488560    -0.5988880     0.0000010
  H        1.5004040     2.1673970    -0.0000090
  H       -1.2325350    -1.5568070    -0.0000080
  H        3.7847070     0.6289700     0.0000040
  H        2.8531580    -1.9656810     0.0000030
  H       -3.4251050     0.4551520     0.0000010
  H       -3.5616590    -1.0800960     0.8913170
  H       -3.5616630    -1.0800960    -0.8913140
units angstrom
no_reorient  #important for SAPT in psi4, default
symmetry c1  #important for SAPT in psi4, default
}

set PROPERTIES_ORIGIN ["COM"]
properties('MP2/aug-cc-pvtz', properties = ['dipole'])
--------------------------------------------------------------------------

    Molecular point group: c1
  Charge       = 0
  Multiplicity = 1
  Basis Set: AUG-CC-PVTZ
    Blend: AUG-CC-PVTZ
  Basis Set: (AUG-CC-PVTZ AUX)
    Blend: AUG-CC-PVTZ-JKFIT

    Orbital Energies [Eh]
    ---------------------

    Doubly Occupied:

       1A    -20.632210     2A    -20.517239     3A    -15.590330
       4A    -11.361938     5A    -11.312914     6A    -11.280361
       7A    -11.260138     8A    -11.245275     9A    -11.239839
      10A     -1.475337    11A     -1.372187    12A     -1.232517
      13A     -1.115908    14A     -1.048841    15A     -0.958812
      16A     -0.838103    17A     -0.826116    18A     -0.773771
      19A     -0.754607    20A     -0.673357    21A     -0.663345
      22A     -0.644506    23A     -0.619518    24A     -0.607254
      25A     -0.590005    26A     -0.568663    27A     -0.543366
      28A     -0.537484    29A     -0.527236    30A     -0.435237
      31A     -0.422243    32A     -0.392675    33A     -0.347193

  @DF-RHF Final Energy:  -435.57240329106048

   => Energetics <=

    Nuclear Repulsion Energy =            432.6472846619660118
    One-Electron Energy =               -1451.6223277462213446
    Two-Electron Energy =                 583.4026397931947940
    Total Energy =                       -435.5724032910604819
  Basis Set: (AUG-CC-PVTZ AUX)
    Blend: AUG-CC-PVTZ-RI
    Molecular point group: c1

    Geometry (in Angstrom), charge = 0, multiplicity = 1:

       Center              X                  Y                   Z               Mass
    ------------   -----------------  -----------------  -----------------  -----------------
         O            0.954070333213    -1.083526378878     0.000000770381    15.994914619570
         O           -1.395311666787     1.612940621122     0.000004770381    15.994914619570
         N           -1.722162666787    -0.667095378878    -0.000003229619    14.003074004430
         C            0.500978333213     0.211798621122    -0.000004229619    12.000000000000
         C           -0.955118666787     0.458545621122    -0.000000229619    12.000000000000
         C            1.483021133213     0.955180821122    -0.000002829619    12.000000000000
         C            2.736433333213     0.282427621122    -0.000000229619    12.000000000000
         C            2.321332333213    -1.020928378878     0.000003770381    12.000000000000
         C           -3.170325666787    -0.605920378878     0.000000770381    12.000000000000
         H            1.478934333213     2.160364621122    -0.000009229619     1.007825032230
         H           -1.254004666787    -1.563839378878    -0.000008229619     1.007825032230
         H            3.763237333213     0.621937621122     0.000003770381     1.007825032230
         H            2.831688333213    -1.972713378878     0.000002770381     1.007825032230
         H           -3.446574666787     0.448119621122     0.000000770381     1.007825032230
         H           -3.583128666787    -1.087128378878     0.891316770381     1.007825032230
         H           -3.583132666787    -1.087128378878    -0.891314229619     1.007825032230

  Basis Set: AUG-CC-PVTZ
    Blend: AUG-CC-PVTZ
  Basis Set: (AUG-CC-PVTZ AUX)
    Blend: AUG-CC-PVTZ-JKFIT
	 Reference Energy          =    -435.5724032910604819 [Eh]
	 Singles Energy            =      -0.0000000000000000 [Eh]
	 Same-Spin Energy          =      -0.4462859507730801 [Eh]
	 Opposite-Spin Energy      =      -1.3690173744559075 [Eh]
	 Correlation Energy        =      -1.8153033252289876 [Eh]
	 Total Energy              =    -437.3877066162894494 [Eh]

	 ================> DF-SCS-MP2 Energies <==================
	-----------------------------------------------------------
	 SCS Same-Spin Scale       =       0.3333333333333333 [-]
	 SCS Opposite-Spin Scale   =       1.2000000000000000 [-]
	 SCS Same-Spin Energy      =      -0.1487619835910267 [Eh]
	 SCS Opposite-Spin Energy  =      -1.6428208493470891 [Eh]
	 SCS Correlation Energy    =      -1.7915828329381158 [Eh]
	 SCS Total Energy          =    -437.3639861239985862 [Eh]
	-----------------------------------------------------------

  Dipole Moment: [D]
     X:     1.0942      Y:    -3.2226      Z:    -0.0000     Total:     3.4033

*** Psi4 exiting successfully. Buy a developer a beer!
