                               Psi4 1.3.2 release

  ==> Input File <==

--------------------------------------------------------------------------
#psi4
#
memory 32 gb

molecule  {
0 1
  O        0.9895733    -1.2190689     0.0000016
  O       -1.3738420     1.6199730     0.0000050
  N       -1.7006930    -0.6600630    -0.0000030
  C        0.5224480     0.2188310    -0.0000040
  C       -0.9336490     0.4655780     0.0000000
  C        1.5816790     1.0895450    -0.0000030
  C        2.7579030     0.2894600     0.0000000
  C        2.3428020    -1.0138960     0.0000040
  C       -3.1488560    -0.5988880     0.0000010
  H        1.5004040     2.1673970    -0.0000090
  H       -1.2325350    -1.5568070    -0.0000080
  H        3.7847070     0.6289700     0.0000040
  H        2.8531580    -1.9656810     0.0000030
  H       -3.4251050     0.4551520     0.0000010
  H       -3.5616590    -1.0800960     0.8913170
  H       -3.5616630    -1.0800960    -0.8913140
units angstrom
no_reorient  #important for SAPT in psi4, default
symmetry c1  #important for SAPT in psi4, default
}

set PROPERTIES_ORIGIN ["COM"]
properties('MP2/aug-cc-pvtz', properties = ['dipole'])
--------------------------------------------------------------------------

    Molecular point group: c1
  Charge       = 0
  Multiplicity = 1
  Basis Set: AUG-CC-PVTZ
    Blend: AUG-CC-PVTZ
  Basis Set: (AUG-CC-PVTZ AUX)
    Blend: AUG-CC-PVTZ-JKFIT

    Orbital Energies [Eh]
    ---------------------

    Doubly Occupied:

       1A    -20.641946     2A    -20.515498     3A    -15.587186
       4A    -11.361305     5A    -11.318800     6A    -11.309273
       7A    -11.269106     8A    -11.258224     9A    -11.249070
      10A     -1.435786    11A     -1.370758    12A     -1.229909
      13A     -1.113252    14A     -1.025587    15A     -0.950631
      16A     -0.844400    17A     -0.808703    18A     -0.775990
      19A     -0.757851    20A     -0.653482    21A     -0.641448
      22A     -0.639610    23A     -0.614391    24A     -0.603310
      25A     -0.595529    26A     -0.569542    27A     -0.562179
      28A     -0.542257    29A     -0.537290    30A     -0.432595
      31A     -0.425046    32A     -0.391673    33A     -0.330963

  @DF-RHF Final Energy:  -435.58225798970557

   => Energetics <=

    Nuclear Repulsion Energy =            425.7794198372752703
    One-Electron Energy =               -1437.9981759136251185
    Two-Electron Energy =                 576.6364980866442238
    Total Energy =                       -435.5822579897055675
  Basis Set: (AUG-CC-PVTZ AUX)
    Blend: AUG-CC-PVTZ-RI
    Molecular point group: c1

    Geometry (in Angstrom), charge = 0, multiplicity = 1:

       Center              X                  Y                   Z               Mass
    ------------   -----------------  -----------------  -----------------  -----------------
         O            0.958901384523    -1.220083640153     0.000001332020    15.994914619570
         O           -1.404513915477     1.618958259847     0.000004732020    15.994914619570
         N           -1.731364915477    -0.661077740153    -0.000003267980    14.003074004430
         C            0.491776084523     0.217816259847    -0.000004267980    12.000000000000
         C           -0.964320915477     0.464563259847    -0.000000267980    12.000000000000
         C            1.551007084523     1.088530259847    -0.000003267980    12.000000000000
         C            2.727231084523     0.288445259847    -0.000000267980    12.000000000000
         C            2.312130084523    -1.014910740153     0.000003732020    12.000000000000
         C           -3.179527915477    -0.599902740153     0.000000732020    12.000000000000
         H            1.469732084523     2.166382259847    -0.000009267980     1.007825032230
         H           -1.263206915477    -1.557821740153    -0.000008267980     1.007825032230
         H            3.754035084523     0.627955259847     0.000003732020     1.007825032230
         H            2.822486084523    -1.966695740153     0.000002732020     1.007825032230
         H           -3.455776915477     0.454137259847     0.000000732020     1.007825032230
         H           -3.592330915477    -1.081110740153     0.891316732020     1.007825032230
         H           -3.592334915477    -1.081110740153    -0.891314267980     1.007825032230

  Basis Set: AUG-CC-PVTZ
    Blend: AUG-CC-PVTZ
  Basis Set: (AUG-CC-PVTZ AUX)
    Blend: AUG-CC-PVTZ-JKFIT
	 Reference Energy          =    -435.5822579897055675 [Eh]
	 Singles Energy            =      -0.0000000000000000 [Eh]
	 Same-Spin Energy          =      -0.4482374969020723 [Eh]
	 Opposite-Spin Energy      =      -1.3754956018406137 [Eh]
	 Correlation Energy        =      -1.8237330987426859 [Eh]
	 Total Energy              =    -437.4059910884482747 [Eh]

	 ================> DF-SCS-MP2 Energies <==================
	-----------------------------------------------------------
	 SCS Same-Spin Scale       =       0.3333333333333333 [-]
	 SCS Opposite-Spin Scale   =       1.2000000000000000 [-]
	 SCS Same-Spin Energy      =      -0.1494124989673574 [Eh]
	 SCS Opposite-Spin Energy  =      -1.6505947222087365 [Eh]
	 SCS Correlation Energy    =      -1.8000072211760938 [Eh]
	 SCS Total Energy          =    -437.3822652108816555 [Eh]
	-----------------------------------------------------------

  Dipole Moment: [D]
     X:     1.1118      Y:    -2.8235      Z:    -0.0000     Total:     3.0346

*** Psi4 exiting successfully. Buy a developer a beer!
