                               Psi4 1.3.2 release

  ==> Input File <==

--------------------------------------------------------------------------
#psi4
#
memory 32 gb

molecule  {
0 1
  O        0.9755400    -1.0764940     0.0000010
  O       -1.3738420     1.6199730     0.0000050
  N       -1.7006930    -0.6600630    -0.0000030
  C        0.6139090     0.2472818    -0.0000039
  C       -0.9336490     0.4655780     0.0000000
  C        1.5816790     1.0895450    -0.0000030
  C        2.7579030     0.2894600     0.0000000
  C        2.3428020    -1.0138960     0.0000040
  C       -3.1488560    -0.5988880     0.0000010
  H        1.5004040     2.1673970    -0.0000090
  H       -1.2325350    -1.5568070    -0.0000080
  H        3.7847070     0.6289700     0.0000040
  H        2.8531580    -1.9656810     0.0000030
  H       -3.4251050     0.4551520     0.0000010
  H       -3.5616590    -1.0800960     0.8913170
  H       -3.5616630    -1.0800960    -0.8913140
units angstrom
no_reorient  #important for SAPT in psi4, default
symmetry c1  #important for SAPT in psi4, default
}

set PROPERTIES_ORIGIN ["COM"]
properties('MP2/aug-cc-pvtz', properties = ['dipole'])
--------------------------------------------------------------------------

    Molecular point group: c1
  Charge       = 0
  Multiplicity = 1
  Basis Set: AUG-CC-PVTZ
    Blend: AUG-CC-PVTZ
  Basis Set: (AUG-CC-PVTZ AUX)
    Blend: AUG-CC-PVTZ-JKFIT

    Orbital Energies [Eh]
    ---------------------

    Doubly Occupied:

       1A    -20.640354     2A    -20.517801     3A    -15.591317
       4A    -11.365133     5A    -11.307221     6A    -11.297499
       7A    -11.260802     8A    -11.245951     9A    -11.236990
      10A     -1.476045    11A     -1.370387    12A     -1.231389
      13A     -1.118397    14A     -1.030528    15A     -0.954464
      16A     -0.827268    17A     -0.822497    18A     -0.775429
      19A     -0.764939    20A     -0.662180    21A     -0.659639
      22A     -0.641438    23A     -0.619935    24A     -0.601837
      25A     -0.596659    26A     -0.575502    27A     -0.558012
      28A     -0.544740    29A     -0.534840    30A     -0.428802
      31A     -0.423051    32A     -0.392475    33A     -0.337887

  @DF-RHF Final Energy:  -435.59288196689931

   => Energetics <=

    Nuclear Repulsion Energy =            429.5474158197824863
    One-Electron Energy =               -1445.4577829515151279
    Two-Electron Energy =                 580.3174851648333288
    Total Energy =                       -435.5928819668993128
  Basis Set: (AUG-CC-PVTZ AUX)
    Blend: AUG-CC-PVTZ-RI
    Molecular point group: c1

    Geometry (in Angstrom), charge = 0, multiplicity = 1:

       Center              X                  Y                   Z               Mass
    ------------   -----------------  -----------------  -----------------  -----------------
         O            0.937886183097    -1.098475806351     0.000000799170    15.994914619570
         O           -1.411495816903     1.597991193649     0.000004799170    15.994914619570
         N           -1.738346816903    -0.682044806351    -0.000003200830    14.003074004430
         C            0.576255183097     0.225299993649    -0.000004100830    12.000000000000
         C           -0.971302816903     0.443596193649    -0.000000200830    12.000000000000
         C            1.544025183097     1.067563193649    -0.000003200830    12.000000000000
         C            2.720249183097     0.267478193649    -0.000000200830    12.000000000000
         C            2.305148183097    -1.035877806351     0.000003799170    12.000000000000
         C           -3.186509816903    -0.620869806351     0.000000799170    12.000000000000
         H            1.462750183097     2.145415193649    -0.000009200830     1.007825032230
         H           -1.270188816903    -1.578788806351    -0.000008200830     1.007825032230
         H            3.747053183097     0.606988193649     0.000003799170     1.007825032230
         H            2.815504183097    -1.987662806351     0.000002799170     1.007825032230
         H           -3.462758816903     0.433170193649     0.000000799170     1.007825032230
         H           -3.599312816903    -1.102077806351     0.891316799170     1.007825032230
         H           -3.599316816903    -1.102077806351    -0.891314200830     1.007825032230

  Basis Set: AUG-CC-PVTZ
    Blend: AUG-CC-PVTZ
  Basis Set: (AUG-CC-PVTZ AUX)
    Blend: AUG-CC-PVTZ-JKFIT
	 Reference Energy          =    -435.5928819668993128 [Eh]
	 Singles Energy            =      -0.0000000000000000 [Eh]
	 Same-Spin Energy          =      -0.4459836370575987 [Eh]
	 Opposite-Spin Energy      =      -1.3691816437872855 [Eh]
	 Correlation Energy        =      -1.8151652808448842 [Eh]
	 Total Energy              =    -437.4080472477442072 [Eh]

	 ================> DF-SCS-MP2 Energies <==================
	-----------------------------------------------------------
	 SCS Same-Spin Scale       =       0.3333333333333333 [-]
	 SCS Opposite-Spin Scale   =       1.2000000000000000 [-]
	 SCS Same-Spin Energy      =      -0.1486612123525329 [Eh]
	 SCS Opposite-Spin Energy  =      -1.6430179725447425 [Eh]
	 SCS Correlation Energy    =      -1.7916791848972753 [Eh]
	 SCS Total Energy          =    -437.3845611517965608 [Eh]
	-----------------------------------------------------------

  Dipole Moment: [D]
     X:     0.9487      Y:    -3.1180      Z:    -0.0000     Total:     3.2591

*** Psi4 exiting successfully. Buy a developer a beer!
