                               Psi4 1.4a3.dev225

  ==> Input File <==

--------------------------------------------------------------------------
#psi4
#
memory 32 gb

molecule  {
0 1
  O        0.9755400    -1.0764940     0.0000010
  O       -1.3738420     1.6199730     0.0000050
  N       -1.7006930    -0.6600630    -0.0000030
  C        0.5224480     0.2188310    -0.0000040
  C       -0.9336490     0.4655780     0.0000000
  C        1.5816790     1.0895450    -0.0000030
  C        2.7579030     0.2894600     0.0000000
  C        2.3428020    -1.0138960     0.0000040
  C       -3.1488560    -0.5988880     0.0000010
  H        1.4989002     2.1873404    -0.0000091
  H       -1.2325350    -1.5568070    -0.0000080
  H        3.7847070     0.6289700     0.0000040
  H        2.8531580    -1.9656810     0.0000030
  H       -3.4251050     0.4551520     0.0000010
  H       -3.5616590    -1.0800960     0.8913170
  H       -3.5616630    -1.0800960    -0.8913140
units angstrom
no_reorient  #important for SAPT in psi4, default
symmetry c1  #important for SAPT in psi4, default
}

set PROPERTIES_ORIGIN ["COM"]
properties('MP2/aug-cc-pvtz', properties = ['dipole'])
--------------------------------------------------------------------------

    Molecular point group: c1
  Charge       = 0
  Multiplicity = 1
  Basis Set: AUG-CC-PVTZ
    Blend: AUG-CC-PVTZ
  Basis Set: (AUG-CC-PVTZ AUX)
    Blend: AUG-CC-PVTZ-JKFIT

    Orbital Energies [Eh]
    ---------------------

    Doubly Occupied:

       1A    -20.643670     2A    -20.515812     3A    -15.588992
       4A    -11.360455     5A    -11.312657     6A    -11.301484
       7A    -11.259386     8A    -11.254572     9A    -11.248180
      10A     -1.474491    11A     -1.370984    12A     -1.231423
      13A     -1.101194    14A     -1.038905    15A     -0.953844
      16A     -0.840741    17A     -0.818830    18A     -0.774921
      19A     -0.763660    20A     -0.671286    21A     -0.658809
      22A     -0.641706    23A     -0.618657    24A     -0.601000
      25A     -0.583150    26A     -0.577416    27A     -0.561542
      28A     -0.542260    29A     -0.536299    30A     -0.433798
      31A     -0.414408    32A     -0.391772    33A     -0.330997

  @DF-RHF Final Energy:  -435.60147505048343

   => Energetics <=

    Nuclear Repulsion Energy =            429.3429111334566528
    One-Electron Energy =               -1445.0541674466885524
    Two-Electron Energy =                 580.1097812627483563
    Total Energy =                       -435.6014750504834865
  Basis Set: (AUG-CC-PVTZ AUX)
    Blend: AUG-CC-PVTZ-RI
    Molecular point group: c1

    Geometry (in Angstrom), charge = 0, multiplicity = 1:

       Center              X                  Y                   Z               Mass
    ------------   -----------------  -----------------  -----------------  -----------------
         O            0.946675211256    -1.095906305292     0.000000809572    15.994914619570
         O           -1.402706788744     1.600560694708     0.000004809572    15.994914619570
         N           -1.729557788744    -0.679475305292    -0.000003190428    14.003074004430
         C            0.493583211256     0.199418694708    -0.000004190428    12.000000000000
         C           -0.962513788744     0.446165694708    -0.000000190428    12.000000000000
         C            1.552814211256     1.070132694708    -0.000003190428    12.000000000000
         C            2.729038211256     0.270047694708    -0.000000190428    12.000000000000
         C            2.313937211256    -1.033308305292     0.000003809572    12.000000000000
         C           -3.177720788744    -0.618300305292     0.000000809572    12.000000000000
         H            1.470035411256     2.167928094708    -0.000009290428     1.007825032230
         H           -1.261399788744    -1.576219305292    -0.000008190428     1.007825032230
         H            3.755842211256     0.609557694708     0.000003809572     1.007825032230
         H            2.824293211256    -1.985093305292     0.000002809572     1.007825032230
         H           -3.453969788744     0.435739694708     0.000000809572     1.007825032230
         H           -3.590523788744    -1.099508305292     0.891316809572     1.007825032230
         H           -3.590527788744    -1.099508305292    -0.891314190428     1.007825032230

  Basis Set: AUG-CC-PVTZ
    Blend: AUG-CC-PVTZ
  Basis Set: (AUG-CC-PVTZ AUX)
    Blend: AUG-CC-PVTZ-JKFIT
	 Reference Energy          =    -435.6014750504834296 [Eh]
	 Singles Energy            =      -0.0000000000000000 [Eh]
	 Same-Spin Energy          =      -0.4478632744429136 [Eh]
	 Opposite-Spin Energy      =      -1.3715694785226440 [Eh]
	 Correlation Energy        =      -1.8194327529655576 [Eh]
	 Total Energy              =    -437.4209078034489835 [Eh]

	 ================> DF-SCS-MP2 Energies <==================
	-----------------------------------------------------------
	 SCS Same-Spin Scale       =       0.3333333333333333 [-]
	 SCS Opposite-Spin Scale   =       1.2000000000000000 [-]
	 SCS Same-Spin Energy      =      -0.1492877581476378 [Eh]
	 SCS Opposite-Spin Energy  =      -1.6458833742271728 [Eh]
	 SCS Correlation Energy    =      -1.7951711323748107 [Eh]
	 SCS Total Energy          =    -437.3966461828582624 [Eh]
	-----------------------------------------------------------

  Dipole Moment: [D]
     X:     1.0927      Y:    -3.2326      Z:    -0.0000     Total:     3.4123

*** Psi4 exiting successfully. Buy a developer a beer!
