                               Psi4 1.3.2 release

  ==> Input File <==

--------------------------------------------------------------------------
#psi4
#
memory 32 gb

molecule  {
0 1
  O        0.9755400    -1.0764940     0.0000010
  O       -1.3738420     1.6199730     0.0000050
  N       -1.7006930    -0.6600630    -0.0000030
  C        0.4775178     0.2022292    -0.0000041
  C       -0.9336490     0.4655780     0.0000000
  C        1.5816790     1.0895450    -0.0000030
  C        2.7579030     0.2894600     0.0000000
  C        2.3428020    -1.0138960     0.0000040
  C       -3.1488560    -0.5988880     0.0000010
  H        1.5004040     2.1673970    -0.0000090
  H       -1.2325350    -1.5568070    -0.0000080
  H        3.7847070     0.6289700     0.0000040
  H        2.8531580    -1.9656810     0.0000030
  H       -3.4251050     0.4551520     0.0000010
  H       -3.5616590    -1.0800960     0.8913170
  H       -3.5616630    -1.0800960    -0.8913140
units angstrom
no_reorient  #important for SAPT in psi4, default
symmetry c1  #important for SAPT in psi4, default
}

set PROPERTIES_ORIGIN ["COM"]
properties('MP2/aug-cc-pvtz', properties = ['dipole'])
--------------------------------------------------------------------------

    Molecular point group: c1
  Charge       = 0
  Multiplicity = 1
  Basis Set: AUG-CC-PVTZ
    Blend: AUG-CC-PVTZ
  Basis Set: (AUG-CC-PVTZ AUX)
    Blend: AUG-CC-PVTZ-JKFIT

    Orbital Energies [Eh]
    ---------------------

    Doubly Occupied:

       1A    -20.645545     2A    -20.514031     3A    -15.587067
       4A    -11.356695     5A    -11.316251     6A    -11.302832
       7A    -11.260347     8A    -11.258193     9A    -11.249889
      10A     -1.474019    11A     -1.370647    12A     -1.231034
      13A     -1.096250    14A     -1.043529    15A     -0.953282
      16A     -0.849242    17A     -0.817717    18A     -0.774842
      19A     -0.764418    20A     -0.676885    21A     -0.658960
      22A     -0.641544    23A     -0.617625    24A     -0.602124
      25A     -0.582437    26A     -0.579300    27A     -0.558882
      28A     -0.539597    29A     -0.536691    30A     -0.434580
      31A     -0.412077    32A     -0.391014    33A     -0.327033

  @DF-RHF Final Energy:  -435.59585940095832

   => Energetics <=

    Nuclear Repulsion Energy =            429.4674302597092037
    One-Electron Energy =               -1445.2774164495881450
    Two-Electron Energy =                 580.2141267889205665
    Total Energy =                       -435.5958594009583749
  Basis Set: (AUG-CC-PVTZ AUX)
    Blend: AUG-CC-PVTZ-RI
    Molecular point group: c1

    Geometry (in Angstrom), charge = 0, multiplicity = 1:

       Center              X                  Y                   Z               Mass
    ------------   -----------------  -----------------  -----------------  -----------------
         O            0.950974745956    -1.094152405816     0.000000818363    15.994914619570
         O           -1.398407254044     1.602314594184     0.000004818363    15.994914619570
         N           -1.725258254044    -0.677721405816    -0.000003181637    14.003074004430
         C            0.452952545956     0.184570794184    -0.000004281637    12.000000000000
         C           -0.958214254044     0.447919594184    -0.000000181637    12.000000000000
         C            1.557113745956     1.071886594184    -0.000003181637    12.000000000000
         C            2.733337745956     0.271801594184    -0.000000181637    12.000000000000
         C            2.318236745956    -1.031554405816     0.000003818363    12.000000000000
         C           -3.173421254044    -0.616546405816     0.000000818363    12.000000000000
         H            1.475838745956     2.149738594184    -0.000009181637     1.007825032230
         H           -1.257100254044    -1.574465405816    -0.000008181637     1.007825032230
         H            3.760141745956     0.611311594184     0.000003818363     1.007825032230
         H            2.828592745956    -1.983339405816     0.000002818363     1.007825032230
         H           -3.449670254044     0.437493594184     0.000000818363     1.007825032230
         H           -3.586224254044    -1.097754405816     0.891316818363     1.007825032230
         H           -3.586228254044    -1.097754405816    -0.891314181637     1.007825032230

  Basis Set: AUG-CC-PVTZ
    Blend: AUG-CC-PVTZ
  Basis Set: (AUG-CC-PVTZ AUX)
    Blend: AUG-CC-PVTZ-JKFIT
	 Reference Energy          =    -435.5958594009583180 [Eh]
	 Singles Energy            =      -0.0000000000000000 [Eh]
	 Same-Spin Energy          =      -0.4490961283153078 [Eh]
	 Opposite-Spin Energy      =      -1.3731624618946618 [Eh]
	 Correlation Energy        =      -1.8222585902099695 [Eh]
	 Total Energy              =    -437.4181179911682875 [Eh]

	 ================> DF-SCS-MP2 Energies <==================
	-----------------------------------------------------------
	 SCS Same-Spin Scale       =       0.3333333333333333 [-]
	 SCS Opposite-Spin Scale   =       1.2000000000000000 [-]
	 SCS Same-Spin Energy      =      -0.1496987094384359 [Eh]
	 SCS Opposite-Spin Energy  =      -1.6477949542735941 [Eh]
	 SCS Correlation Energy    =      -1.7974936637120300 [Eh]
	 SCS Total Energy          =    -437.3933530646703502 [Eh]
	-----------------------------------------------------------

  Dipole Moment: [D]
     X:     1.1825      Y:    -3.2968      Z:    -0.0000     Total:     3.5024

*** Psi4 exiting successfully. Buy a developer a beer!
