                               Psi4 1.3.2 release

  ==> Input File <==

--------------------------------------------------------------------------
#psi4
#
memory 32 gb

molecule  {
0 1
  O        0.9755400    -1.0764940     0.0000010
  O       -1.3738420     1.6199730     0.0000050
  N       -1.7006930    -0.6600630    -0.0000030
  C        0.5224480     0.2188310    -0.0000040
  C       -0.9336490     0.4655780     0.0000000
  C        1.5816790     1.0895450    -0.0000030
  C        2.7579030     0.2894600     0.0000000
  C        2.3885413    -1.0275888     0.0000043
  C       -3.1488560    -0.5988880     0.0000010
  H        1.5004040     2.1673970    -0.0000090
  H       -1.2325350    -1.5568070    -0.0000080
  H        3.7847070     0.6289700     0.0000040
  H        2.8531580    -1.9656810     0.0000030
  H       -3.4251050     0.4551520     0.0000010
  H       -3.5616590    -1.0800960     0.8913170
  H       -3.5616630    -1.0800960    -0.8913140
units angstrom
no_reorient  #important for SAPT in psi4, default
symmetry c1  #important for SAPT in psi4, default
}

set PROPERTIES_ORIGIN ["COM"]
properties('MP2/aug-cc-pvtz', properties = ['dipole'])
--------------------------------------------------------------------------

    Molecular point group: c1
  Charge       = 0
  Multiplicity = 1
  Basis Set: AUG-CC-PVTZ
    Blend: AUG-CC-PVTZ
  Basis Set: (AUG-CC-PVTZ AUX)
    Blend: AUG-CC-PVTZ-JKFIT

    Orbital Energies [Eh]
    ---------------------

    Doubly Occupied:

       1A    -20.636959     2A    -20.517102     3A    -15.589443
       4A    -11.361261     5A    -11.311317     6A    -11.304071
       7A    -11.259607     8A    -11.252364     9A    -11.251051
      10A     -1.456413    11A     -1.371645    12A     -1.231678
      13A     -1.099094    14A     -1.037396    15A     -0.955147
      16A     -0.844562    17A     -0.816389    18A     -0.775338
      19A     -0.760406    20A     -0.673548    21A     -0.650135
      22A     -0.642175    23A     -0.616963    24A     -0.600015
      25A     -0.587898    26A     -0.571498    27A     -0.565611
      28A     -0.542084    29A     -0.535993    30A     -0.434766
      31A     -0.414287    32A     -0.391858    33A     -0.331999

  @DF-RHF Final Energy:  -435.59762654402101

   => Energetics <=

    Nuclear Repulsion Energy =            428.4262852821967726
    One-Electron Energy =               -1443.2676805406881613
    Two-Electron Energy =                 579.2437687144704341
    Total Energy =                       -435.5976265440209545
  Basis Set: (AUG-CC-PVTZ AUX)
    Blend: AUG-CC-PVTZ-RI
    Molecular point group: c1

    Geometry (in Angstrom), charge = 0, multiplicity = 1:

       Center              X                  Y                   Z               Mass
    ------------   -----------------  -----------------  -----------------  -----------------
         O            0.942273792741    -1.094431563338     0.000000779977    15.994914619570
         O           -1.407108207259     1.602035436662     0.000004779977    15.994914619570
         N           -1.733959207259    -0.678000563338    -0.000003220023    14.003074004430
         C            0.489181792741     0.200893436662    -0.000004220023    12.000000000000
         C           -0.966915207259     0.447640436662    -0.000000220023    12.000000000000
         C            1.548412792741     1.071607436662    -0.000003220023    12.000000000000
         C            2.724636792741     0.271522436662    -0.000000220023    12.000000000000
         C            2.355275092741    -1.045526363338     0.000004079977    12.000000000000
         C           -3.182122207259    -0.616825563338     0.000000779977    12.000000000000
         H            1.467137792741     2.149459436662    -0.000009220023     1.007825032230
         H           -1.265801207259    -1.574744563338    -0.000008220023     1.007825032230
         H            3.751440792741     0.611032436662     0.000003779977     1.007825032230
         H            2.819891792741    -1.983618563338     0.000002779977     1.007825032230
         H           -3.458371207259     0.437214436662     0.000000779977     1.007825032230
         H           -3.594925207259    -1.098033563338     0.891316779977     1.007825032230
         H           -3.594929207259    -1.098033563338    -0.891314220023     1.007825032230

  Basis Set: AUG-CC-PVTZ
    Blend: AUG-CC-PVTZ
  Basis Set: (AUG-CC-PVTZ AUX)
    Blend: AUG-CC-PVTZ-JKFIT
	 Reference Energy          =    -435.5976265440210113 [Eh]
	 Singles Energy            =      -0.0000000000000000 [Eh]
	 Same-Spin Energy          =      -0.4480388183049517 [Eh]
	 Opposite-Spin Energy      =      -1.3727890855278551 [Eh]
	 Correlation Energy        =      -1.8208279038328068 [Eh]
	 Total Energy              =    -437.4184544478538328 [Eh]

	 ================> DF-SCS-MP2 Energies <==================
	-----------------------------------------------------------
	 SCS Same-Spin Scale       =       0.3333333333333333 [-]
	 SCS Opposite-Spin Scale   =       1.2000000000000000 [-]
	 SCS Same-Spin Energy      =      -0.1493462727683172 [Eh]
	 SCS Opposite-Spin Energy  =      -1.6473469026334260 [Eh]
	 SCS Correlation Energy    =      -1.7966931754017432 [Eh]
	 SCS Total Energy          =    -437.3943197194227537 [Eh]
	-----------------------------------------------------------

  Dipole Moment: [D]
     X:     1.1271      Y:    -3.2208      Z:    -0.0000     Total:     3.4123

*** Psi4 exiting successfully. Buy a developer a beer!
