                               Psi4 1.4a3.dev225

  ==> Input File <==

--------------------------------------------------------------------------
#psi4
#
memory 32 gb

molecule  {
0 1
  O        0.9755400    -1.0764940     0.0000010
  O       -1.3738420     1.6199730     0.0000050
  N       -1.7006930    -0.6600630    -0.0000030
  C        0.5158445     0.2377094    -0.0000041
  C       -0.9336490     0.4655780     0.0000000
  C        1.5816790     1.0895450    -0.0000030
  C        2.7579030     0.2894600     0.0000000
  C        2.3428020    -1.0138960     0.0000040
  C       -3.1488560    -0.5988880     0.0000010
  H        1.5004040     2.1673970    -0.0000090
  H       -1.2325350    -1.5568070    -0.0000080
  H        3.7847070     0.6289700     0.0000040
  H        2.8531580    -1.9656810     0.0000030
  H       -3.4251050     0.4551520     0.0000010
  H       -3.5616590    -1.0800960     0.8913170
  H       -3.5616630    -1.0800960    -0.8913140
units angstrom
no_reorient  #important for SAPT in psi4, default
symmetry c1  #important for SAPT in psi4, default
}

set PROPERTIES_ORIGIN ["COM"]
properties('MP2/aug-cc-pvtz', properties = ['dipole'])
--------------------------------------------------------------------------

    Molecular point group: c1
  Charge       = 0
  Multiplicity = 1
  Basis Set: AUG-CC-PVTZ
    Blend: AUG-CC-PVTZ
  Basis Set: (AUG-CC-PVTZ AUX)
    Blend: AUG-CC-PVTZ-JKFIT

    Orbital Energies [Eh]
    ---------------------

    Doubly Occupied:

       1A    -20.640738     2A    -20.515266     3A    -15.588930
       4A    -11.359924     5A    -11.313833     6A    -11.300705
       7A    -11.259385     8A    -11.253764     9A    -11.247791
      10A     -1.466633    11A     -1.371189    12A     -1.231218
      13A     -1.101938    14A     -1.039110    15A     -0.954007
      16A     -0.843285    17A     -0.817612    18A     -0.775253
      19A     -0.763298    20A     -0.671215    21A     -0.655001
      22A     -0.641903    23A     -0.618057    24A     -0.600408
      25A     -0.586360    26A     -0.574700    27A     -0.563887
      28A     -0.542193    29A     -0.536590    30A     -0.433985
      31A     -0.414887    32A     -0.391635    33A     -0.332247

  @DF-RHF Final Energy:  -435.60145346612012

   => Energetics <=

    Nuclear Repulsion Energy =            429.3184339515562442
    One-Electron Energy =               -1445.0258854349174271
    Two-Electron Energy =                 580.1059980172410633
    Total Energy =                       -435.6014534661201196
  Basis Set: (AUG-CC-PVTZ AUX)
    Blend: AUG-CC-PVTZ-RI
    Molecular point group: c1

    Geometry (in Angstrom), charge = 0, multiplicity = 1:

       Center              X                  Y                   Z               Mass
    ------------   -----------------  -----------------  -----------------  -----------------
         O            0.947296785632    -1.097557206331     0.000000818363    15.994914619570
         O           -1.402085214368     1.598909793669     0.000004818363    15.994914619570
         N           -1.728936214368    -0.681126206331    -0.000003181637    14.003074004430
         C            0.487601285632     0.216646193669    -0.000004281637    12.000000000000
         C           -0.961892214368     0.444514793669    -0.000000181637    12.000000000000
         C            1.553435785632     1.068481793669    -0.000003181637    12.000000000000
         C            2.729659785632     0.268396793669    -0.000000181637    12.000000000000
         C            2.314558785632    -1.034959206331     0.000003818363    12.000000000000
         C           -3.177099214368    -0.619951206331     0.000000818363    12.000000000000
         H            1.472160785632     2.146333793669    -0.000009181637     1.007825032230
         H           -1.260778214368    -1.577870206331    -0.000008181637     1.007825032230
         H            3.756463785632     0.607906793669     0.000003818363     1.007825032230
         H            2.824914785632    -1.986744206331     0.000002818363     1.007825032230
         H           -3.453348214368     0.434088793669     0.000000818363     1.007825032230
         H           -3.589902214368    -1.101159206331     0.891316818363     1.007825032230
         H           -3.589906214368    -1.101159206331    -0.891314181637     1.007825032230

  Basis Set: AUG-CC-PVTZ
    Blend: AUG-CC-PVTZ
  Basis Set: (AUG-CC-PVTZ AUX)
    Blend: AUG-CC-PVTZ-JKFIT
	 Reference Energy          =    -435.6014534661201196 [Eh]
	 Singles Energy            =      -0.0000000000000000 [Eh]
	 Same-Spin Energy          =      -0.4477819984132680 [Eh]
	 Opposite-Spin Energy      =      -1.3716324944025500 [Eh]
	 Correlation Energy        =      -1.8194144928158180 [Eh]
	 Total Energy              =    -437.4208679589359576 [Eh]

	 ================> DF-SCS-MP2 Energies <==================
	-----------------------------------------------------------
	 SCS Same-Spin Scale       =       0.3333333333333333 [-]
	 SCS Opposite-Spin Scale   =       1.2000000000000000 [-]
	 SCS Same-Spin Energy      =      -0.1492606661377560 [Eh]
	 SCS Opposite-Spin Energy  =      -1.6459589932830598 [Eh]
	 SCS Correlation Energy    =      -1.7952196594208158 [Eh]
	 SCS Total Energy          =    -437.3966731255409286 [Eh]
	-----------------------------------------------------------

  Dipole Moment: [D]
     X:     1.0995      Y:    -3.2088      Z:    -0.0000     Total:     3.3919

*** Psi4 exiting successfully. Buy a developer a beer!
