                               Psi4 1.3.2 release

  ==> Input File <==

--------------------------------------------------------------------------
#psi4
#
memory 32 gb

molecule  {
0 1
  O        0.9755400    -1.0764940     0.0000010
  O       -1.3738420     1.6199730     0.0000050
  N       -1.7006930    -0.6600630    -0.0000030
  C        0.5224480     0.2188310    -0.0000040
  C       -0.9336490     0.4655780     0.0000000
  C        1.4271789     0.9625421    -0.0000031
  C        2.7579030     0.2894600     0.0000000
  C        2.3428020    -1.0138960     0.0000040
  C       -3.1488560    -0.5988880     0.0000010
  H        1.5004040     2.1673970    -0.0000090
  H       -1.2325350    -1.5568070    -0.0000080
  H        3.7847070     0.6289700     0.0000040
  H        2.8531580    -1.9656810     0.0000030
  H       -3.4251050     0.4551520     0.0000010
  H       -3.5616590    -1.0800960     0.8913170
  H       -3.5616630    -1.0800960    -0.8913140
units angstrom
no_reorient  #important for SAPT in psi4, default
symmetry c1  #important for SAPT in psi4, default
}

set PROPERTIES_ORIGIN ["COM"]
properties('MP2/aug-cc-pvtz', properties = ['dipole'])
--------------------------------------------------------------------------

    Molecular point group: c1
  Charge       = 0
  Multiplicity = 1
  Basis Set: AUG-CC-PVTZ
    Blend: AUG-CC-PVTZ
  Basis Set: (AUG-CC-PVTZ AUX)
    Blend: AUG-CC-PVTZ-JKFIT

    Orbital Energies [Eh]
    ---------------------

    Doubly Occupied:

       1A    -20.627212     2A    -20.517767     3A    -15.590615
       4A    -11.361132     5A    -11.311699     6A    -11.272651
       7A    -11.260169     8A    -11.248529     9A    -11.235545
      10A     -1.473662    11A     -1.372649    12A     -1.232654
      13A     -1.119019    14A     -1.049296    15A     -0.960366
      16A     -0.835417    17A     -0.829560    18A     -0.773106
      19A     -0.748203    20A     -0.671305    21A     -0.664725
      22A     -0.644761    23A     -0.619494    24A     -0.608944
      25A     -0.593562    26A     -0.567385    27A     -0.543351
      28A     -0.538139    29A     -0.511918    30A     -0.435350
      31A     -0.423226    32A     -0.392896    33A     -0.355652

  @DF-RHF Final Energy:  -435.54342156951060

   => Energetics <=

    Nuclear Repulsion Energy =            433.4270018999354193
    One-Electron Energy =               -1453.1609241439430207
    Two-Electron Energy =                 584.1905006744968887
    Total Energy =                       -435.5434215695106559
  Basis Set: (AUG-CC-PVTZ AUX)
    Blend: AUG-CC-PVTZ-RI
    Molecular point group: c1

    Geometry (in Angstrom), charge = 0, multiplicity = 1:

       Center              X                  Y                   Z               Mass
    ------------   -----------------  -----------------  -----------------  -----------------
         O            0.961489445757    -1.083557941239     0.000000818363    15.994914619570
         O           -1.387892554243     1.612909058761     0.000004818363    15.994914619570
         N           -1.714743554243    -0.667126941239    -0.000003181637    14.003074004430
         C            0.508397445757     0.211767058761    -0.000004181637    12.000000000000
         C           -0.947699554243     0.458514058761    -0.000000181637    12.000000000000
         C            1.413128345757     0.955478158761    -0.000003281637    12.000000000000
         C            2.743852445757     0.282396058761    -0.000000181637    12.000000000000
         C            2.328751445757    -1.020959941239     0.000003818363    12.000000000000
         C           -3.162906554243    -0.605951941239     0.000000818363    12.000000000000
         H            1.486353445757     2.160333058761    -0.000009181637     1.007825032230
         H           -1.246585554243    -1.563870941239    -0.000008181637     1.007825032230
         H            3.770656445757     0.621906058761     0.000003818363     1.007825032230
         H            2.839107445757    -1.972744941239     0.000002818363     1.007825032230
         H           -3.439155554243     0.448088058761     0.000000818363     1.007825032230
         H           -3.575709554243    -1.087159941239     0.891316818363     1.007825032230
         H           -3.575713554243    -1.087159941239    -0.891314181637     1.007825032230

  Basis Set: AUG-CC-PVTZ
    Blend: AUG-CC-PVTZ
  Basis Set: (AUG-CC-PVTZ AUX)
    Blend: AUG-CC-PVTZ-JKFIT
	 Reference Energy          =    -435.5434215695105991 [Eh]
	 Singles Energy            =      -0.0000000000000000 [Eh]
	 Same-Spin Energy          =      -0.4449365402373536 [Eh]
	 Opposite-Spin Energy      =      -1.3677645160984861 [Eh]
	 Correlation Energy        =      -1.8127010563358397 [Eh]
	 Total Energy              =    -437.3561226258464103 [Eh]

	 ================> DF-SCS-MP2 Energies <==================
	-----------------------------------------------------------
	 SCS Same-Spin Scale       =       0.3333333333333333 [-]
	 SCS Opposite-Spin Scale   =       1.2000000000000000 [-]
	 SCS Same-Spin Energy      =      -0.1483121800791179 [Eh]
	 SCS Opposite-Spin Energy  =      -1.6413174193181834 [Eh]
	 SCS Correlation Energy    =      -1.7896295993973013 [Eh]
	 SCS Total Energy          =    -437.3330511689079003 [Eh]
	-----------------------------------------------------------

  Dipole Moment: [D]
     X:     1.0725      Y:    -3.1548      Z:    -0.0000     Total:     3.3321

*** Psi4 exiting successfully. Buy a developer a beer!
