                               Psi4 1.4a3.dev225

  ==> Input File <==

--------------------------------------------------------------------------
#psi4
#
memory 32 gb

molecule  {
0 1
  O        0.9755400    -1.0764940     0.0000010
  O       -1.3738420     1.6199730     0.0000050
  N       -1.7006930    -0.6600630    -0.0000030
  C        0.5224480     0.2188310    -0.0000040
  C       -0.9336490     0.4655780     0.0000000
  C        1.5816790     1.0895450    -0.0000030
  C        2.7413661     0.3007086    -0.0000000
  C        2.3428020    -1.0138960     0.0000040
  C       -3.1488560    -0.5988880     0.0000010
  H        1.5004040     2.1673970    -0.0000090
  H       -1.2325350    -1.5568070    -0.0000080
  H        3.7847070     0.6289700     0.0000040
  H        2.8531580    -1.9656810     0.0000030
  H       -3.4251050     0.4551520     0.0000010
  H       -3.5616590    -1.0800960     0.8913170
  H       -3.5616630    -1.0800960    -0.8913140
units angstrom
no_reorient  #important for SAPT in psi4, default
symmetry c1  #important for SAPT in psi4, default
}

set PROPERTIES_ORIGIN ["COM"]
properties('MP2/aug-cc-pvtz', properties = ['dipole'])
--------------------------------------------------------------------------

    Molecular point group: c1
  Charge       = 0
  Multiplicity = 1
  Basis Set: AUG-CC-PVTZ
    Blend: AUG-CC-PVTZ
  Basis Set: (AUG-CC-PVTZ AUX)
    Blend: AUG-CC-PVTZ-JKFIT

    Orbital Energies [Eh]
    ---------------------

    Doubly Occupied:

       1A    -20.644486     2A    -20.515752     3A    -15.588812
       4A    -11.360307     5A    -11.312901     6A    -11.301285
       7A    -11.259301     8A    -11.250871     9A    -11.247903
      10A     -1.475034    11A     -1.370926    12A     -1.231302
      13A     -1.104800    14A     -1.038301    15A     -0.953531
      16A     -0.841916    17A     -0.818300    18A     -0.775897
      19A     -0.764883    20A     -0.671927    21A     -0.659022
      22A     -0.641283    23A     -0.618584    24A     -0.600486
      25A     -0.587203    26A     -0.574326    27A     -0.564612
      28A     -0.542381    29A     -0.536201    30A     -0.433731
      31A     -0.416618    32A     -0.391794    33A     -0.328984

  @DF-RHF Final Energy:  -435.60086183110229

   => Energetics <=

    Nuclear Repulsion Energy =            429.7160320371102671
    One-Electron Energy =               -1445.7864653568080939
    Two-Electron Energy =                 580.4695714885955340
    Total Energy =                       -435.6008618311022929
  Basis Set: (AUG-CC-PVTZ AUX)
    Blend: AUG-CC-PVTZ-RI
    Molecular point group: c1

    Geometry (in Angstrom), charge = 0, multiplicity = 1:

       Center              X                  Y                   Z               Mass
    ------------   -----------------  -----------------  -----------------  -----------------
         O            0.948250028439    -1.096825024805     0.000000808766    15.994914619570
         O           -1.401131971561     1.599641975195     0.000004808766    15.994914619570
         N           -1.727982971561    -0.680394024805    -0.000003191234    14.003074004430
         C            0.495158028439     0.198499975195    -0.000004191234    12.000000000000
         C           -0.960938971561     0.445246975195    -0.000000191234    12.000000000000
         C            1.554389028439     1.069213975195    -0.000003191234    12.000000000000
         C            2.714076128439     0.280377575195    -0.000000191234    12.000000000000
         C            2.315512028439    -1.034227024805     0.000003808766    12.000000000000
         C           -3.176145971561    -0.619219024805     0.000000808766    12.000000000000
         H            1.473114028439     2.147065975195    -0.000009191234     1.007825032230
         H           -1.259824971561    -1.577138024805    -0.000008191234     1.007825032230
         H            3.757417028439     0.608638975195     0.000003808766     1.007825032230
         H            2.825868028439    -1.986012024805     0.000002808766     1.007825032230
         H           -3.452394971561     0.434820975195     0.000000808766     1.007825032230
         H           -3.588948971561    -1.100427024805     0.891316808766     1.007825032230
         H           -3.588952971561    -1.100427024805    -0.891314191234     1.007825032230

  Basis Set: AUG-CC-PVTZ
    Blend: AUG-CC-PVTZ
  Basis Set: (AUG-CC-PVTZ AUX)
    Blend: AUG-CC-PVTZ-JKFIT
	 Reference Energy          =    -435.6008618311022929 [Eh]
	 Singles Energy            =      -0.0000000000000000 [Eh]
	 Same-Spin Energy          =      -0.4482904517368844 [Eh]
	 Opposite-Spin Energy      =      -1.3718621714311374 [Eh]
	 Correlation Energy        =      -1.8201526231680218 [Eh]
	 Total Energy              =    -437.4210144542703347 [Eh]

	 ================> DF-SCS-MP2 Energies <==================
	-----------------------------------------------------------
	 SCS Same-Spin Scale       =       0.3333333333333333 [-]
	 SCS Opposite-Spin Scale   =       1.2000000000000000 [-]
	 SCS Same-Spin Energy      =      -0.1494301505789615 [Eh]
	 SCS Opposite-Spin Energy  =      -1.6462346057173649 [Eh]
	 SCS Correlation Energy    =      -1.7956647562963264 [Eh]
	 SCS Total Energy          =    -437.3965265873986255 [Eh]
	-----------------------------------------------------------

  Dipole Moment: [D]
     X:     1.0960      Y:    -3.2429      Z:    -0.0000     Total:     3.4232

*** Psi4 exiting successfully. Buy a developer a beer!
