                               Psi4 1.3.2 release

  ==> Input File <==

--------------------------------------------------------------------------
#psi4
#
memory 32 gb

molecule  {
0 1
  O        0.9755400    -1.0764940     0.0000010
  O       -1.3738420     1.6199730     0.0000050
  N       -1.7006930    -0.6600630    -0.0000030
  C        0.5224480     0.2188310    -0.0000040
  C       -0.9336490     0.4655780     0.0000000
  C        1.6403553     1.1696453    -0.0000027
  C        2.7579030     0.2894600     0.0000000
  C        2.3428020    -1.0138960     0.0000040
  C       -3.1488560    -0.5988880     0.0000010
  H        1.5004040     2.1673970    -0.0000090
  H       -1.2325350    -1.5568070    -0.0000080
  H        3.7847070     0.6289700     0.0000040
  H        2.8531580    -1.9656810     0.0000030
  H       -3.4251050     0.4551520     0.0000010
  H       -3.5616590    -1.0800960     0.8913170
  H       -3.5616630    -1.0800960    -0.8913140
units angstrom
no_reorient  #important for SAPT in psi4, default
symmetry c1  #important for SAPT in psi4, default
}

set PROPERTIES_ORIGIN ["COM"]
properties('MP2/aug-cc-pvtz', properties = ['dipole'])
--------------------------------------------------------------------------

    Molecular point group: c1
  Charge       = 0
  Multiplicity = 1
  Basis Set: AUG-CC-PVTZ
    Blend: AUG-CC-PVTZ
  Basis Set: (AUG-CC-PVTZ AUX)
    Blend: AUG-CC-PVTZ-JKFIT

    Orbital Energies [Eh]
    ---------------------

    Doubly Occupied:

       1A    -20.651652     2A    -20.515589     3A    -15.588667
       4A    -11.360120     5A    -11.313979     6A    -11.312605
       7A    -11.260736     8A    -11.259236     9A    -11.251667
      10A     -1.475967    11A     -1.370720    12A     -1.231210
      13A     -1.095291    14A     -1.034037    15A     -0.951955
      16A     -0.846705    17A     -0.821127    18A     -0.776617
      19A     -0.765588    20A     -0.675933    21A     -0.657746
      22A     -0.640489    23A     -0.618575    24A     -0.610516
      25A     -0.599308    26A     -0.579094    27A     -0.550656
      28A     -0.537724    29A     -0.535950    30A     -0.433360
      31A     -0.412561    32A     -0.391640    33A     -0.320132

  @DF-RHF Final Energy:  -435.58312763119886

   => Energetics <=

    Nuclear Repulsion Energy =            427.5091325959235178
    One-Electron Energy =               -1441.2902174810324141
    Two-Electron Energy =                 578.1979572539099763
    Total Energy =                       -435.5831276311988631
  Basis Set: (AUG-CC-PVTZ AUX)
    Blend: AUG-CC-PVTZ-RI
    Molecular point group: c1

    Geometry (in Angstrom), charge = 0, multiplicity = 1:

       Center              X                  Y                   Z               Mass
    ------------   -----------------  -----------------  -----------------  -----------------
         O            0.941032314275    -1.103432267819     0.000000779977    15.994914619570
         O           -1.408349685725     1.593034732181     0.000004779977    15.994914619570
         N           -1.735200685725    -0.687001267819    -0.000003220023    14.003074004430
         C            0.487940314275     0.191892732181    -0.000004220023    12.000000000000
         C           -0.968156685725     0.438639732181    -0.000000220023    12.000000000000
         C            1.605847614275     1.142707032181    -0.000002920023    12.000000000000
         C            2.723395314275     0.262521732181    -0.000000220023    12.000000000000
         C            2.308294314275    -1.040834267819     0.000003779977    12.000000000000
         C           -3.183363685725    -0.625826267819     0.000000779977    12.000000000000
         H            1.465896314275     2.140458732181    -0.000009220023     1.007825032230
         H           -1.267042685725    -1.583745267819    -0.000008220023     1.007825032230
         H            3.750199314275     0.602031732181     0.000003779977     1.007825032230
         H            2.818650314275    -1.992619267819     0.000002779977     1.007825032230
         H           -3.459612685725     0.428213732181     0.000000779977     1.007825032230
         H           -3.596166685725    -1.107034267819     0.891316779977     1.007825032230
         H           -3.596170685725    -1.107034267819    -0.891314220023     1.007825032230

  Basis Set: AUG-CC-PVTZ
    Blend: AUG-CC-PVTZ
  Basis Set: (AUG-CC-PVTZ AUX)
    Blend: AUG-CC-PVTZ-JKFIT
	 Reference Energy          =    -435.5831276311988631 [Eh]
	 Singles Energy            =      -0.0000000000000000 [Eh]
	 Same-Spin Energy          =      -0.4498021741919013 [Eh]
	 Opposite-Spin Energy      =      -1.3750226303405766 [Eh]
	 Correlation Energy        =      -1.8248248045324780 [Eh]
	 Total Energy              =    -437.4079524357313176 [Eh]

	 ================> DF-SCS-MP2 Energies <==================
	-----------------------------------------------------------
	 SCS Same-Spin Scale       =       0.3333333333333333 [-]
	 SCS Opposite-Spin Scale   =       1.2000000000000000 [-]
	 SCS Same-Spin Energy      =      -0.1499340580639671 [Eh]
	 SCS Opposite-Spin Energy  =      -1.6500271564086919 [Eh]
	 SCS Correlation Energy    =      -1.7999612144726589 [Eh]
	 SCS Total Energy          =    -437.3830888456715229 [Eh]
	-----------------------------------------------------------

  Dipole Moment: [D]
     X:     1.0855      Y:    -3.2813      Z:    -0.0000     Total:     3.4562

*** Psi4 exiting successfully. Buy a developer a beer!
