                               Psi4 1.3.2 release

  ==> Input File <==

--------------------------------------------------------------------------
#psi4
#
memory 32 gb

molecule  {
0 1
  O        0.9755400    -1.0764940     0.0000010
  O       -1.2922432     1.6478673     0.0000049
  N       -1.7006930    -0.6600630    -0.0000030
  C        0.5224480     0.2188310    -0.0000040
  C       -0.9336490     0.4655780     0.0000000
  C        1.5816790     1.0895450    -0.0000030
  C        2.7579030     0.2894600     0.0000000
  C        2.3428020    -1.0138960     0.0000040
  C       -3.1488560    -0.5988880     0.0000010
  H        1.5004040     2.1673970    -0.0000090
  H       -1.2325350    -1.5568070    -0.0000080
  H        3.7847070     0.6289700     0.0000040
  H        2.8531580    -1.9656810     0.0000030
  H       -3.4251050     0.4551520     0.0000010
  H       -3.5616590    -1.0800960     0.8913170
  H       -3.5616630    -1.0800960    -0.8913140
units angstrom
no_reorient  #important for SAPT in psi4, default
symmetry c1  #important for SAPT in psi4, default
}

set PROPERTIES_ORIGIN ["COM"]
properties('MP2/aug-cc-pvtz', properties = ['dipole'])
--------------------------------------------------------------------------

    Molecular point group: c1
  Charge       = 0
  Multiplicity = 1
  Basis Set: AUG-CC-PVTZ
    Blend: AUG-CC-PVTZ
  Basis Set: (AUG-CC-PVTZ AUX)
    Blend: AUG-CC-PVTZ-JKFIT

    Orbital Energies [Eh]
    ---------------------

    Doubly Occupied:

       1A    -20.640760     2A    -20.517561     3A    -15.593426
       4A    -11.361392     5A    -11.309662     6A    -11.297759
       7A    -11.262969     8A    -11.249067     9A    -11.245719
      10A     -1.471871    11A     -1.371288    12A     -1.236957
      13A     -1.098626    14A     -1.036273    15A     -0.955876
      16A     -0.840277    17A     -0.816951    18A     -0.777429
      19A     -0.763110    20A     -0.670220    21A     -0.656903
      22A     -0.644037    23A     -0.620743    24A     -0.600258
      25A     -0.583909    26A     -0.576059    27A     -0.559902
      28A     -0.545749    29A     -0.538104    30A     -0.433480
      31A     -0.412298    32A     -0.394982    33A     -0.327896

  @DF-RHF Final Energy:  -435.60048653515844

   => Energetics <=

    Nuclear Repulsion Energy =            429.6196272652921380
    One-Electron Energy =               -1445.6171959636392330
    Two-Electron Energy =                 580.3970821631886565
    Total Energy =                       -435.6004865351584385
  Basis Set: (AUG-CC-PVTZ AUX)
    Blend: AUG-CC-PVTZ-RI
    Molecular point group: c1

    Geometry (in Angstrom), charge = 0, multiplicity = 1:

       Center              X                  Y                   Z               Mass
    ------------   -----------------  -----------------  -----------------  -----------------
         O            0.936225745721    -1.099313545589     0.000000821557    15.994914619570
         O           -1.331557454279     1.625047754411     0.000004721557    15.994914619570
         N           -1.740007254279    -0.682882545589    -0.000003178443    14.003074004430
         C            0.483133745721     0.196011454411    -0.000004178443    12.000000000000
         C           -0.972963254279     0.442758454411    -0.000000178443    12.000000000000
         C            1.542364745721     1.066725454411    -0.000003178443    12.000000000000
         C            2.718588745721     0.266640454411    -0.000000178443    12.000000000000
         C            2.303487745721    -1.036715545589     0.000003821557    12.000000000000
         C           -3.188170254279    -0.621707545589     0.000000821557    12.000000000000
         H            1.461089745721     2.144577454411    -0.000009178443     1.007825032230
         H           -1.271849254279    -1.579626545589    -0.000008178443     1.007825032230
         H            3.745392745721     0.606150454411     0.000003821557     1.007825032230
         H            2.813843745721    -1.988500545589     0.000002821557     1.007825032230
         H           -3.464419254279     0.432332454411     0.000000821557     1.007825032230
         H           -3.600973254279    -1.102915545589     0.891316821557     1.007825032230
         H           -3.600977254279    -1.102915545589    -0.891314178443     1.007825032230

  Basis Set: AUG-CC-PVTZ
    Blend: AUG-CC-PVTZ
  Basis Set: (AUG-CC-PVTZ AUX)
    Blend: AUG-CC-PVTZ-JKFIT
	 Reference Energy          =    -435.6004865351584385 [Eh]
	 Singles Energy            =      -0.0000000000000000 [Eh]
	 Same-Spin Energy          =      -0.4478262134862675 [Eh]
	 Opposite-Spin Energy      =      -1.3715825684453846 [Eh]
	 Correlation Energy        =      -1.8194087819316520 [Eh]
	 Total Energy              =    -437.4198953170900950 [Eh]

	 ================> DF-SCS-MP2 Energies <==================
	-----------------------------------------------------------
	 SCS Same-Spin Scale       =       0.3333333333333333 [-]
	 SCS Opposite-Spin Scale   =       1.2000000000000000 [-]
	 SCS Same-Spin Energy      =      -0.1492754044954225 [Eh]
	 SCS Opposite-Spin Energy  =      -1.6458990821344615 [Eh]
	 SCS Correlation Energy    =      -1.7951744866298840 [Eh]
	 SCS Total Energy          =    -437.3956610217883281 [Eh]
	-----------------------------------------------------------

  Dipole Moment: [D]
     X:     0.7764      Y:    -3.2907      Z:    -0.0000     Total:     3.3811

*** Psi4 exiting successfully. Buy a developer a beer!
