                               Psi4 1.3.2 release

  ==> Input File <==

--------------------------------------------------------------------------
#psi4
#
memory 32 gb

molecule  {
0 1
  O        0.9755400    -1.0764940     0.0000010
  O       -1.3738420     1.6199730     0.0000050
  N       -1.7006930    -0.6600630    -0.0000030
  C        0.4999105     0.2107262    -0.0000040
  C       -0.9336490     0.4655780     0.0000000
  C        1.5816790     1.0895450    -0.0000030
  C        2.7579030     0.2894600     0.0000000
  C        2.3428020    -1.0138960     0.0000040
  C       -3.1488560    -0.5988880     0.0000010
  H        1.5004040     2.1673970    -0.0000090
  H       -1.2325350    -1.5568070    -0.0000080
  H        3.7847070     0.6289700     0.0000040
  H        2.8531580    -1.9656810     0.0000030
  H       -3.4251050     0.4551520     0.0000010
  H       -3.5616590    -1.0800960     0.8913170
  H       -3.5616630    -1.0800960    -0.8913140
units angstrom
no_reorient  #important for SAPT in psi4, default
symmetry c1  #important for SAPT in psi4, default
}

set PROPERTIES_ORIGIN ["COM"]
properties('MP2/aug-cc-pvtz', properties = ['dipole'])
--------------------------------------------------------------------------

    Molecular point group: c1
  Charge       = 0
  Multiplicity = 1
  Basis Set: AUG-CC-PVTZ
    Blend: AUG-CC-PVTZ
  Basis Set: (AUG-CC-PVTZ AUX)
    Blend: AUG-CC-PVTZ-JKFIT

    Orbital Energies [Eh]
    ---------------------

    Doubly Occupied:

       1A    -20.644557     2A    -20.515027     3A    -15.588108
       4A    -11.358709     5A    -11.314337     6A    -11.302197
       7A    -11.258841     8A    -11.256429     9A    -11.248926
      10A     -1.474196    11A     -1.370902    12A     -1.231275
      13A     -1.098612    14A     -1.041247    15A     -0.953645
      16A     -0.845195    17A     -0.818630    18A     -0.775181
      19A     -0.764680    20A     -0.674183    21A     -0.658812
      22A     -0.641688    23A     -0.618178    24A     -0.601639
      25A     -0.584126    26A     -0.578341    27A     -0.560680
      28A     -0.541109    29A     -0.536542    30A     -0.434356
      31A     -0.413068    32A     -0.391443    33A     -0.329029

  @DF-RHF Final Energy:  -435.59985435772785

   => Energetics <=

    Nuclear Repulsion Energy =            429.4485521973522282
    One-Electron Energy =               -1445.2490347389489216
    Two-Electron Energy =                 580.2006281838688437
    Total Energy =                       -435.5998543577278497
  Basis Set: (AUG-CC-PVTZ AUX)
    Blend: AUG-CC-PVTZ-RI
    Molecular point group: c1

    Geometry (in Angstrom), charge = 0, multiplicity = 1:

       Center              X                  Y                   Z               Mass
    ------------   -----------------  -----------------  -----------------  -----------------
         O            0.948825866398    -1.094967806799     0.000000808766    15.994914619570
         O           -1.400556133602     1.601499193201     0.000004808766    15.994914619570
         N           -1.727407133602    -0.678536806799    -0.000003191234    14.003074004430
         C            0.473196366398     0.192252393201    -0.000004191234    12.000000000000
         C           -0.960363133602     0.447104193201    -0.000000191234    12.000000000000
         C            1.554964866398     1.071071193201    -0.000003191234    12.000000000000
         C            2.731188866398     0.270986193201    -0.000000191234    12.000000000000
         C            2.316087866398    -1.032369806799     0.000003808766    12.000000000000
         C           -3.175570133602    -0.617361806799     0.000000808766    12.000000000000
         H            1.473689866398     2.148923193201    -0.000009191234     1.007825032230
         H           -1.259249133602    -1.575280806799    -0.000008191234     1.007825032230
         H            3.757992866398     0.610496193201     0.000003808766     1.007825032230
         H            2.826443866398    -1.984154806799     0.000002808766     1.007825032230
         H           -3.451819133602     0.436678193201     0.000000808766     1.007825032230
         H           -3.588373133602    -1.098569806799     0.891316808766     1.007825032230
         H           -3.588377133602    -1.098569806799    -0.891314191234     1.007825032230

  Basis Set: AUG-CC-PVTZ
    Blend: AUG-CC-PVTZ
  Basis Set: (AUG-CC-PVTZ AUX)
    Blend: AUG-CC-PVTZ-JKFIT
	 Reference Energy          =    -435.5998543577278497 [Eh]
	 Singles Energy            =      -0.0000000000000000 [Eh]
	 Same-Spin Energy          =      -0.4484327543651673 [Eh]
	 Opposite-Spin Energy      =      -1.3722436206868125 [Eh]
	 Correlation Energy        =      -1.8206763750519799 [Eh]
	 Total Energy              =    -437.4205307327798096 [Eh]

	 ================> DF-SCS-MP2 Energies <==================
	-----------------------------------------------------------
	 SCS Same-Spin Scale       =       0.3333333333333333 [-]
	 SCS Opposite-Spin Scale   =       1.2000000000000000 [-]
	 SCS Same-Spin Energy      =      -0.1494775847883891 [Eh]
	 SCS Opposite-Spin Energy  =      -1.6466923448241750 [Eh]
	 SCS Correlation Energy    =      -1.7961699296125642 [Eh]
	 SCS Total Energy          =    -437.3960242873404241 [Eh]
	-----------------------------------------------------------

  Dipole Moment: [D]
     X:     1.1367      Y:    -3.2671      Z:    -0.0000     Total:     3.4592

*** Psi4 exiting successfully. Buy a developer a beer!
