                               Psi4 1.3.2 release

  ==> Input File <==

--------------------------------------------------------------------------
#psi4
#
memory 32 gb

molecule  {
0 1
  O        0.9755400    -1.0764940     0.0000010
  O       -1.4138617     1.6039073     0.0000050
  N       -1.7006930    -0.6600630    -0.0000030
  C        0.5224480     0.2188310    -0.0000040
  C       -0.9336490     0.4655780     0.0000000
  C        1.5816790     1.0895450    -0.0000030
  C        2.7579030     0.2894600     0.0000000
  C        2.3428020    -1.0138960     0.0000040
  C       -3.1488560    -0.5988880     0.0000010
  H        1.5004040     2.1673970    -0.0000090
  H       -1.2325350    -1.5568070    -0.0000080
  H        3.7847070     0.6289700     0.0000040
  H        2.8531580    -1.9656810     0.0000030
  H       -3.4251050     0.4551520     0.0000010
  H       -3.5616590    -1.0800960     0.8913170
  H       -3.5616630    -1.0800960    -0.8913140
units angstrom
no_reorient  #important for SAPT in psi4, default
symmetry c1  #important for SAPT in psi4, default
}

set PROPERTIES_ORIGIN ["COM"]
properties('MP2/aug-cc-pvtz', properties = ['dipole'])
--------------------------------------------------------------------------

    Molecular point group: c1
  Charge       = 0
  Multiplicity = 1
  Basis Set: AUG-CC-PVTZ
    Blend: AUG-CC-PVTZ
  Basis Set: (AUG-CC-PVTZ AUX)
    Blend: AUG-CC-PVTZ-JKFIT

    Orbital Energies [Eh]
    ---------------------

    Doubly Occupied:

       1A    -20.644962     2A    -20.514941     3A    -15.586777
       4A    -11.360104     5A    -11.313990     6A    -11.303278
       7A    -11.257532     8A    -11.254186     9A    -11.249165
      10A     -1.475658    11A     -1.371151    12A     -1.228561
      13A     -1.102902    14A     -1.040305    15A     -0.952973
      16A     -0.841568    17A     -0.820915    18A     -0.774530
      19A     -0.765502    20A     -0.672290    21A     -0.659695
      22A     -0.640658    23A     -0.617584    24A     -0.601547
      25A     -0.587793    26A     -0.578102    27A     -0.562594
      28A     -0.540177    29A     -0.535455    30A     -0.433662
      31A     -0.415458    32A     -0.390076    33A     -0.332422

  @DF-RHF Final Energy:  -435.60187119092984

   => Energetics <=

    Nuclear Repulsion Energy =            429.3989366998650894
    One-Electron Energy =               -1445.1485874775407865
    Two-Electron Energy =                 580.1477795867458553
    Total Energy =                       -435.6018711909298418
  Basis Set: (AUG-CC-PVTZ AUX)
    Blend: AUG-CC-PVTZ-RI
    Molecular point group: c1

    Geometry (in Angstrom), charge = 0, multiplicity = 1:

       Center              X                  Y                   Z               Mass
    ------------   -----------------  -----------------  -----------------  -----------------
         O            0.951782032311    -1.093690598764     0.000000808766    15.994914619570
         O           -1.437619667689     1.586710701236     0.000004808766    15.994914619570
         N           -1.724450967689    -0.677259598764    -0.000003191234    14.003074004430
         C            0.498690032311     0.201634401236    -0.000004191234    12.000000000000
         C           -0.957406967689     0.448381401236    -0.000000191234    12.000000000000
         C            1.557921032311     1.072348401236    -0.000003191234    12.000000000000
         C            2.734145032311     0.272263401236    -0.000000191234    12.000000000000
         C            2.319044032311    -1.031092598764     0.000003808766    12.000000000000
         C           -3.172613967689    -0.616084598764     0.000000808766    12.000000000000
         H            1.476646032311     2.150200401236    -0.000009191234     1.007825032230
         H           -1.256292967689    -1.574003598764    -0.000008191234     1.007825032230
         H            3.760949032311     0.611773401236     0.000003808766     1.007825032230
         H            2.829400032311    -1.982877598764     0.000002808766     1.007825032230
         H           -3.448862967689     0.437955401236     0.000000808766     1.007825032230
         H           -3.585416967689    -1.097292598764     0.891316808766     1.007825032230
         H           -3.585420967689    -1.097292598764    -0.891314191234     1.007825032230

  Basis Set: AUG-CC-PVTZ
    Blend: AUG-CC-PVTZ
  Basis Set: (AUG-CC-PVTZ AUX)
    Blend: AUG-CC-PVTZ-JKFIT
	 Reference Energy          =    -435.6018711909298418 [Eh]
	 Singles Energy            =      -0.0000000000000000 [Eh]
	 Same-Spin Energy          =      -0.4478701727371542 [Eh]
	 Opposite-Spin Energy      =      -1.3714236465737701 [Eh]
	 Correlation Energy        =      -1.8192938193109245 [Eh]
	 Total Energy              =    -437.4211650102407702 [Eh]

	 ================> DF-SCS-MP2 Energies <==================
	-----------------------------------------------------------
	 SCS Same-Spin Scale       =       0.3333333333333333 [-]
	 SCS Opposite-Spin Scale   =       1.2000000000000000 [-]
	 SCS Same-Spin Energy      =      -0.1492900575790514 [Eh]
	 SCS Opposite-Spin Energy  =      -1.6457083758885240 [Eh]
	 SCS Correlation Energy    =      -1.7949984334675755 [Eh]
	 SCS Total Energy          =    -437.3968696243974250 [Eh]
	-----------------------------------------------------------

  Dipole Moment: [D]
     X:     1.2461      Y:    -3.2033      Z:    -0.0000     Total:     3.4371

*** Psi4 exiting successfully. Buy a developer a beer!
