                               Psi4 1.3.2 release

  ==> Input File <==

--------------------------------------------------------------------------
#psi4
#
memory 32 gb

molecule  {
0 1
  O        0.9755400    -1.0764940     0.0000010
  O       -1.4920977     1.5676364     0.0000051
  N       -1.7006930    -0.6600630    -0.0000030
  C        0.5224480     0.2188310    -0.0000040
  C       -0.9336490     0.4655780     0.0000000
  C        1.5816790     1.0895450    -0.0000030
  C        2.7579030     0.2894600     0.0000000
  C        2.3428020    -1.0138960     0.0000040
  C       -3.1488560    -0.5988880     0.0000010
  H        1.5004040     2.1673970    -0.0000090
  H       -1.2325350    -1.5568070    -0.0000080
  H        3.7847070     0.6289700     0.0000040
  H        2.8531580    -1.9656810     0.0000030
  H       -3.4251050     0.4551520     0.0000010
  H       -3.5616590    -1.0800960     0.8913170
  H       -3.5616630    -1.0800960    -0.8913140
units angstrom
no_reorient  #important for SAPT in psi4, default
symmetry c1  #important for SAPT in psi4, default
}

set PROPERTIES_ORIGIN ["COM"]
properties('MP2/aug-cc-pvtz', properties = ['dipole'])
--------------------------------------------------------------------------

    Molecular point group: c1
  Charge       = 0
  Multiplicity = 1
  Basis Set: AUG-CC-PVTZ
    Blend: AUG-CC-PVTZ
  Basis Set: (AUG-CC-PVTZ AUX)
    Blend: AUG-CC-PVTZ-JKFIT

    Orbital Energies [Eh]
    ---------------------

    Doubly Occupied:

       1A    -20.647528     2A    -20.512901     3A    -15.582233
       4A    -11.359478     5A    -11.316676     6A    -11.306917
       7A    -11.257386     8A    -11.253603     9A    -11.251285
      10A     -1.478001    11A     -1.371887    12A     -1.222491
      13A     -1.105576    14A     -1.042840    15A     -0.950997
      16A     -0.842387    17A     -0.823378    18A     -0.773541
      19A     -0.765717    20A     -0.673828    21A     -0.661557
      22A     -0.638505    23A     -0.615376    24A     -0.602810
      25A     -0.590250    26A     -0.579325    27A     -0.564345
      28A     -0.535442    29A     -0.533702    30A     -0.432470
      31A     -0.417633    32A     -0.386447    33A     -0.335167

  @DF-RHF Final Energy:  -435.59909037196468

   => Energetics <=

    Nuclear Repulsion Energy =            429.4039245255863193
    One-Electron Energy =               -1445.1426720353304063
    Two-Electron Energy =                 580.1396571377795226
    Total Energy =                       -435.5990903719646212
  Basis Set: (AUG-CC-PVTZ AUX)
    Blend: AUG-CC-PVTZ-RI
    Molecular point group: c1

    Geometry (in Angstrom), charge = 0, multiplicity = 1:

       Center              X                  Y                   Z               Mass
    ------------   -----------------  -----------------  -----------------  -----------------
         O            0.961789240406    -1.089051168782     0.000000795975    15.994914619570
         O           -1.505848459594     1.555079231218     0.000004895975    15.994914619570
         N           -1.714443759594    -0.672620168782    -0.000003204025    14.003074004430
         C            0.508697240406     0.206273831218    -0.000004204025    12.000000000000
         C           -0.947399759594     0.453020831218    -0.000000204025    12.000000000000
         C            1.567928240406     1.076987831218    -0.000003204025    12.000000000000
         C            2.744152240406     0.276902831218    -0.000000204025    12.000000000000
         C            2.329051240406    -1.026453168782     0.000003795975    12.000000000000
         C           -3.162606759594    -0.611445168782     0.000000795975    12.000000000000
         H            1.486653240406     2.154839831218    -0.000009204025     1.007825032230
         H           -1.246285759594    -1.569364168782    -0.000008204025     1.007825032230
         H            3.770956240406     0.616412831218     0.000003795975     1.007825032230
         H            2.839407240406    -1.978238168782     0.000002795975     1.007825032230
         H           -3.438855759594     0.442594831218     0.000000795975     1.007825032230
         H           -3.575409759594    -1.092653168782     0.891316795975     1.007825032230
         H           -3.575413759594    -1.092653168782    -0.891314204025     1.007825032230

  Basis Set: AUG-CC-PVTZ
    Blend: AUG-CC-PVTZ
  Basis Set: (AUG-CC-PVTZ AUX)
    Blend: AUG-CC-PVTZ-JKFIT
	 Reference Energy          =    -435.5990903719646781 [Eh]
	 Singles Energy            =      -0.0000000000000000 [Eh]
	 Same-Spin Energy          =      -0.4480726197364375 [Eh]
	 Opposite-Spin Energy      =      -1.3716024036713574 [Eh]
	 Correlation Energy        =      -1.8196750234077950 [Eh]
	 Total Energy              =    -437.4187653953724748 [Eh]

	 ================> DF-SCS-MP2 Energies <==================
	-----------------------------------------------------------
	 SCS Same-Spin Scale       =       0.3333333333333333 [-]
	 SCS Opposite-Spin Scale   =       1.2000000000000000 [-]
	 SCS Same-Spin Energy      =      -0.1493575399121458 [Eh]
	 SCS Opposite-Spin Energy  =      -1.6459228844056288 [Eh]
	 SCS Correlation Energy    =      -1.7952804243177747 [Eh]
	 SCS Total Energy          =    -437.3943707962824305 [Eh]
	-----------------------------------------------------------

  Dipole Moment: [D]
     X:     1.5473      Y:    -3.1207      Z:    -0.0000     Total:     3.4832

*** Psi4 exiting successfully. Buy a developer a beer!
