                               Psi4 1.3.2 release

  ==> Input File <==

--------------------------------------------------------------------------
#psi4
#
memory 32 gb

molecule  {
0 1
  O        0.9755400    -1.0764940     0.0000010
  O       -1.3738420     1.6199730     0.0000050
  N       -1.7006930    -0.6600630    -0.0000030
  C        0.5224480     0.2188310    -0.0000040
  C       -0.9291209     0.4909528     0.0000001
  C        1.5816790     1.0895450    -0.0000030
  C        2.7579030     0.2894600     0.0000000
  C        2.3428020    -1.0138960     0.0000040
  C       -3.1488560    -0.5988880     0.0000010
  H        1.5004040     2.1673970    -0.0000090
  H       -1.2325350    -1.5568070    -0.0000080
  H        3.7847070     0.6289700     0.0000040
  H        2.8531580    -1.9656810     0.0000030
  H       -3.4251050     0.4551520     0.0000010
  H       -3.5616590    -1.0800960     0.8913170
  H       -3.5616630    -1.0800960    -0.8913140
units angstrom
no_reorient  #important for SAPT in psi4, default
symmetry c1  #important for SAPT in psi4, default
}

set PROPERTIES_ORIGIN ["COM"]
properties('MP2/aug-cc-pvtz', properties = ['dipole'])
--------------------------------------------------------------------------

    Molecular point group: c1
  Charge       = 0
  Multiplicity = 1
  Basis Set: AUG-CC-PVTZ
    Blend: AUG-CC-PVTZ
  Basis Set: (AUG-CC-PVTZ AUX)
    Blend: AUG-CC-PVTZ-JKFIT

    Orbital Energies [Eh]
    ---------------------

    Doubly Occupied:

       1A    -20.644000     2A    -20.521479     3A    -15.583757
       4A    -11.361068     5A    -11.312892     6A    -11.301257
       7A    -11.256668     8A    -11.252554     9A    -11.248134
      10A     -1.474419    11A     -1.385433    12A     -1.224614
      13A     -1.101871    14A     -1.038779    15A     -0.948839
      16A     -0.841229    17A     -0.819890    18A     -0.771721
      19A     -0.763304    20A     -0.672959    21A     -0.658648
      22A     -0.640288    23A     -0.615860    24A     -0.607470
      25A     -0.586891    26A     -0.578020    27A     -0.562002
      28A     -0.541443    29A     -0.539903    30A     -0.437673
      31A     -0.414360    32A     -0.390863    33A     -0.331343

  @DF-RHF Final Energy:  -435.60243306274162

   => Energetics <=

    Nuclear Repulsion Energy =            429.4363769717643891
    One-Electron Energy =               -1445.2183640966122766
    Two-Electron Energy =                 580.1795540621062628
    Total Energy =                       -435.6024330627416248
  Basis Set: (AUG-CC-PVTZ AUX)
    Blend: AUG-CC-PVTZ-RI
    Molecular point group: c1

    Geometry (in Angstrom), charge = 0, multiplicity = 1:

       Center              X                  Y                   Z               Mass
    ------------   -----------------  -----------------  -----------------  -----------------
         O            0.946228559483    -1.098180622942     0.000000799170    15.994914619570
         O           -1.403153440517     1.598286377058     0.000004799170    15.994914619570
         N           -1.730004440517    -0.681749622942    -0.000003200830    14.003074004430
         C            0.493136559483     0.197144377058    -0.000004200830    12.000000000000
         C           -0.958432340517     0.469266177058    -0.000000100830    12.000000000000
         C            1.552367559483     1.067858377058    -0.000003200830    12.000000000000
         C            2.728591559483     0.267773377058    -0.000000200830    12.000000000000
         C            2.313490559483    -1.035582622942     0.000003799170    12.000000000000
         C           -3.178167440517    -0.620574622942     0.000000799170    12.000000000000
         H            1.471092559483     2.145710377058    -0.000009200830     1.007825032230
         H           -1.261846440517    -1.578493622942    -0.000008200830     1.007825032230
         H            3.755395559483     0.607283377058     0.000003799170     1.007825032230
         H            2.823846559483    -1.987367622942     0.000002799170     1.007825032230
         H           -3.454416440517     0.433465377058     0.000000799170     1.007825032230
         H           -3.590970440517    -1.101782622942     0.891316799170     1.007825032230
         H           -3.590974440517    -1.101782622942    -0.891314200830     1.007825032230

  Basis Set: AUG-CC-PVTZ
    Blend: AUG-CC-PVTZ
  Basis Set: (AUG-CC-PVTZ AUX)
    Blend: AUG-CC-PVTZ-JKFIT
	 Reference Energy          =    -435.6024330627416248 [Eh]
	 Singles Energy            =      -0.0000000000000000 [Eh]
	 Same-Spin Energy          =      -0.4474568194874636 [Eh]
	 Opposite-Spin Energy      =      -1.3707457720761109 [Eh]
	 Correlation Energy        =      -1.8182025915635744 [Eh]
	 Total Energy              =    -437.4206356543052152 [Eh]

	 ================> DF-SCS-MP2 Energies <==================
	-----------------------------------------------------------
	 SCS Same-Spin Scale       =       0.3333333333333333 [-]
	 SCS Opposite-Spin Scale   =       1.2000000000000000 [-]
	 SCS Same-Spin Energy      =      -0.1491522731624879 [Eh]
	 SCS Opposite-Spin Energy  =      -1.6448949264913331 [Eh]
	 SCS Correlation Energy    =      -1.7940471996538210 [Eh]
	 SCS Total Energy          =    -437.3964802623954711 [Eh]
	-----------------------------------------------------------

  Dipole Moment: [D]
     X:     1.1825      Y:    -3.0327      Z:    -0.0000     Total:     3.2551

*** Psi4 exiting successfully. Buy a developer a beer!
