                               Psi4 1.3.2 release

  ==> Input File <==

--------------------------------------------------------------------------
#psi4
#
memory 32 gb

molecule  {
0 1
  O        0.9755400    -1.0764940     0.0000010
  O       -1.3738420     1.6199730     0.0000050
  N       -1.7006930    -0.6600630    -0.0000030
  C        0.5224480     0.2188310    -0.0000040
  C       -0.9336490     0.4655780     0.0000000
  C        1.5816790     1.0895450    -0.0000030
  C        2.7292639     0.2488978     0.0000003
  C        2.3428020    -1.0138960     0.0000040
  C       -3.1488560    -0.5988880     0.0000010
  H        1.5004040     2.1673970    -0.0000090
  H       -1.2325350    -1.5568070    -0.0000080
  H        3.7847070     0.6289700     0.0000040
  H        2.8531580    -1.9656810     0.0000030
  H       -3.4251050     0.4551520     0.0000010
  H       -3.5616590    -1.0800960     0.8913170
  H       -3.5616630    -1.0800960    -0.8913140
units angstrom
no_reorient  #important for SAPT in psi4, default
symmetry c1  #important for SAPT in psi4, default
}

set PROPERTIES_ORIGIN ["COM"]
properties('MP2/aug-cc-pvtz', properties = ['dipole'])
--------------------------------------------------------------------------

    Molecular point group: c1
  Charge       = 0
  Multiplicity = 1
  Basis Set: AUG-CC-PVTZ
    Blend: AUG-CC-PVTZ
  Basis Set: (AUG-CC-PVTZ AUX)
    Blend: AUG-CC-PVTZ-JKFIT

    Orbital Energies [Eh]
    ---------------------

    Doubly Occupied:

       1A    -20.639264     2A    -20.516505     3A    -15.589269
       4A    -11.360633     5A    -11.304081     6A    -11.302219
       7A    -11.259531     8A    -11.251426     9A    -11.244456
      10A     -1.473854    11A     -1.371489    12A     -1.231703
      13A     -1.105493    14A     -1.042195    15A     -0.955507
      16A     -0.843280    17A     -0.815687    18A     -0.775516
      19A     -0.762262    20A     -0.671651    21A     -0.659262
      22A     -0.640381    23A     -0.618941    24A     -0.596108
      25A     -0.593608    26A     -0.574269    27A     -0.556111
      28A     -0.542223    29A     -0.536666    30A     -0.434269
      31A     -0.416855    32A     -0.391940    33A     -0.335963

  @DF-RHF Final Energy:  -435.60030236714914

   => Energetics <=

    Nuclear Repulsion Energy =            430.3354622776050178
    One-Electron Energy =               -1447.0462904574790173
    Two-Electron Energy =                 581.1105258127248590
    Total Energy =                       -435.6003023671490837
  Basis Set: (AUG-CC-PVTZ AUX)
    Blend: AUG-CC-PVTZ-RI
    Molecular point group: c1

    Geometry (in Angstrom), charge = 0, multiplicity = 1:

       Center              X                  Y                   Z               Mass
    ------------   -----------------  -----------------  -----------------  -----------------
         O            0.949411396660    -1.091853084441     0.000000779977    15.994914619570
         O           -1.399970603340     1.604613915559     0.000004779977    15.994914619570
         N           -1.726821603340    -0.675422084441    -0.000003220023    14.003074004430
         C            0.496319396660     0.203471915559    -0.000004220023    12.000000000000
         C           -0.959777603340     0.450218915559    -0.000000220023    12.000000000000
         C            1.555550396660     1.074185915559    -0.000003220023    12.000000000000
         C            2.703135296660     0.233538715559     0.000000079977    12.000000000000
         C            2.316673396660    -1.029255084441     0.000003779977    12.000000000000
         C           -3.174984603340    -0.614247084441     0.000000779977    12.000000000000
         H            1.474275396660     2.152037915559    -0.000009220023     1.007825032230
         H           -1.258663603340    -1.572166084441    -0.000008220023     1.007825032230
         H            3.758578396660     0.613610915559     0.000003779977     1.007825032230
         H            2.827029396660    -1.981040084441     0.000002779977     1.007825032230
         H           -3.451233603340     0.439792915559     0.000000779977     1.007825032230
         H           -3.587787603340    -1.095455084441     0.891316779977     1.007825032230
         H           -3.587791603340    -1.095455084441    -0.891314220023     1.007825032230

  Basis Set: AUG-CC-PVTZ
    Blend: AUG-CC-PVTZ
  Basis Set: (AUG-CC-PVTZ AUX)
    Blend: AUG-CC-PVTZ-JKFIT
	 Reference Energy          =    -435.6003023671491405 [Eh]
	 Singles Energy            =      -0.0000000000000000 [Eh]
	 Same-Spin Energy          =      -0.4472681238533774 [Eh]
	 Opposite-Spin Energy      =      -1.3703395785828825 [Eh]
	 Correlation Energy        =      -1.8176077024362600 [Eh]
	 Total Energy              =    -437.4179100695853890 [Eh]

	 ================> DF-SCS-MP2 Energies <==================
	-----------------------------------------------------------
	 SCS Same-Spin Scale       =       0.3333333333333333 [-]
	 SCS Opposite-Spin Scale   =       1.2000000000000000 [-]
	 SCS Same-Spin Energy      =      -0.1490893746177925 [Eh]
	 SCS Opposite-Spin Energy  =      -1.6444074942994589 [Eh]
	 SCS Correlation Energy    =      -1.7934968689172512 [Eh]
	 SCS Total Energy          =    -437.3937992360663998 [Eh]
	-----------------------------------------------------------

  Dipole Moment: [D]
     X:     1.0794      Y:    -3.2251      Z:    -0.0000     Total:     3.4010

*** Psi4 exiting successfully. Buy a developer a beer!
