                               Psi4 1.3.2 release

  ==> Input File <==

--------------------------------------------------------------------------
#psi4
#
memory 32 gb

molecule  {
0 1
  O        0.9755400    -1.0764940     0.0000010
  O       -1.3738420     1.6199730     0.0000050
  N       -1.7006930    -0.6600630    -0.0000030
  C        0.5224480     0.2188310    -0.0000040
  C       -0.9336490     0.4655780     0.0000000
  C        1.5816790     1.0895450    -0.0000030
  C        2.7579030     0.2894600     0.0000000
  C        2.3428020    -1.0138960     0.0000040
  C       -3.1488560    -0.5988880     0.0000010
  H        1.5004040     2.1673970    -0.0000090
  H       -1.2325350    -1.5568070    -0.0000080
  H        3.7847070     0.6289700     0.0000040
  H        2.8059020    -1.8775512     0.0000031
  H       -3.4251050     0.4551520     0.0000010
  H       -3.5616590    -1.0800960     0.8913170
  H       -3.5616630    -1.0800960    -0.8913140
units angstrom
no_reorient  #important for SAPT in psi4, default
symmetry c1  #important for SAPT in psi4, default
}

set PROPERTIES_ORIGIN ["COM"]
properties('MP2/aug-cc-pvtz', properties = ['dipole'])
--------------------------------------------------------------------------

    Molecular point group: c1
  Charge       = 0
  Multiplicity = 1
  Basis Set: AUG-CC-PVTZ
    Blend: AUG-CC-PVTZ
  Basis Set: (AUG-CC-PVTZ AUX)
    Blend: AUG-CC-PVTZ-JKFIT

    Orbital Energies [Eh]
    ---------------------

    Doubly Occupied:

       1A    -20.642986     2A    -20.515893     3A    -15.589030
       4A    -11.360448     5A    -11.301473     6A    -11.301420
       7A    -11.259415     8A    -11.252167     9A    -11.247813
      10A     -1.474051    11A     -1.371049    12A     -1.231466
      13A     -1.101208    14A     -1.042885    15A     -0.956079
      16A     -0.848137    17A     -0.823798    18A     -0.776614
      19A     -0.766495    20A     -0.684998    21A     -0.658427
      22A     -0.641778    23A     -0.618629    24A     -0.602651
      25A     -0.587767    26A     -0.578385    27A     -0.563832
      28A     -0.542508    29A     -0.536309    30A     -0.433928
      31A     -0.414071    32A     -0.391781    33A     -0.331071

  @DF-RHF Final Energy:  -435.59586590294236

   => Energetics <=

    Nuclear Repulsion Energy =            429.9971222644487625
    One-Electron Energy =               -1446.2888554073379055
    Two-Electron Energy =                 580.6958672399467787
    Total Energy =                       -435.5958659029423643
  Basis Set: (AUG-CC-PVTZ AUX)
    Blend: AUG-CC-PVTZ-RI
    Molecular point group: c1

    Geometry (in Angstrom), charge = 0, multiplicity = 1:

       Center              X                  Y                   Z               Mass
    ------------   -----------------  -----------------  -----------------  -----------------
         O            0.947043952307    -1.096455855365     0.000000807960    15.994914619570
         O           -1.402338047693     1.600011144635     0.000004807960    15.994914619570
         N           -1.729189047693    -0.680024855365    -0.000003192040    14.003074004430
         C            0.493951952307     0.198869144635    -0.000004192040    12.000000000000
         C           -0.962145047693     0.445616144635    -0.000000192040    12.000000000000
         C            1.553182952307     1.069583144635    -0.000003192040    12.000000000000
         C            2.729406952307     0.269498144635    -0.000000192040    12.000000000000
         C            2.314305952307    -1.033857855365     0.000003807960    12.000000000000
         C           -3.177352047693    -0.618849855365     0.000000807960    12.000000000000
         H            1.471907952307     2.147435144635    -0.000009192040     1.007825032230
         H           -1.261031047693    -1.576768855365    -0.000008192040     1.007825032230
         H            3.756210952307     0.609008144635     0.000003807960     1.007825032230
         H            2.777405952307    -1.897513055365     0.000002907960     1.007825032230
         H           -3.453601047693     0.435190144635     0.000000807960     1.007825032230
         H           -3.590155047693    -1.100057855365     0.891316807960     1.007825032230
         H           -3.590159047693    -1.100057855365    -0.891314192040     1.007825032230

  Basis Set: AUG-CC-PVTZ
    Blend: AUG-CC-PVTZ
  Basis Set: (AUG-CC-PVTZ AUX)
    Blend: AUG-CC-PVTZ-JKFIT
	 Reference Energy          =    -435.5958659029423643 [Eh]
	 Singles Energy            =      -0.0000000000000000 [Eh]
	 Same-Spin Energy          =      -0.4476535507929031 [Eh]
	 Opposite-Spin Energy      =      -1.3709163508073001 [Eh]
	 Correlation Energy        =      -1.8185699016002033 [Eh]
	 Total Energy              =    -437.4144358045425633 [Eh]

	 ================> DF-SCS-MP2 Energies <==================
	-----------------------------------------------------------
	 SCS Same-Spin Scale       =       0.3333333333333333 [-]
	 SCS Opposite-Spin Scale   =       1.2000000000000000 [-]
	 SCS Same-Spin Energy      =      -0.1492178502643010 [Eh]
	 SCS Opposite-Spin Energy  =      -1.6450996209687601 [Eh]
	 SCS Correlation Energy    =      -1.7943174712330612 [Eh]
	 SCS Total Energy          =    -437.3901833741754217 [Eh]
	-----------------------------------------------------------

  Dipole Moment: [D]
     X:     1.0873      Y:    -3.2193      Z:    -0.0000     Total:     3.3980

*** Psi4 exiting successfully. Buy a developer a beer!
