                               Psi4 1.3.2 release

  ==> Input File <==

--------------------------------------------------------------------------
#psi4
#
memory 32 gb

molecule  {
0 1
  O        0.9755400    -1.0764940     0.0000010
  O       -1.3738420     1.6199730     0.0000050
  N       -1.7006930    -0.6600630    -0.0000030
  C        0.5224480     0.2188310    -0.0000040
  C       -0.9514644     0.3120227    -0.0000005
  C        1.5816790     1.0895450    -0.0000030
  C        2.7579030     0.2894600     0.0000000
  C        2.3428020    -1.0138960     0.0000040
  C       -3.1488560    -0.5988880     0.0000010
  H        1.5004040     2.1673970    -0.0000090
  H       -1.2325350    -1.5568070    -0.0000080
  H        3.7847070     0.6289700     0.0000040
  H        2.8531580    -1.9656810     0.0000030
  H       -3.4251050     0.4551520     0.0000010
  H       -3.5616590    -1.0800960     0.8913170
  H       -3.5616630    -1.0800960    -0.8913140
units angstrom
no_reorient  #important for SAPT in psi4, default
symmetry c1  #important for SAPT in psi4, default
}

set PROPERTIES_ORIGIN ["COM"]
properties('MP2/aug-cc-pvtz', properties = ['dipole'])
--------------------------------------------------------------------------

    Molecular point group: c1
  Charge       = 0
  Multiplicity = 1
  Basis Set: AUG-CC-PVTZ
    Blend: AUG-CC-PVTZ
  Basis Set: (AUG-CC-PVTZ AUX)
    Blend: AUG-CC-PVTZ-JKFIT

    Orbital Energies [Eh]
    ---------------------

    Doubly Occupied:

       1A    -20.641512     2A    -20.481614     3A    -15.617578
       4A    -11.351833     5A    -11.311211     6A    -11.304317
       7A    -11.275528     8A    -11.253045     9A    -11.247855
      10A     -1.475277    11A     -1.348950    12A     -1.222389
      13A     -1.100069    14A     -1.042395    15A     -0.984076
      16A     -0.842518    17A     -0.819879    18A     -0.805637
      19A     -0.766243    20A     -0.677355    21A     -0.664126
      22A     -0.652553    23A     -0.636999    24A     -0.588256
      25A     -0.583907    26A     -0.571721    27A     -0.559899
      28A     -0.528914    29A     -0.518877    30A     -0.414529
      31A     -0.399993    32A     -0.382629    33A     -0.328097

  @DF-RHF Final Energy:  -435.55889889725961

   => Energetics <=

    Nuclear Repulsion Energy =            429.8030141729301477
    One-Electron Energy =               -1445.9242691333026869
    Two-Electron Energy =                 580.5623560631129294
    Total Energy =                       -435.5588988972596098
  Basis Set: (AUG-CC-PVTZ AUX)
    Blend: AUG-CC-PVTZ-RI
    Molecular point group: c1

    Geometry (in Angstrom), charge = 0, multiplicity = 1:

       Center              X                  Y                   Z               Mass
    ------------   -----------------  -----------------  -----------------  -----------------
         O            0.948372717641    -1.081009882739     0.000000856748    15.994914619570
         O           -1.401009282359     1.615457117261     0.000004856748    15.994914619570
         N           -1.727860282359    -0.664578882739    -0.000003143252    14.003074004430
         C            0.495280717641     0.214315117261    -0.000004143252    12.000000000000
         C           -0.978631682359     0.307506817261    -0.000000643252    12.000000000000
         C            1.554511717641     1.085029117261    -0.000003143252    12.000000000000
         C            2.730735717641     0.284944117261    -0.000000143252    12.000000000000
         C            2.315634717641    -1.018411882739     0.000003856748    12.000000000000
         C           -3.176023282359    -0.603403882739     0.000000856748    12.000000000000
         H            1.473236717641     2.162881117261    -0.000009143252     1.007825032230
         H           -1.259702282359    -1.561322882739    -0.000008143252     1.007825032230
         H            3.757539717641     0.624454117261     0.000003856748     1.007825032230
         H            2.825990717641    -1.970196882739     0.000002856748     1.007825032230
         H           -3.452272282359     0.450636117261     0.000000856748     1.007825032230
         H           -3.588826282359    -1.084611882739     0.891316856748     1.007825032230
         H           -3.588830282359    -1.084611882739    -0.891314143252     1.007825032230

  Basis Set: AUG-CC-PVTZ
    Blend: AUG-CC-PVTZ
  Basis Set: (AUG-CC-PVTZ AUX)
    Blend: AUG-CC-PVTZ-JKFIT
	 Reference Energy          =    -435.5588988972596098 [Eh]
	 Singles Energy            =      -0.0000000000000000 [Eh]
	 Same-Spin Energy          =      -0.4498263099742233 [Eh]
	 Opposite-Spin Energy      =      -1.3752707595562159 [Eh]
	 Correlation Energy        =      -1.8250970695304392 [Eh]
	 Total Energy              =    -437.3839959667900530 [Eh]

	 ================> DF-SCS-MP2 Energies <==================
	-----------------------------------------------------------
	 SCS Same-Spin Scale       =       0.3333333333333333 [-]
	 SCS Opposite-Spin Scale   =       1.2000000000000000 [-]
	 SCS Same-Spin Energy      =      -0.1499421033247411 [Eh]
	 SCS Opposite-Spin Energy  =      -1.6503249114674590 [Eh]
	 SCS Correlation Energy    =      -1.8002670147922000 [Eh]
	 SCS Total Energy          =    -437.3591659120518216 [Eh]
	-----------------------------------------------------------

  Dipole Moment: [D]
     X:     0.6761      Y:    -4.4050      Z:    -0.0000     Total:     4.4565

*** Psi4 exiting successfully. Buy a developer a beer!
