                               Psi4 1.3.2 release

  ==> Input File <==

--------------------------------------------------------------------------
#psi4
#
memory 32 gb

molecule  {
0 1
  O        0.9785575    -1.1241726     0.0000009
  O       -1.3738420     1.6199730     0.0000050
  N       -1.7006930    -0.6600630    -0.0000030
  C        0.5224480     0.2188310    -0.0000040
  C       -0.9336490     0.4655780     0.0000000
  C        1.5816790     1.0895450    -0.0000030
  C        2.7579030     0.2894600     0.0000000
  C        2.3428020    -1.0138960     0.0000040
  C       -3.1488560    -0.5988880     0.0000010
  H        1.5004040     2.1673970    -0.0000090
  H       -1.2325350    -1.5568070    -0.0000080
  H        3.7847070     0.6289700     0.0000040
  H        2.8531580    -1.9656810     0.0000030
  H       -3.4251050     0.4551520     0.0000010
  H       -3.5616590    -1.0800960     0.8913170
  H       -3.5616630    -1.0800960    -0.8913140
units angstrom
no_reorient  #important for SAPT in psi4, default
symmetry c1  #important for SAPT in psi4, default
}

set PROPERTIES_ORIGIN ["COM"]
properties('MP2/aug-cc-pvtz', properties = ['dipole'])
--------------------------------------------------------------------------

    Molecular point group: c1
  Charge       = 0
  Multiplicity = 1
  Basis Set: AUG-CC-PVTZ
    Blend: AUG-CC-PVTZ
  Basis Set: (AUG-CC-PVTZ AUX)
    Blend: AUG-CC-PVTZ-JKFIT

    Orbital Energies [Eh]
    ---------------------

    Doubly Occupied:

       1A    -20.643260     2A    -20.515512     3A    -15.588236
       4A    -11.360546     5A    -11.314757     6A    -11.303890
       7A    -11.258900     8A    -11.258318     9A    -11.248493
      10A     -1.459991    11A     -1.370747    12A     -1.230776
      13A     -1.105371    14A     -1.033923    15A     -0.952551
      16A     -0.841975    17A     -0.815672    18A     -0.775531
      19A     -0.762269    20A     -0.664952    21A     -0.651276
      22A     -0.641491    23A     -0.617415    24A     -0.601137
      25A     -0.590075    26A     -0.575543    27A     -0.562976
      28A     -0.542340    29A     -0.536485    30A     -0.433363
      31A     -0.417843    32A     -0.391657    33A     -0.331170

  @DF-RHF Final Energy:  -435.59831442240892

   => Energetics <=

    Nuclear Repulsion Energy =            428.1899077500906401
    One-Electron Energy =               -1442.7795594097344747
    Two-Electron Energy =                 578.9913372372349158
    Total Energy =                       -435.5983144224088619
  Basis Set: (AUG-CC-PVTZ AUX)
    Blend: AUG-CC-PVTZ-RI
    Molecular point group: c1

    Geometry (in Angstrom), charge = 0, multiplicity = 1:

       Center              X                  Y                   Z               Mass
    ------------   -----------------  -----------------  -----------------  -----------------
         O            0.949294621321    -1.137325576023     0.000000721557    15.994914619570
         O           -1.403104878679     1.606820023977     0.000004821557    15.994914619570
         N           -1.729955878679    -0.673215976023    -0.000003178443    14.003074004430
         C            0.493185121321     0.205678023977    -0.000004178443    12.000000000000
         C           -0.962911878679     0.452425023977    -0.000000178443    12.000000000000
         C            1.552416121321     1.076392023977    -0.000003178443    12.000000000000
         C            2.728640121321     0.276307023977    -0.000000178443    12.000000000000
         C            2.313539121321    -1.027048976023     0.000003821557    12.000000000000
         C           -3.178118878679    -0.612040976023     0.000000821557    12.000000000000
         H            1.471141121321     2.154244023977    -0.000009178443     1.007825032230
         H           -1.261797878679    -1.569959976023    -0.000008178443     1.007825032230
         H            3.755444121321     0.615817023977     0.000003821557     1.007825032230
         H            2.823895121321    -1.978833976023     0.000002821557     1.007825032230
         H           -3.454367878679     0.441999023977     0.000000821557     1.007825032230
         H           -3.590921878679    -1.093248976023     0.891316821557     1.007825032230
         H           -3.590925878679    -1.093248976023    -0.891314178443     1.007825032230

  Basis Set: AUG-CC-PVTZ
    Blend: AUG-CC-PVTZ
  Basis Set: (AUG-CC-PVTZ AUX)
    Blend: AUG-CC-PVTZ-JKFIT
	 Reference Energy          =    -435.5983144224089187 [Eh]
	 Singles Energy            =      -0.0000000000000000 [Eh]
	 Same-Spin Energy          =      -0.4478715773815967 [Eh]
	 Opposite-Spin Energy      =      -1.3726430199285380 [Eh]
	 Correlation Energy        =      -1.8205145973101347 [Eh]
	 Total Energy              =    -437.4188290197190554 [Eh]

	 ================> DF-SCS-MP2 Energies <==================
	-----------------------------------------------------------
	 SCS Same-Spin Scale       =       0.3333333333333333 [-]
	 SCS Opposite-Spin Scale   =       1.2000000000000000 [-]
	 SCS Same-Spin Energy      =      -0.1492905257938656 [Eh]
	 SCS Opposite-Spin Energy  =      -1.6471716239142455 [Eh]
	 SCS Correlation Energy    =      -1.7964621497081110 [Eh]
	 SCS Total Energy          =    -437.3947765721170526 [Eh]
	-----------------------------------------------------------

  Dipole Moment: [D]
     X:     1.1112      Y:    -3.0956      Z:    -0.0000     Total:     3.2890

*** Psi4 exiting successfully. Buy a developer a beer!
