                               Psi4 1.3.2 release

  ==> Input File <==

--------------------------------------------------------------------------
#psi4
#
memory 32 gb

molecule  {
0 1
  O        0.9755400    -1.0764940     0.0000010
  O       -1.3738420     1.6199730     0.0000050
  N       -1.7006930    -0.6600630    -0.0000030
  C        0.5224480     0.2188310    -0.0000040
  C       -0.9336490     0.4655780     0.0000000
  C        1.5544730     1.0480080    -0.0000029
  C        2.7579030     0.2894600     0.0000000
  C        2.3428020    -1.0138960     0.0000040
  C       -3.1488560    -0.5988880     0.0000010
  H        1.5004040     2.1673970    -0.0000090
  H       -1.2325350    -1.5568070    -0.0000080
  H        3.7847070     0.6289700     0.0000040
  H        2.8531580    -1.9656810     0.0000030
  H       -3.4251050     0.4551520     0.0000010
  H       -3.5616590    -1.0800960     0.8913170
  H       -3.5616630    -1.0800960    -0.8913140
units angstrom
no_reorient  #important for SAPT in psi4, default
symmetry c1  #important for SAPT in psi4, default
}

set PROPERTIES_ORIGIN ["COM"]
properties('MP2/aug-cc-pvtz', properties = ['dipole'])
--------------------------------------------------------------------------

    Molecular point group: c1
  Charge       = 0
  Multiplicity = 1
  Basis Set: AUG-CC-PVTZ
    Blend: AUG-CC-PVTZ
  Basis Set: (AUG-CC-PVTZ AUX)
    Blend: AUG-CC-PVTZ-JKFIT

    Orbital Energies [Eh]
    ---------------------

    Doubly Occupied:

       1A    -20.639660     2A    -20.516205     3A    -15.589350
       4A    -11.360849     5A    -11.312608     6A    -11.294612
       7A    -11.259584     8A    -11.248401     9A    -11.246640
      10A     -1.474198    11A     -1.371334    12A     -1.231712
      13A     -1.105620    14A     -1.041997    15A     -0.955365
      16A     -0.839562    17A     -0.820854    18A     -0.774290
      19A     -0.762882    20A     -0.671123    21A     -0.659781
      22A     -0.642635    23A     -0.618849    24A     -0.602562
      25A     -0.582855    26A     -0.573792    27A     -0.558484
      28A     -0.542793    29A     -0.536638    30A     -0.434222
      31A     -0.416193    32A     -0.392011    33A     -0.336492

  @DF-RHF Final Energy:  -435.60087305610000

   => Energetics <=

    Nuclear Repulsion Energy =            430.4684202811000091
    One-Electron Energy =               -1447.3102804331322204
    Two-Electron Energy =                 581.2409870959322689
    Total Energy =                       -435.6008730560999993
  Basis Set: (AUG-CC-PVTZ AUX)
    Blend: AUG-CC-PVTZ-RI
    Molecular point group: c1

    Geometry (in Angstrom), charge = 0, multiplicity = 1:

       Center              X                  Y                   Z               Mass
    ------------   -----------------  -----------------  -----------------  -----------------
         O            0.949273871516    -1.091759539322     0.000000799170    15.994914619570
         O           -1.400108128484     1.604707460678     0.000004799170    15.994914619570
         N           -1.726959128484    -0.675328539322    -0.000003200830    14.003074004430
         C            0.496181871516     0.203565460678    -0.000004200830    12.000000000000
         C           -0.959915128484     0.450312460678    -0.000000200830    12.000000000000
         C            1.528206871516     1.032742460678    -0.000003100830    12.000000000000
         C            2.731636871516     0.274194460678    -0.000000200830    12.000000000000
         C            2.316535871516    -1.029161539322     0.000003799170    12.000000000000
         C           -3.175122128484    -0.614153539322     0.000000799170    12.000000000000
         H            1.474137871516     2.152131460678    -0.000009200830     1.007825032230
         H           -1.258801128484    -1.572072539322    -0.000008200830     1.007825032230
         H            3.758440871516     0.613704460678     0.000003799170     1.007825032230
         H            2.826891871516    -1.980946539322     0.000002799170     1.007825032230
         H           -3.451371128484     0.439886460678     0.000000799170     1.007825032230
         H           -3.587925128484    -1.095361539322     0.891316799170     1.007825032230
         H           -3.587929128484    -1.095361539322    -0.891314200830     1.007825032230

  Basis Set: AUG-CC-PVTZ
    Blend: AUG-CC-PVTZ
  Basis Set: (AUG-CC-PVTZ AUX)
    Blend: AUG-CC-PVTZ-JKFIT
	 Reference Energy          =    -435.6008730560999993 [Eh]
	 Singles Energy            =      -0.0000000000000000 [Eh]
	 Same-Spin Energy          =      -0.4471056369975088 [Eh]
	 Opposite-Spin Energy      =      -1.3702180838940654 [Eh]
	 Correlation Energy        =      -1.8173237208915742 [Eh]
	 Total Energy              =    -437.4181967769915786 [Eh]

	 ================> DF-SCS-MP2 Energies <==================
	-----------------------------------------------------------
	 SCS Same-Spin Scale       =       0.3333333333333333 [-]
	 SCS Opposite-Spin Scale   =       1.2000000000000000 [-]
	 SCS Same-Spin Energy      =      -0.1490352123325029 [Eh]
	 SCS Opposite-Spin Energy  =      -1.6442617006728784 [Eh]
	 SCS Correlation Energy    =      -1.7932969130053813 [Eh]
	 SCS Total Energy          =    -437.3941699691054055 [Eh]
	-----------------------------------------------------------

  Dipole Moment: [D]
     X:     1.0954      Y:    -3.2238      Z:    -0.0000     Total:     3.4048

*** Psi4 exiting successfully. Buy a developer a beer!
