                               Psi4 1.4a3.dev225

  ==> Input File <==

--------------------------------------------------------------------------
#psi4
#
memory 32 gb

molecule  {
0 1
  O        0.9755400    -1.0764940     0.0000010
  O       -1.3738420     1.6199730     0.0000050
  N       -1.7006930    -0.6600630    -0.0000030
  C        0.5224480     0.2188310    -0.0000040
  C       -0.9336490     0.4655780     0.0000000
  C        1.5816790     1.0895450    -0.0000030
  C        2.7579030     0.2894600     0.0000000
  C        2.3428020    -1.0138960     0.0000040
  C       -3.1488560    -0.5988880     0.0000010
  H        1.5004040     2.1673970    -0.0000090
  H       -1.2325350    -1.5568070    -0.0000080
  H        3.7847070     0.6289700     0.0000040
  H        2.8626092    -1.9833070     0.0000030
  H       -3.4251050     0.4551520     0.0000010
  H       -3.5616590    -1.0800960     0.8913170
  H       -3.5616630    -1.0800960    -0.8913140
units angstrom
no_reorient  #important for SAPT in psi4, default
symmetry c1  #important for SAPT in psi4, default
}

set PROPERTIES_ORIGIN ["COM"]
properties('MP2/aug-cc-pvtz', properties = ['dipole'])
--------------------------------------------------------------------------

    Molecular point group: c1
  Charge       = 0
  Multiplicity = 1
  Basis Set: AUG-CC-PVTZ
    Blend: AUG-CC-PVTZ
  Basis Set: (AUG-CC-PVTZ AUX)
    Blend: AUG-CC-PVTZ-JKFIT

    Orbital Energies [Eh]
    ---------------------

    Doubly Occupied:

       1A    -20.643758     2A    -20.515877     3A    -15.589022
       4A    -11.360508     5A    -11.314736     6A    -11.301462
       7A    -11.259407     8A    -11.252610     9A    -11.248133
      10A     -1.474530    11A     -1.371044    12A     -1.231456
      13A     -1.101595    14A     -1.038413    15A     -0.953633
      16A     -0.840292    17A     -0.818745    18A     -0.775232
      19A     -0.764535    20A     -0.668905    21A     -0.658842
      22A     -0.641779    23A     -0.618684    24A     -0.600746
      25A     -0.586268    26A     -0.577187    27A     -0.561041
      28A     -0.542208    29A     -0.536346    30A     -0.433849
      31A     -0.414449    32A     -0.391814    33A     -0.330973

  @DF-RHF Final Energy:  -435.60146742878379

   => Energetics <=

    Nuclear Repulsion Energy =            429.3392420658252604
    One-Electron Energy =               -1445.0452581063871094
    Two-Electron Energy =                 580.1045486117780001
    Total Energy =                       -435.6014674287838488
  Basis Set: (AUG-CC-PVTZ AUX)
    Blend: AUG-CC-PVTZ-RI
    Molecular point group: c1

    Geometry (in Angstrom), charge = 0, multiplicity = 1:

       Center              X                  Y                   Z               Mass
    ------------   -----------------  -----------------  -----------------  -----------------
         O            0.946586919147    -1.095603513731     0.000000808766    15.994914619570
         O           -1.402795080853     1.600863486269     0.000004808766    15.994914619570
         N           -1.729646080853    -0.679172513731    -0.000003191234    14.003074004430
         C            0.493494919147     0.199721486269    -0.000004191234    12.000000000000
         C           -0.962602080853     0.446468486269    -0.000000191234    12.000000000000
         C            1.552725919147     1.070435486269    -0.000003191234    12.000000000000
         C            2.728949919147     0.270350486269    -0.000000191234    12.000000000000
         C            2.313848919147    -1.033005513731     0.000003808766    12.000000000000
         C           -3.177809080853    -0.617997513731     0.000000808766    12.000000000000
         H            1.471450919147     2.148287486269    -0.000009191234     1.007825032230
         H           -1.261488080853    -1.575916513731    -0.000008191234     1.007825032230
         H            3.755753919147     0.609860486269     0.000003808766     1.007825032230
         H            2.833656119147    -2.002416513731     0.000002808766     1.007825032230
         H           -3.454058080853     0.436042486269     0.000000808766     1.007825032230
         H           -3.590612080853    -1.099205513731     0.891316808766     1.007825032230
         H           -3.590616080853    -1.099205513731    -0.891314191234     1.007825032230

  Basis Set: AUG-CC-PVTZ
    Blend: AUG-CC-PVTZ
  Basis Set: (AUG-CC-PVTZ AUX)
    Blend: AUG-CC-PVTZ-JKFIT
	 Reference Energy          =    -435.6014674287837920 [Eh]
	 Singles Energy            =      -0.0000000000000000 [Eh]
	 Same-Spin Energy          =      -0.4478672003019418 [Eh]
	 Opposite-Spin Energy      =      -1.3715795012164453 [Eh]
	 Correlation Energy        =      -1.8194467015183871 [Eh]
	 Total Energy              =    -437.4209141303021511 [Eh]

	 ================> DF-SCS-MP2 Energies <==================
	-----------------------------------------------------------
	 SCS Same-Spin Scale       =       0.3333333333333333 [-]
	 SCS Opposite-Spin Scale   =       1.2000000000000000 [-]
	 SCS Same-Spin Energy      =      -0.1492890667673139 [Eh]
	 SCS Opposite-Spin Energy  =      -1.6458954014597345 [Eh]
	 SCS Correlation Energy    =      -1.7951844682270484 [Eh]
	 SCS Total Energy          =    -437.3966518970108268 [Eh]
	-----------------------------------------------------------

  Dipole Moment: [D]
     X:     1.0919      Y:    -3.2399      Z:    -0.0000     Total:     3.4189

*** Psi4 exiting successfully. Buy a developer a beer!
