                               Psi4 1.3.2 release

  ==> Input File <==

--------------------------------------------------------------------------
#psi4
#
memory 32 gb

molecule  {
0 1
  O        0.9755400    -1.0764940     0.0000010
  O       -1.3738420     1.6199730     0.0000050
  N       -1.7773453    -0.6038147    -0.0000026
  C        0.5224480     0.2188310    -0.0000040
  C       -0.9336490     0.4655780     0.0000000
  C        1.5816790     1.0895450    -0.0000030
  C        2.7579030     0.2894600     0.0000000
  C        2.3428020    -1.0138960     0.0000040
  C       -3.1488560    -0.5988880     0.0000010
  H        1.5004040     2.1673970    -0.0000090
  H       -1.2325350    -1.5568070    -0.0000080
  H        3.7847070     0.6289700     0.0000040
  H        2.8531580    -1.9656810     0.0000030
  H       -3.4251050     0.4551520     0.0000010
  H       -3.5616590    -1.0800960     0.8913170
  H       -3.5616630    -1.0800960    -0.8913140
units angstrom
no_reorient  #important for SAPT in psi4, default
symmetry c1  #important for SAPT in psi4, default
}

set PROPERTIES_ORIGIN ["COM"]
properties('MP2/aug-cc-pvtz', properties = ['dipole'])
--------------------------------------------------------------------------

    Molecular point group: c1
  Charge       = 0
  Multiplicity = 1
  Basis Set: AUG-CC-PVTZ
    Blend: AUG-CC-PVTZ
  Basis Set: (AUG-CC-PVTZ AUX)
    Blend: AUG-CC-PVTZ-JKFIT

    Orbital Energies [Eh]
    ---------------------

    Doubly Occupied:

       1A    -20.646265     2A    -20.512157     3A    -15.591879
       4A    -11.360437     5A    -11.315135     6A    -11.306161
       7A    -11.255971     8A    -11.252276     9A    -11.250371
      10A     -1.476843    11A     -1.372466    12A     -1.236493
      13A     -1.104192    14A     -1.043864    15A     -0.959580
      16A     -0.836725    17A     -0.822087    18A     -0.769389
      19A     -0.757166    20A     -0.674395    21A     -0.661477
      22A     -0.654289    23A     -0.627178    24A     -0.601134
      25A     -0.589484    26A     -0.582884    27A     -0.564767
      28A     -0.533632    29A     -0.525060    30A     -0.432644
      31A     -0.416307    32A     -0.383830    33A     -0.333666

  @DF-RHF Final Energy:  -435.58767215240948

   => Energetics <=

    Nuclear Repulsion Energy =            429.6565591149897045
    One-Electron Energy =               -1445.5880552359931244
    Two-Electron Energy =                 580.3438239685939379
    Total Energy =                       -435.5876721524094819
  Basis Set: (AUG-CC-PVTZ AUX)
    Blend: AUG-CC-PVTZ-RI
    Molecular point group: c1

    Geometry (in Angstrom), charge = 0, multiplicity = 1:

       Center              X                  Y                   Z               Mass
    ------------   -----------------  -----------------  -----------------  -----------------
         O            0.955246759927    -1.102044361265     0.000000763974    15.994914619570
         O           -1.394135240073     1.594422638735     0.000004763974    15.994914619570
         N           -1.797638540073    -0.629365061265    -0.000002836026    14.003074004430
         C            0.502154759927     0.193280638735    -0.000004236026    12.000000000000
         C           -0.953942240073     0.440027638735    -0.000000236026    12.000000000000
         C            1.561385759927     1.063994638735    -0.000003236026    12.000000000000
         C            2.737609759927     0.263909638735    -0.000000236026    12.000000000000
         C            2.322508759927    -1.039446361265     0.000003763974    12.000000000000
         C           -3.169149240073    -0.624438361265     0.000000763974    12.000000000000
         H            1.480110759927     2.141846638735    -0.000009236026     1.007825032230
         H           -1.252828240073    -1.582357361265    -0.000008236026     1.007825032230
         H            3.764413759927     0.603419638735     0.000003763974     1.007825032230
         H            2.832864759927    -1.991231361265     0.000002763974     1.007825032230
         H           -3.445398240073     0.429601638735     0.000000763974     1.007825032230
         H           -3.581952240073    -1.105646361265     0.891316763974     1.007825032230
         H           -3.581956240073    -1.105646361265    -0.891314236026     1.007825032230

  Basis Set: AUG-CC-PVTZ
    Blend: AUG-CC-PVTZ
  Basis Set: (AUG-CC-PVTZ AUX)
    Blend: AUG-CC-PVTZ-JKFIT
	 Reference Energy          =    -435.5876721524094819 [Eh]
	 Singles Energy            =      -0.0000000000000000 [Eh]
	 Same-Spin Energy          =      -0.4489395404013672 [Eh]
	 Opposite-Spin Energy      =      -1.3729844736139967 [Eh]
	 Correlation Energy        =      -1.8219240140153639 [Eh]
	 Total Energy              =    -437.4095961664248193 [Eh]

	 ================> DF-SCS-MP2 Energies <==================
	-----------------------------------------------------------
	 SCS Same-Spin Scale       =       0.3333333333333333 [-]
	 SCS Opposite-Spin Scale   =       1.2000000000000000 [-]
	 SCS Same-Spin Energy      =      -0.1496465134671224 [Eh]
	 SCS Opposite-Spin Energy  =      -1.6475813683367959 [Eh]
	 SCS Correlation Energy    =      -1.7972278818039182 [Eh]
	 SCS Total Energy          =    -437.3849000342133877 [Eh]
	-----------------------------------------------------------

  Dipole Moment: [D]
     X:     1.3615      Y:    -3.2773      Z:    -0.0000     Total:     3.5488

*** Psi4 exiting successfully. Buy a developer a beer!
