                               Psi4 1.3.2 release

  ==> Input File <==

--------------------------------------------------------------------------
#psi4
#
memory 32 gb

molecule  {
0 1
  O        0.9755400    -1.0764940     0.0000010
  O       -1.3738420     1.6199730     0.0000050
  N       -1.7006930    -0.6600630    -0.0000030
  C        0.5224480     0.2188310    -0.0000040
  C       -0.9336490     0.4655780     0.0000000
  C        1.5816790     1.0895450    -0.0000030
  C        2.7579030     0.2894600     0.0000000
  C        2.3428020    -1.0138960     0.0000040
  C       -3.1488560    -0.5988880     0.0000010
  H        1.4853658     2.3668308    -0.0000101
  H       -1.2325350    -1.5568070    -0.0000080
  H        3.7847070     0.6289700     0.0000040
  H        2.8531580    -1.9656810     0.0000030
  H       -3.4251050     0.4551520     0.0000010
  H       -3.5616590    -1.0800960     0.8913170
  H       -3.5616630    -1.0800960    -0.8913140
units angstrom
no_reorient  #important for SAPT in psi4, default
symmetry c1  #important for SAPT in psi4, default
}

set PROPERTIES_ORIGIN ["COM"]
properties('MP2/aug-cc-pvtz', properties = ['dipole'])
--------------------------------------------------------------------------

    Molecular point group: c1
  Charge       = 0
  Multiplicity = 1
  Basis Set: AUG-CC-PVTZ
    Blend: AUG-CC-PVTZ
  Basis Set: (AUG-CC-PVTZ AUX)
    Blend: AUG-CC-PVTZ-JKFIT

    Orbital Energies [Eh]
    ---------------------

    Doubly Occupied:

       1A    -20.644469     2A    -20.515376     3A    -15.588861
       4A    -11.360262     5A    -11.313429     6A    -11.302258
       7A    -11.271360     8A    -11.259284     9A    -11.249471
      10A     -1.475242    11A     -1.370594    12A     -1.231259
      13A     -1.099637    14A     -1.038577    15A     -0.953262
      16A     -0.839123    17A     -0.814585    18A     -0.773301
      19A     -0.752663    20A     -0.669587    21A     -0.659458
      22A     -0.641334    23A     -0.618637    24A     -0.601074
      25A     -0.577992    26A     -0.564659    27A     -0.545249
      28A     -0.541720    29A     -0.536059    30A     -0.433313
      31A     -0.415017    32A     -0.391562    33A     -0.331485

  @DF-RHF Final Energy:  -435.57892115948403

   => Energetics <=

    Nuclear Repulsion Energy =            428.5410661064196916
    One-Electron Energy =               -1443.4796589537413638
    Two-Electron Energy =                 579.3596716878375901
    Total Energy =                       -435.5789211594840253
  Basis Set: (AUG-CC-PVTZ AUX)
    Blend: AUG-CC-PVTZ-RI
    Molecular point group: c1

    Geometry (in Angstrom), charge = 0, multiplicity = 1:

       Center              X                  Y                   Z               Mass
    ------------   -----------------  -----------------  -----------------  -----------------
         O            0.946784292106    -1.097352912861     0.000000817632    15.994914619570
         O           -1.402597707894     1.599114087139     0.000004817632    15.994914619570
         N           -1.729448707894    -0.680921912861    -0.000003182368    14.003074004430
         C            0.493692292106     0.197972087139    -0.000004182368    12.000000000000
         C           -0.962404707894     0.444719087139    -0.000000182368    12.000000000000
         C            1.552923292106     1.068686087139    -0.000003182368    12.000000000000
         C            2.729147292106     0.268601087139    -0.000000182368    12.000000000000
         C            2.314046292106    -1.034754912861     0.000003817632    12.000000000000
         C           -3.177611707894    -0.619746912861     0.000000817632    12.000000000000
         H            1.456610092106     2.345971887139    -0.000010282368     1.007825032230
         H           -1.261290707894    -1.577665912861    -0.000008182368     1.007825032230
         H            3.755951292106     0.608111087139     0.000003817632     1.007825032230
         H            2.824402292106    -1.986539912861     0.000002817632     1.007825032230
         H           -3.453860707894     0.434293087139     0.000000817632     1.007825032230
         H           -3.590414707894    -1.100954912861     0.891316817632     1.007825032230
         H           -3.590418707894    -1.100954912861    -0.891314182368     1.007825032230

  Basis Set: AUG-CC-PVTZ
    Blend: AUG-CC-PVTZ
  Basis Set: (AUG-CC-PVTZ AUX)
    Blend: AUG-CC-PVTZ-JKFIT
	 Reference Energy          =    -435.5789211594840253 [Eh]
	 Singles Energy            =      -0.0000000000000000 [Eh]
	 Same-Spin Energy          =      -0.4483497634034296 [Eh]
	 Opposite-Spin Energy      =      -1.3735778314822822 [Eh]
	 Correlation Energy        =      -1.8219275948857119 [Eh]
	 Total Energy              =    -437.4008487543697470 [Eh]

	 ================> DF-SCS-MP2 Energies <==================
	-----------------------------------------------------------
	 SCS Same-Spin Scale       =       0.3333333333333333 [-]
	 SCS Opposite-Spin Scale   =       1.2000000000000000 [-]
	 SCS Same-Spin Energy      =      -0.1494499211344765 [Eh]
	 SCS Opposite-Spin Energy  =      -1.6482933977787386 [Eh]
	 SCS Correlation Energy    =      -1.7977433189132150 [Eh]
	 SCS Total Energy          =    -437.3766644783972311 [Eh]
	-----------------------------------------------------------

  Dipole Moment: [D]
     X:     1.0980      Y:    -3.2022      Z:    -0.0000     Total:     3.3852

*** Psi4 exiting successfully. Buy a developer a beer!
