                               Psi4 1.4a3.dev225

  ==> Input File <==

--------------------------------------------------------------------------
#psi4
#
memory 32 gb

molecule  {
0 1
  O        0.9755400    -1.0764940     0.0000010
  O       -1.3738420     1.6199730     0.0000050
  N       -1.7006930    -0.6600630    -0.0000030
  C        0.5224480     0.2188310    -0.0000040
  C       -0.9336490     0.4655780     0.0000000
  C        1.5816790     1.0895450    -0.0000030
  C        2.7579030     0.2894600     0.0000000
  C        2.3428020    -1.0138960     0.0000040
  C       -3.1488560    -0.5988880     0.0000010
  H        1.4966444     2.2172555    -0.0000093
  H       -1.2325350    -1.5568070    -0.0000080
  H        3.7847070     0.6289700     0.0000040
  H        2.8531580    -1.9656810     0.0000030
  H       -3.4251050     0.4551520     0.0000010
  H       -3.5616590    -1.0800960     0.8913170
  H       -3.5616630    -1.0800960    -0.8913140
units angstrom
no_reorient  #important for SAPT in psi4, default
symmetry c1  #important for SAPT in psi4, default
}

set PROPERTIES_ORIGIN ["COM"]
properties('MP2/aug-cc-pvtz', properties = ['dipole'])
--------------------------------------------------------------------------

    Molecular point group: c1
  Charge       = 0
  Multiplicity = 1
  Basis Set: AUG-CC-PVTZ
    Blend: AUG-CC-PVTZ
  Basis Set: (AUG-CC-PVTZ AUX)
    Blend: AUG-CC-PVTZ-JKFIT

    Orbital Energies [Eh]
    ---------------------

    Doubly Occupied:

       1A    -20.643772     2A    -20.515730     3A    -15.588959
       4A    -11.360410     5A    -11.312767     6A    -11.301563
       7A    -11.259361     8A    -11.257591     9A    -11.248369
      10A     -1.474588    11A     -1.370911    12A     -1.231385
      13A     -1.100779    14A     -1.038795    15A     -0.953698
      16A     -0.840264    17A     -0.817776    18A     -0.774386
      19A     -0.761721    20A     -0.670900    21A     -0.658892
      22A     -0.641618    23A     -0.618644    24A     -0.600970
      25A     -0.578669    26A     -0.576745    27A     -0.561214
      28A     -0.542242    29A     -0.536251    30A     -0.433715
      31A     -0.414473    32A     -0.391730    33A     -0.331050

  @DF-RHF Final Energy:  -435.59959087629090

   => Energetics <=

    Nuclear Repulsion Energy =            429.1983383731503636
    One-Electron Energy =               -1444.7759773322477486
    Two-Electron Energy =                 579.9780480828064810
    Total Energy =                       -435.5995908762909039
  Basis Set: (AUG-CC-PVTZ AUX)
    Blend: AUG-CC-PVTZ-RI
    Molecular point group: c1

    Geometry (in Angstrom), charge = 0, multiplicity = 1:

       Center              X                  Y                   Z               Mass
    ------------   -----------------  -----------------  -----------------  -----------------
         O            0.946693391935    -1.096147406822     0.000000811184    15.994914619570
         O           -1.402688608065     1.600319593178     0.000004811184    15.994914619570
         N           -1.729539608065    -0.679716406822    -0.000003188816    14.003074004430
         C            0.493601391935     0.199177593178    -0.000004188816    12.000000000000
         C           -0.962495608065     0.445924593178    -0.000000188816    12.000000000000
         C            1.552832391935     1.069891593178    -0.000003188816    12.000000000000
         C            2.729056391935     0.269806593178    -0.000000188816    12.000000000000
         C            2.313955391935    -1.033549406822     0.000003811184    12.000000000000
         C           -3.177702608065    -0.618541406822     0.000000811184    12.000000000000
         H            1.467797791935     2.197602093178    -0.000009488816     1.007825032230
         H           -1.261381608065    -1.576460406822    -0.000008188816     1.007825032230
         H            3.755860391935     0.609316593178     0.000003811184     1.007825032230
         H            2.824311391935    -1.985334406822     0.000002811184     1.007825032230
         H           -3.453951608065     0.435498593178     0.000000811184     1.007825032230
         H           -3.590505608065    -1.099749406822     0.891316811184     1.007825032230
         H           -3.590509608065    -1.099749406822    -0.891314188816     1.007825032230

  Basis Set: AUG-CC-PVTZ
    Blend: AUG-CC-PVTZ
  Basis Set: (AUG-CC-PVTZ AUX)
    Blend: AUG-CC-PVTZ-JKFIT
	 Reference Energy          =    -435.5995908762909039 [Eh]
	 Singles Energy            =      -0.0000000000000000 [Eh]
	 Same-Spin Energy          =      -0.4479317157730728 [Eh]
	 Opposite-Spin Energy      =      -1.3718243470278502 [Eh]
	 Correlation Energy        =      -1.8197560628009231 [Eh]
	 Total Energy              =    -437.4193469390918381 [Eh]

	 ================> DF-SCS-MP2 Energies <==================
	-----------------------------------------------------------
	 SCS Same-Spin Scale       =       0.3333333333333333 [-]
	 SCS Opposite-Spin Scale   =       1.2000000000000000 [-]
	 SCS Same-Spin Energy      =      -0.1493105719243576 [Eh]
	 SCS Opposite-Spin Energy  =      -1.6461892164334202 [Eh]
	 SCS Correlation Energy    =      -1.7954997883577777 [Eh]
	 SCS Total Energy          =    -437.3950906646487056 [Eh]
	-----------------------------------------------------------

  Dipole Moment: [D]
     X:     1.0939      Y:    -3.2261      Z:    -0.0000     Total:     3.4065

*** Psi4 exiting successfully. Buy a developer a beer!
