                               Psi4 1.3.2 release

  ==> Input File <==

--------------------------------------------------------------------------
#psi4
#
memory 32 gb

molecule  {
0 1
  O        0.9764867    -0.9332333     0.0000005
  O       -1.3738420     1.6199730     0.0000050
  N       -1.7006930    -0.6600630    -0.0000030
  C        0.5224480     0.2188310    -0.0000040
  C       -0.9336490     0.4655780     0.0000000
  C        1.5816790     1.0895450    -0.0000030
  C        2.7579030     0.2894600     0.0000000
  C        2.3428020    -1.0138960     0.0000040
  C       -3.1488560    -0.5988880     0.0000010
  H        1.5004040     2.1673970    -0.0000090
  H       -1.2325350    -1.5568070    -0.0000080
  H        3.7847070     0.6289700     0.0000040
  H        2.8531580    -1.9656810     0.0000030
  H       -3.4251050     0.4551520     0.0000010
  H       -3.5616590    -1.0800960     0.8913170
  H       -3.5616630    -1.0800960    -0.8913140
units angstrom
no_reorient  #important for SAPT in psi4, default
symmetry c1  #important for SAPT in psi4, default
}

set PROPERTIES_ORIGIN ["COM"]
properties('MP2/aug-cc-pvtz', properties = ['dipole'])
--------------------------------------------------------------------------

    Molecular point group: c1
  Charge       = 0
  Multiplicity = 1
  Basis Set: AUG-CC-PVTZ
    Blend: AUG-CC-PVTZ
  Basis Set: (AUG-CC-PVTZ AUX)
    Blend: AUG-CC-PVTZ-JKFIT

    Orbital Energies [Eh]
    ---------------------

    Doubly Occupied:

       1A    -20.644006     2A    -20.518292     3A    -15.592458
       4A    -11.361331     5A    -11.305649     6A    -11.295537
       7A    -11.261632     8A    -11.246356     9A    -11.233294
      10A     -1.528595    11A     -1.373044    12A     -1.234478
      13A     -1.093870    14A     -1.055096    15A     -0.960204
      16A     -0.841654    17A     -0.832639    18A     -0.776885
      19A     -0.772374    20A     -0.690989    21A     -0.688229
      22A     -0.643502    23A     -0.622340    24A     -0.604028
      25A     -0.580620    26A     -0.571876    27A     -0.555234
      28A     -0.538960    29A     -0.536932    30A     -0.435339
      31A     -0.406113    32A     -0.392744    33A     -0.327898

  @DF-RHF Final Energy:  -435.58740254961663

   => Energetics <=

    Nuclear Repulsion Energy =            433.3891678723537666
    One-Electron Energy =               -1452.9087490983856696
    Two-Electron Energy =                 583.9321786764153330
    Total Energy =                       -435.5874025496166269
  Basis Set: (AUG-CC-PVTZ AUX)
    Blend: AUG-CC-PVTZ-RI
    Molecular point group: c1

    Geometry (in Angstrom), charge = 0, multiplicity = 1:

       Center              X                  Y                   Z               Mass
    ------------   -----------------  -----------------  -----------------  -----------------
         O            0.947488698443    -0.970809422765     0.000000372722    15.994914619570
         O           -1.402840001557     1.582396877235     0.000004872722    15.994914619570
         N           -1.729691001557    -0.697639122765    -0.000003127278    14.003074004430
         C            0.493449998443     0.181254877235    -0.000004127278    12.000000000000
         C           -0.962647001557     0.428001877235    -0.000000127278    12.000000000000
         C            1.552680998443     1.051968877235    -0.000003127278    12.000000000000
         C            2.728904998443     0.251883877235    -0.000000127278    12.000000000000
         C            2.313803998443    -1.051472122765     0.000003872722    12.000000000000
         C           -3.177854001557    -0.636464122765     0.000000872722    12.000000000000
         H            1.471405998443     2.129820877235    -0.000009127278     1.007825032230
         H           -1.261533001557    -1.594383122765    -0.000008127278     1.007825032230
         H            3.755708998443     0.591393877235     0.000003872722     1.007825032230
         H            2.824159998443    -2.003257122765     0.000002872722     1.007825032230
         H           -3.454103001557     0.417575877235     0.000000872722     1.007825032230
         H           -3.590657001557    -1.117672122765     0.891316872722     1.007825032230
         H           -3.590661001557    -1.117672122765    -0.891314127278     1.007825032230

  Basis Set: AUG-CC-PVTZ
    Blend: AUG-CC-PVTZ
  Basis Set: (AUG-CC-PVTZ AUX)
    Blend: AUG-CC-PVTZ-JKFIT
	 Reference Energy          =    -435.5874025496166269 [Eh]
	 Singles Energy            =      -0.0000000000000000 [Eh]
	 Same-Spin Energy          =      -0.4480911364581112 [Eh]
	 Opposite-Spin Energy      =      -1.3685598642759724 [Eh]
	 Correlation Energy        =      -1.8166510007340837 [Eh]
	 Total Energy              =    -437.4040535503507385 [Eh]

	 ================> DF-SCS-MP2 Energies <==================
	-----------------------------------------------------------
	 SCS Same-Spin Scale       =       0.3333333333333333 [-]
	 SCS Opposite-Spin Scale   =       1.2000000000000000 [-]
	 SCS Same-Spin Energy      =      -0.1493637121527037 [Eh]
	 SCS Opposite-Spin Energy  =      -1.6422718371311669 [Eh]
	 SCS Correlation Energy    =      -1.7916355492838707 [Eh]
	 SCS Total Energy          =    -437.3790380989004802 [Eh]
	-----------------------------------------------------------

  Dipole Moment: [D]
     X:     0.9471      Y:    -3.6858      Z:    -0.0000     Total:     3.8056

*** Psi4 exiting successfully. Buy a developer a beer!
