                               Psi4 1.4a3.dev225

  ==> Input File <==

--------------------------------------------------------------------------
#psi4
#
memory 32 gb

molecule  {
0 1
  C       -0.0770510     0.1498570    -0.0035670
  O       -0.4282050     1.3271550    -0.0076950
  N       -1.0172596    -0.9191380     0.0538199
  H       -1.9534590    -0.6329030    -0.0980890
  H       -0.7091260    -1.8228460    -0.1895470
  C        1.3740960    -0.2859850     0.0004560
  H        1.5969590    -0.9097150    -0.8707530
  H        1.5972890    -0.8674120     0.8994210
  H        2.0015580     0.6037800    -0.0234480
units angstrom
no_reorient  #important for SAPT in psi4, default
symmetry c1  #important for SAPT in psi4, default
}

set PROPERTIES_ORIGIN ["COM"]
properties('MP2/aug-cc-pvtz', properties = ['dipole'])
--------------------------------------------------------------------------

    Molecular point group: c1
  Charge       = 0
  Multiplicity = 1
  Basis Set: AUG-CC-PVTZ
    Blend: AUG-CC-PVTZ
  Basis Set: (AUG-CC-PVTZ AUX)
    Blend: AUG-CC-PVTZ-JKFIT

    Orbital Energies [Eh]
    ---------------------

    Doubly Occupied:

       1A    -20.531274     2A    -15.581300     3A    -11.364363
       4A    -11.243827     5A     -1.377461     6A     -1.202859
       7A     -1.008716     8A     -0.785861     9A     -0.728341
      10A     -0.663696    11A     -0.614708    12A     -0.593746
      13A     -0.562326    14A     -0.523079    15A     -0.433226
      16A     -0.418264

  @DF-RHF Final Energy:  -208.05812124610131

   => Energetics <=

    Nuclear Repulsion Energy =            120.3511267613981062
    One-Electron Energy =                -521.5524049612301951
    Two-Electron Energy =                 193.1431569537307666
    Total Energy =                       -208.0581212461013081
  Basis Set: (AUG-CC-PVTZ AUX)
    Blend: AUG-CC-PVTZ-RI
    Molecular point group: c1

    Geometry (in Angstrom), charge = 0, multiplicity = 1:

       Center              X                  Y                   Z               Mass
    ------------   -----------------  -----------------  -----------------  -----------------
         C           -0.026637283129     0.097924520786    -0.008794309408    12.000000000000
         O           -0.377791283129     1.275222520786    -0.012922309408    15.994914619570
         N           -0.966845883129    -0.971070479214     0.048592590592    14.003074004430
         H           -1.903045283129    -0.684835479214    -0.103316309408     1.007825032230
         H           -0.658712283129    -1.874778479214    -0.194774309408     1.007825032230
         C            1.424509716871    -0.337917479214    -0.004771309408    12.000000000000
         H            1.647372716871    -0.961647479214    -0.875980309408     1.007825032230
         H            1.647702716871    -0.919344479214     0.894193690592     1.007825032230
         H            2.051971716871     0.551847520786    -0.028675309408     1.007825032230

  Basis Set: AUG-CC-PVTZ
    Blend: AUG-CC-PVTZ
  Basis Set: (AUG-CC-PVTZ AUX)
    Blend: AUG-CC-PVTZ-JKFIT
	 Reference Energy          =    -208.0581212461013081 [Eh]
	 Singles Energy            =      -0.0000000000000000 [Eh]
	 Same-Spin Energy          =      -0.2044160507880538 [Eh]
	 Opposite-Spin Energy      =      -0.6569673695008167 [Eh]
	 Correlation Energy        =      -0.8613834202888705 [Eh]
	 Total Energy              =    -208.9195046663901678 [Eh]

	 ================> DF-SCS-MP2 Energies <==================
	-----------------------------------------------------------
	 SCS Same-Spin Scale       =       0.3333333333333333 [-]
	 SCS Opposite-Spin Scale   =       1.2000000000000000 [-]
	 SCS Same-Spin Energy      =      -0.0681386835960179 [Eh]
	 SCS Opposite-Spin Energy  =      -0.7883608434009800 [Eh]
	 SCS Correlation Energy    =      -0.8564995269969979 [Eh]
	 SCS Total Energy          =    -208.9146207730983065 [Eh]
	-----------------------------------------------------------

  Dipole Moment: [D]
     X:     0.6290      Y:    -3.4384      Z:    -0.5644     Total:     3.5407

*** Psi4 exiting successfully. Buy a developer a beer!
