                               Psi4 1.4a3.dev225

  ==> Input File <==

--------------------------------------------------------------------------
#psi4
#
memory 32 gb

molecule  {
0 1
  C       -0.0770510     0.1498570    -0.0035670
  O       -0.4282050     1.3271550    -0.0076950
  N       -0.9842650    -0.8816240     0.0518060
  H       -1.9055628    -0.6451944    -0.0906814
  H       -0.7091260    -1.8228460    -0.1895470
  C        1.3740960    -0.2859850     0.0004560
  H        1.5969590    -0.9097150    -0.8707530
  H        1.5972890    -0.8674120     0.8994210
  H        2.0015580     0.6037800    -0.0234480
units angstrom
no_reorient  #important for SAPT in psi4, default
symmetry c1  #important for SAPT in psi4, default
}

set PROPERTIES_ORIGIN ["COM"]
properties('MP2/aug-cc-pvtz', properties = ['dipole'])
--------------------------------------------------------------------------

    Molecular point group: c1
  Charge       = 0
  Multiplicity = 1
  Basis Set: AUG-CC-PVTZ
    Blend: AUG-CC-PVTZ
  Basis Set: (AUG-CC-PVTZ AUX)
    Blend: AUG-CC-PVTZ-JKFIT

    Orbital Energies [Eh]
    ---------------------

    Doubly Occupied:

       1A    -20.523718     2A    -15.582605     3A    -11.357952
       4A    -11.241218     5A     -1.376704     6A     -1.216918
       7A     -1.007782     8A     -0.800635     9A     -0.729191
      10A     -0.665754    11A     -0.616267    12A     -0.587239
      13A     -0.562386    14A     -0.526082    15A     -0.430091
      16A     -0.418176

  @DF-RHF Final Energy:  -208.06063591514487

   => Energetics <=

    Nuclear Repulsion Energy =            121.4585818668393955
    One-Electron Energy =                -523.7530004492650733
    Two-Electron Energy =                 194.2337826672808205
    Total Energy =                       -208.0606359151448714
  Basis Set: (AUG-CC-PVTZ AUX)
    Blend: AUG-CC-PVTZ-RI
    Molecular point group: c1

    Geometry (in Angstrom), charge = 0, multiplicity = 1:

       Center              X                  Y                   Z               Mass
    ------------   -----------------  -----------------  -----------------  -----------------
         C           -0.035280944415     0.089236363376    -0.008443085835    12.000000000000
         O           -0.386434944415     1.266534363376    -0.012571085835    15.994914619570
         N           -0.942494944415    -0.942244636624     0.046929914165    14.003074004430
         H           -1.863792744415    -0.705815036624    -0.095557485835     1.007825032230
         H           -0.667355944415    -1.883466636624    -0.194423085835     1.007825032230
         C            1.415866055585    -0.346605636624    -0.004420085835    12.000000000000
         H            1.638729055585    -0.970335636624    -0.875629085835     1.007825032230
         H            1.639059055585    -0.928032636624     0.894544914165     1.007825032230
         H            2.043328055585     0.543159363376    -0.028324085835     1.007825032230

  Basis Set: AUG-CC-PVTZ
    Blend: AUG-CC-PVTZ
  Basis Set: (AUG-CC-PVTZ AUX)
    Blend: AUG-CC-PVTZ-JKFIT
	 Reference Energy          =    -208.0606359151448714 [Eh]
	 Singles Energy            =      -0.0000000000000000 [Eh]
	 Same-Spin Energy          =      -0.2042955603604454 [Eh]
	 Opposite-Spin Energy      =      -0.6559697651977985 [Eh]
	 Correlation Energy        =      -0.8602653255582439 [Eh]
	 Total Energy              =    -208.9209012407031025 [Eh]

	 ================> DF-SCS-MP2 Energies <==================
	-----------------------------------------------------------
	 SCS Same-Spin Scale       =       0.3333333333333333 [-]
	 SCS Opposite-Spin Scale   =       1.2000000000000000 [-]
	 SCS Same-Spin Energy      =      -0.0680985201201485 [Eh]
	 SCS Opposite-Spin Energy  =      -0.7871637182373582 [Eh]
	 SCS Correlation Energy    =      -0.8552622383575067 [Eh]
	 SCS Total Energy          =    -208.9158981535023827 [Eh]
	-----------------------------------------------------------

  Dipole Moment: [D]
     X:     0.4911      Y:    -3.7046      Z:    -0.5381     Total:     3.7756

*** Psi4 exiting successfully. Buy a developer a beer!
