                               Psi4 1.3.2 release

  ==> Input File <==

--------------------------------------------------------------------------
#psi4
#
memory 32 gb

molecule  {
0 1
  C        0.0747750     0.1439390    -0.0006420
  O        0.3599490     1.3396460     0.0001020
  N        1.0295580    -0.8342780    -0.0002470
  H        1.9994870    -0.5504990     0.0019500
  H        0.8093100    -1.8174470     0.0004310
  C       -1.2658614    -0.3113040    -0.0000171
  H       -1.8586250     0.0456800     0.8905520
  H       -1.4535700    -1.4316540    -0.0164900
  H       -1.8684430     0.0738120    -0.8718410
units angstrom
no_reorient  #important for SAPT in psi4, default
symmetry c1  #important for SAPT in psi4, default
}

set PROPERTIES_ORIGIN ["COM"]
properties('MP2/aug-cc-pvtz', properties = ['dipole'])
--------------------------------------------------------------------------

    Molecular point group: c1
  Charge       = 0
  Multiplicity = 1
  Basis Set: AUG-CC-PVTZ
    Blend: AUG-CC-PVTZ
  Basis Set: (AUG-CC-PVTZ AUX)
    Blend: AUG-CC-PVTZ-JKFIT

    Orbital Energies [Eh]
    ---------------------

    Doubly Occupied:

       1A    -20.514364     2A    -15.589202     3A    -11.352119
       4A    -11.245469     5A     -1.374338     6A     -1.212804
       7A     -1.018381     8A     -0.801307     9A     -0.727312
      10A     -0.673722    11A     -0.613865    12A     -0.594861
      13A     -0.542031    14A     -0.508651    15A     -0.429995
      16A     -0.413965

  @DF-RHF Final Energy:  -208.04996566708181

   => Energetics <=

    Nuclear Repulsion Energy =            122.6516113263007242
    One-Electron Energy =                -526.1783782299788754
    Two-Electron Energy =                 195.4768012365963443
    Total Energy =                       -208.0499656670818069
  Basis Set: (AUG-CC-PVTZ AUX)
    Blend: AUG-CC-PVTZ-RI
    Molecular point group: c1

    Geometry (in Angstrom), charge = 0, multiplicity = 1:

       Center              X                  Y                   Z               Mass
    ------------   -----------------  -----------------  -----------------  -----------------
         C            0.015644520338     0.075714427452    -0.000555639627    12.000000000000
         O            0.300818520338     1.271421427452     0.000188360373    15.994914619570
         N            0.970427520338    -0.902502572548    -0.000160639627    14.003074004430
         H            1.940356520338    -0.618723572548     0.002036360373     1.007825032230
         H            0.750179520338    -1.885671572548     0.000517360373     1.007825032230
         C           -1.324991879662    -0.379528572548     0.000069260373    12.000000000000
         H           -1.917755479662    -0.022544572548     0.890638360373     1.007825032230
         H           -1.512700479662    -1.499878572548    -0.016403639627     1.007825032230
         H           -1.927573479662     0.005587427452    -0.871754639627     1.007825032230

  Basis Set: AUG-CC-PVTZ
    Blend: AUG-CC-PVTZ
  Basis Set: (AUG-CC-PVTZ AUX)
    Blend: AUG-CC-PVTZ-JKFIT
	 Reference Energy          =    -208.0499656670818069 [Eh]
	 Singles Energy            =      -0.0000000000000000 [Eh]
	 Same-Spin Energy          =      -0.2057453282539824 [Eh]
	 Opposite-Spin Energy      =      -0.6577680701697113 [Eh]
	 Correlation Energy        =      -0.8635133984236937 [Eh]
	 Total Energy              =    -208.9134790655054985 [Eh]

	 ================> DF-SCS-MP2 Energies <==================
	-----------------------------------------------------------
	 SCS Same-Spin Scale       =       0.3333333333333333 [-]
	 SCS Opposite-Spin Scale   =       1.2000000000000000 [-]
	 SCS Same-Spin Energy      =      -0.0685817760846608 [Eh]
	 SCS Opposite-Spin Energy  =      -0.7893216842036536 [Eh]
	 SCS Correlation Energy    =      -0.8579034602883143 [Eh]
	 SCS Total Energy          =    -208.9078691273701338 [Eh]
	-----------------------------------------------------------

  Dipole Moment: [D]
     X:    -0.3103      Y:    -3.8761      Z:     0.0055     Total:     3.8885

*** Psi4 exiting successfully. Buy a developer a beer!
