                               Psi4 1.4a3.dev225

  ==> Input File <==

--------------------------------------------------------------------------
#psi4
#
memory 32 gb

molecule  {
0 1
  C       -0.0770510     0.1498570    -0.0035670
  O       -0.4282050     1.3271550    -0.0076950
  N       -0.9710672    -0.8666184     0.0510005
  H       -1.9534590    -0.6329030    -0.0980890
  H       -0.7091260    -1.8228460    -0.1895470
  C        1.3740960    -0.2859850     0.0004560
  H        1.5969590    -0.9097150    -0.8707530
  H        1.5972890    -0.8674120     0.8994210
  H        2.0015580     0.6037800    -0.0234480
units angstrom
no_reorient  #important for SAPT in psi4, default
symmetry c1  #important for SAPT in psi4, default
}

set PROPERTIES_ORIGIN ["COM"]
properties('MP2/aug-cc-pvtz', properties = ['dipole'])
--------------------------------------------------------------------------

    Molecular point group: c1
  Charge       = 0
  Multiplicity = 1
  Basis Set: AUG-CC-PVTZ
    Blend: AUG-CC-PVTZ
  Basis Set: (AUG-CC-PVTZ AUX)
    Blend: AUG-CC-PVTZ-JKFIT

    Orbital Energies [Eh]
    ---------------------

    Doubly Occupied:

       1A    -20.519737     2A    -15.589518     3A    -11.354701
       4A    -11.240135     5A     -1.375241     6A     -1.213331
       7A     -1.004927     8A     -0.800162     9A     -0.717262
      10A     -0.663510    11A     -0.616701    12A     -0.581912
      13A     -0.560497    14A     -0.526669    15A     -0.427881
      16A     -0.416487

  @DF-RHF Final Energy:  -208.06075068992010

   => Energetics <=

    Nuclear Repulsion Energy =            121.5498973709542554
    One-Electron Energy =                -524.0039545525251015
    Two-Electron Energy =                 194.3933064916507760
    Total Energy =                       -208.0607506899200985
  Basis Set: (AUG-CC-PVTZ AUX)
    Blend: AUG-CC-PVTZ-RI
    Molecular point group: c1

    Geometry (in Angstrom), charge = 0, multiplicity = 1:

       Center              X                  Y                   Z               Mass
    ------------   -----------------  -----------------  -----------------  -----------------
         C           -0.037593706203     0.085467342609    -0.008125573010    12.000000000000
         O           -0.388747706203     1.262765342609    -0.012253573010    15.994914619570
         N           -0.931609906203    -0.931008057391     0.046441926990    14.003074004430
         H           -1.914001706203    -0.697292657391    -0.102647573010     1.007825032230
         H           -0.669668706203    -1.887235657391    -0.194105573010     1.007825032230
         C            1.413553293797    -0.350374657391    -0.004102573010    12.000000000000
         H            1.636416293797    -0.974104657391    -0.875311573010     1.007825032230
         H            1.636746293797    -0.931801657391     0.894862426990     1.007825032230
         H            2.041015293797     0.539390342609    -0.028006573010     1.007825032230

  Basis Set: AUG-CC-PVTZ
    Blend: AUG-CC-PVTZ
  Basis Set: (AUG-CC-PVTZ AUX)
    Blend: AUG-CC-PVTZ-JKFIT
	 Reference Energy          =    -208.0607506899200985 [Eh]
	 Singles Energy            =      -0.0000000000000000 [Eh]
	 Same-Spin Energy          =      -0.2047023490537623 [Eh]
	 Opposite-Spin Energy      =      -0.6566843917290645 [Eh]
	 Correlation Energy        =      -0.8613867407828267 [Eh]
	 Total Energy              =    -208.9221374307029180 [Eh]

	 ================> DF-SCS-MP2 Energies <==================
	-----------------------------------------------------------
	 SCS Same-Spin Scale       =       0.3333333333333333 [-]
	 SCS Opposite-Spin Scale   =       1.2000000000000000 [-]
	 SCS Same-Spin Energy      =      -0.0682341163512541 [Eh]
	 SCS Opposite-Spin Energy  =      -0.7880212700748773 [Eh]
	 SCS Correlation Energy    =      -0.8562553864261314 [Eh]
	 SCS Total Energy          =    -208.9170060763462402 [Eh]
	-----------------------------------------------------------

  Dipole Moment: [D]
     X:     0.3750      Y:    -3.8000      Z:    -0.5348     Total:     3.8557

*** Psi4 exiting successfully. Buy a developer a beer!
