                               Psi4 1.4a3.dev225

  ==> Input File <==

--------------------------------------------------------------------------
#psi4
#
memory 32 gb

molecule  {
0 1
  C       -0.0770510     0.1498570    -0.0035670
  O       -0.4282050     1.3271550    -0.0076950
  N       -0.9842650    -0.8816240     0.0518060
  H       -1.9343005    -0.6378196    -0.0951260
  H       -0.7091260    -1.8228460    -0.1895470
  C        1.3740960    -0.2859850     0.0004560
  H        1.5969590    -0.9097150    -0.8707530
  H        1.5972890    -0.8674120     0.8994210
  H        2.0015580     0.6037800    -0.0234480
units angstrom
no_reorient  #important for SAPT in psi4, default
symmetry c1  #important for SAPT in psi4, default
}

set PROPERTIES_ORIGIN ["COM"]
properties('MP2/aug-cc-pvtz', properties = ['dipole'])
--------------------------------------------------------------------------

    Molecular point group: c1
  Charge       = 0
  Multiplicity = 1
  Basis Set: AUG-CC-PVTZ
    Blend: AUG-CC-PVTZ
  Basis Set: (AUG-CC-PVTZ AUX)
    Blend: AUG-CC-PVTZ-JKFIT

    Orbital Energies [Eh]
    ---------------------

    Doubly Occupied:

       1A    -20.523371     2A    -15.585357     3A    -11.357751
       4A    -11.241199     5A     -1.376072     6A     -1.212713
       7A     -1.006701     8A     -0.797683     9A     -0.723784
      10A     -0.664673    11A     -0.616062    12A     -0.586182
      13A     -0.561736    14A     -0.525735    15A     -0.429790
      16A     -0.417542

  @DF-RHF Final Energy:  -208.06160319029135

   => Energetics <=

    Nuclear Repulsion Energy =            121.2995637310093286
    One-Electron Energy =                -523.4696291842680012
    Two-Electron Energy =                 194.1084622629672936
    Total Energy =                       -208.0616031902913505
  Basis Set: (AUG-CC-PVTZ AUX)
    Blend: AUG-CC-PVTZ-RI
    Molecular point group: c1

    Geometry (in Angstrom), charge = 0, multiplicity = 1:

       Center              X                  Y                   Z               Mass
    ------------   -----------------  -----------------  -----------------  -----------------
         C           -0.034790361940     0.089110467858    -0.008367211883    12.000000000000
         O           -0.385944361940     1.266408467858    -0.012495211883    15.994914619570
         N           -0.942004361940    -0.942370532142     0.047005788117    14.003074004430
         H           -1.892039861940    -0.698566132142    -0.099926211883     1.007825032230
         H           -0.666865361940    -1.883592532142    -0.194347211883     1.007825032230
         C            1.416356638060    -0.346731532142    -0.004344211883    12.000000000000
         H            1.639219638060    -0.970461532142    -0.875553211883     1.007825032230
         H            1.639549638060    -0.928158532142     0.894620788117     1.007825032230
         H            2.043818638060     0.543033467858    -0.028248211883     1.007825032230

  Basis Set: AUG-CC-PVTZ
    Blend: AUG-CC-PVTZ
  Basis Set: (AUG-CC-PVTZ AUX)
    Blend: AUG-CC-PVTZ-JKFIT
	 Reference Energy          =    -208.0616031902913505 [Eh]
	 Singles Energy            =      -0.0000000000000000 [Eh]
	 Same-Spin Energy          =      -0.2044709180905212 [Eh]
	 Opposite-Spin Energy      =      -0.6563996179305119 [Eh]
	 Correlation Energy        =      -0.8608705360210331 [Eh]
	 Total Energy              =    -208.9224737263123757 [Eh]

	 ================> DF-SCS-MP2 Energies <==================
	-----------------------------------------------------------
	 SCS Same-Spin Scale       =       0.3333333333333333 [-]
	 SCS Opposite-Spin Scale   =       1.2000000000000000 [-]
	 SCS Same-Spin Energy      =      -0.0681569726968404 [Eh]
	 SCS Opposite-Spin Energy  =      -0.7876795415166143 [Eh]
	 SCS Correlation Energy    =      -0.8558365142134547 [Eh]
	 SCS Total Energy          =    -208.9174397045048011 [Eh]
	-----------------------------------------------------------

  Dipole Moment: [D]
     X:     0.4646      Y:    -3.6993      Z:    -0.5410     Total:     3.7674

*** Psi4 exiting successfully. Buy a developer a beer!
