                               Psi4 1.4a3.dev225

  ==> Input File <==

--------------------------------------------------------------------------
#psi4
#
memory 32 gb

molecule  {
0 1
  C       -0.0770510     0.1498570    -0.0035670
  O       -0.4339215     1.3463205    -0.0077622
  N       -0.9842650    -0.8816240     0.0518060
  H       -1.9534590    -0.6329030    -0.0980890
  H       -0.7091260    -1.8228460    -0.1895470
  C        1.3740960    -0.2859850     0.0004560
  H        1.5969590    -0.9097150    -0.8707530
  H        1.5972890    -0.8674120     0.8994210
  H        2.0015580     0.6037800    -0.0234480
units angstrom
no_reorient  #important for SAPT in psi4, default
symmetry c1  #important for SAPT in psi4, default
}

set PROPERTIES_ORIGIN ["COM"]
properties('MP2/aug-cc-pvtz', properties = ['dipole'])
--------------------------------------------------------------------------

    Molecular point group: c1
  Charge       = 0
  Multiplicity = 1
  Basis Set: AUG-CC-PVTZ
    Blend: AUG-CC-PVTZ
  Basis Set: (AUG-CC-PVTZ AUX)
    Blend: AUG-CC-PVTZ-JKFIT

    Orbital Energies [Eh]
    ---------------------

    Doubly Occupied:

       1A    -20.523002     2A    -15.590100     3A    -11.361572
       4A    -11.242913     5A     -1.363671     6A     -1.211049
       7A     -1.007392     8A     -0.797978     9A     -0.721487
      10A     -0.661547    11A     -0.615004    12A     -0.580822
      13A     -0.562071    14A     -0.523287    15A     -0.428877
      16A     -0.416091

  @DF-RHF Final Energy:  -208.05841777510352

   => Energetics <=

    Nuclear Repulsion Energy =            120.6575874706270355
    One-Electron Energy =                -522.2182834040726220
    Two-Electron Energy =                 193.5022781583420510
    Total Energy =                       -208.0584177751035213
  Basis Set: (AUG-CC-PVTZ AUX)
    Blend: AUG-CC-PVTZ-RI
    Molecular point group: c1

    Geometry (in Angstrom), charge = 0, multiplicity = 1:

       Center              X                  Y                   Z               Mass
    ------------   -----------------  -----------------  -----------------  -----------------
         C           -0.032914536070     0.083834030906    -0.008298423903    12.000000000000
         O           -0.389785036070     1.280297530906    -0.012493623903    15.994914619570
         N           -0.940128536070    -0.947646969094     0.047074576097    14.003074004430
         H           -1.909322536070    -0.698925969094    -0.102820423903     1.007825032230
         H           -0.664989536070    -1.888868969094    -0.194278423903     1.007825032230
         C            1.418232463930    -0.352007969094    -0.004275423903    12.000000000000
         H            1.641095463930    -0.975737969094    -0.875484423903     1.007825032230
         H            1.641425463930    -0.933434969094     0.894689576097     1.007825032230
         H            2.045694463930     0.537757030906    -0.028179423903     1.007825032230

  Basis Set: AUG-CC-PVTZ
    Blend: AUG-CC-PVTZ
  Basis Set: (AUG-CC-PVTZ AUX)
    Blend: AUG-CC-PVTZ-JKFIT
	 Reference Energy          =    -208.0584177751035213 [Eh]
	 Singles Energy            =      -0.0000000000000000 [Eh]
	 Same-Spin Energy          =      -0.2050589948399751 [Eh]
	 Opposite-Spin Energy      =      -0.6578739741238595 [Eh]
	 Correlation Energy        =      -0.8629329689638346 [Eh]
	 Total Energy              =    -208.9213507440673538 [Eh]

	 ================> DF-SCS-MP2 Energies <==================
	-----------------------------------------------------------
	 SCS Same-Spin Scale       =       0.3333333333333333 [-]
	 SCS Opposite-Spin Scale   =       1.2000000000000000 [-]
	 SCS Same-Spin Energy      =      -0.0683529982799917 [Eh]
	 SCS Opposite-Spin Energy  =      -0.7894487689486314 [Eh]
	 SCS Correlation Energy    =      -0.8578017672286231 [Eh]
	 SCS Total Energy          =    -208.9162195423321577 [Eh]
	-----------------------------------------------------------

  Dipole Moment: [D]
     X:     0.4611      Y:    -3.8088      Z:    -0.5402     Total:     3.8744

*** Psi4 exiting successfully. Buy a developer a beer!
