                               Psi4 1.3.2 release

  ==> Input File <==

--------------------------------------------------------------------------
#psi4
#
memory 32 gb

molecule  {
0 1
  C        0.0747750     0.1439390    -0.0006420
  O        0.3599490     1.3396460     0.0001020
  N        1.0295580    -0.8342780    -0.0002470
  H        2.1914395    -0.4943381     0.0023848
  H        0.8093100    -1.8174470     0.0004310
  C       -1.3605510    -0.3434580     0.0000270
  H       -1.8586250     0.0456800     0.8905520
  H       -1.4535700    -1.4316540    -0.0164900
  H       -1.8684430     0.0738120    -0.8718410
units angstrom
no_reorient  #important for SAPT in psi4, default
symmetry c1  #important for SAPT in psi4, default
}

set PROPERTIES_ORIGIN ["COM"]
properties('MP2/aug-cc-pvtz', properties = ['dipole'])
--------------------------------------------------------------------------

    Molecular point group: c1
  Charge       = 0
  Multiplicity = 1
  Basis Set: AUG-CC-PVTZ
    Blend: AUG-CC-PVTZ
  Basis Set: (AUG-CC-PVTZ AUX)
    Blend: AUG-CC-PVTZ-JKFIT

    Orbital Energies [Eh]
    ---------------------

    Doubly Occupied:

       1A    -20.514398     2A    -15.604072     3A    -11.356082
       4A    -11.241141     5A     -1.368881     6A     -1.193142
       7A     -0.999917     8A     -0.790319     9A     -0.693247
      10A     -0.651593    11A     -0.612560    12A     -0.577685
      13A     -0.552694    14A     -0.521373    15A     -0.422923
      16A     -0.410791

  @DF-RHF Final Energy:  -208.03159555278651

   => Energetics <=

    Nuclear Repulsion Energy =            120.3885272768811490
    One-Electron Energy =                -521.8186074611603544
    Two-Electron Energy =                 193.3984846314926642
    Total Energy =                       -208.0315955527865128
  Basis Set: (AUG-CC-PVTZ AUX)
    Blend: AUG-CC-PVTZ-RI
    Molecular point group: c1

    Geometry (in Angstrom), charge = 0, multiplicity = 1:

       Center              X                  Y                   Z               Mass
    ------------   -----------------  -----------------  -----------------  -----------------
         C            0.031614485755     0.081291387741    -0.000572025968    12.000000000000
         O            0.316788485755     1.276998387741     0.000171974032    15.994914619570
         N            0.986397485755    -0.896925612259    -0.000177025968    14.003074004430
         H            2.148278985755    -0.556985712259     0.002454774032     1.007825032230
         H            0.766149485755    -1.880094612259     0.000500974032     1.007825032230
         C           -1.403711514245    -0.406105612259     0.000096974032    12.000000000000
         H           -1.901785514245    -0.016967612259     0.890621974032     1.007825032230
         H           -1.496730514245    -1.494301612259    -0.016420025968     1.007825032230
         H           -1.911603514245     0.011164387741    -0.871771025968     1.007825032230

  Basis Set: AUG-CC-PVTZ
    Blend: AUG-CC-PVTZ
  Basis Set: (AUG-CC-PVTZ AUX)
    Blend: AUG-CC-PVTZ-JKFIT
	 Reference Energy          =    -208.0315955527865128 [Eh]
	 Singles Energy            =      -0.0000000000000000 [Eh]
	 Same-Spin Energy          =      -0.2060901560524340 [Eh]
	 Opposite-Spin Energy      =      -0.6603177694638709 [Eh]
	 Correlation Energy        =      -0.8664079255163049 [Eh]
	 Total Energy              =    -208.8980034783028259 [Eh]

	 ================> DF-SCS-MP2 Energies <==================
	-----------------------------------------------------------
	 SCS Same-Spin Scale       =       0.3333333333333333 [-]
	 SCS Opposite-Spin Scale   =       1.2000000000000000 [-]
	 SCS Same-Spin Energy      =      -0.0686967186841447 [Eh]
	 SCS Opposite-Spin Energy  =      -0.7923813233566450 [Eh]
	 SCS Correlation Energy    =      -0.8610780420407897 [Eh]
	 SCS Total Energy          =    -208.8926735948273006 [Eh]
	-----------------------------------------------------------

  Dipole Moment: [D]
     X:     0.0191      Y:    -3.7992      Z:     0.0052     Total:     3.7992

*** Psi4 exiting successfully. Buy a developer a beer!
