                               Psi4 1.4a3.dev225

  ==> Input File <==

--------------------------------------------------------------------------
#psi4
#
memory 32 gb

molecule  {
0 1
  C       -0.0770510     0.1498570    -0.0035670
  O       -0.4424963     1.3750688    -0.0078630
  N       -0.9842650    -0.8816240     0.0518060
  H       -1.9534590    -0.6329030    -0.0980890
  H       -0.7091260    -1.8228460    -0.1895470
  C        1.3740960    -0.2859850     0.0004560
  H        1.5969590    -0.9097150    -0.8707530
  H        1.5972890    -0.8674120     0.8994210
  H        2.0015580     0.6037800    -0.0234480
units angstrom
no_reorient  #important for SAPT in psi4, default
symmetry c1  #important for SAPT in psi4, default
}

set PROPERTIES_ORIGIN ["COM"]
properties('MP2/aug-cc-pvtz', properties = ['dipole'])
--------------------------------------------------------------------------

    Molecular point group: c1
  Charge       = 0
  Multiplicity = 1
  Basis Set: AUG-CC-PVTZ
    Blend: AUG-CC-PVTZ
  Basis Set: (AUG-CC-PVTZ AUX)
    Blend: AUG-CC-PVTZ-JKFIT

    Orbital Energies [Eh]
    ---------------------

    Doubly Occupied:

       1A    -20.522669     2A    -15.594520     3A    -11.367270
       4A    -11.245409     5A     -1.346887     6A     -1.211991
       7A     -1.009454     8A     -0.801035     9A     -0.723646
      10A     -0.658510    11A     -0.614173    12A     -0.573932
      13A     -0.563050    14A     -0.520361    15A     -0.427553
      16A     -0.414023

  @DF-RHF Final Energy:  -208.05244471200470

   => Energetics <=

    Nuclear Repulsion Energy =            119.8711500564658934
    One-Electron Energy =                -520.6582284320435292
    Two-Electron Energy =                 192.7346336635729074
    Total Energy =                       -208.0524447120047000
  Basis Set: (AUG-CC-PVTZ AUX)
    Blend: AUG-CC-PVTZ-RI
    Molecular point group: c1

    Geometry (in Angstrom), charge = 0, multiplicity = 1:

       Center              X                  Y                   Z               Mass
    ------------   -----------------  -----------------  -----------------  -----------------
         C           -0.030591367048     0.076045259158    -0.008271114177    12.000000000000
         O           -0.396036667048     1.301257059158    -0.012567114177    15.994914619570
         N           -0.937805367048    -0.955435740842     0.047101885823    14.003074004430
         H           -1.906999367048    -0.706714740842    -0.102793114177     1.007825032230
         H           -0.662666367048    -1.896657740842    -0.194251114177     1.007825032230
         C            1.420555632952    -0.359796740842    -0.004248114177    12.000000000000
         H            1.643418632952    -0.983526740842    -0.875457114177     1.007825032230
         H            1.643748632952    -0.941223740842     0.894716885823     1.007825032230
         H            2.048017632952     0.529968259158    -0.028152114177     1.007825032230

  Basis Set: AUG-CC-PVTZ
    Blend: AUG-CC-PVTZ
  Basis Set: (AUG-CC-PVTZ AUX)
    Blend: AUG-CC-PVTZ-JKFIT
	 Reference Energy          =    -208.0524447120047000 [Eh]
	 Singles Energy            =      -0.0000000000000000 [Eh]
	 Same-Spin Energy          =      -0.2057576523659178 [Eh]
	 Opposite-Spin Energy      =      -0.6596261947156842 [Eh]
	 Correlation Energy        =      -0.8653838470816020 [Eh]
	 Total Energy              =    -208.9178285590863027 [Eh]

	 ================> DF-SCS-MP2 Energies <==================
	-----------------------------------------------------------
	 SCS Same-Spin Scale       =       0.3333333333333333 [-]
	 SCS Opposite-Spin Scale   =       1.2000000000000000 [-]
	 SCS Same-Spin Energy      =      -0.0685858841219726 [Eh]
	 SCS Opposite-Spin Energy  =      -0.7915514336588210 [Eh]
	 SCS Correlation Energy    =      -0.8601373177807936 [Eh]
	 SCS Total Energy          =    -208.9125820297854830 [Eh]
	-----------------------------------------------------------

  Dipole Moment: [D]
     X:     0.4810      Y:    -3.9732      Z:    -0.5361     Total:     4.0379

*** Psi4 exiting successfully. Buy a developer a beer!
