                               Psi4 1.3.2 release

  ==> Input File <==

--------------------------------------------------------------------------
#psi4
#
memory 32 gb

molecule  {
0 1
  C        0.0747750     0.1439390    -0.0006420
  O        0.3180457     1.3488700     0.0001402
  N        1.0295580    -0.8342780    -0.0002470
  H        1.9994870    -0.5504990     0.0019500
  H        0.8093100    -1.8174470     0.0004310
  C       -1.3605510    -0.3434580     0.0000270
  H       -1.8586250     0.0456800     0.8905520
  H       -1.4535700    -1.4316540    -0.0164900
  H       -1.8684430     0.0738120    -0.8718410
units angstrom
no_reorient  #important for SAPT in psi4, default
symmetry c1  #important for SAPT in psi4, default
}

set PROPERTIES_ORIGIN ["COM"]
properties('MP2/aug-cc-pvtz', properties = ['dipole'])
--------------------------------------------------------------------------

    Molecular point group: c1
  Charge       = 0
  Multiplicity = 1
  Basis Set: AUG-CC-PVTZ
    Blend: AUG-CC-PVTZ
  Basis Set: (AUG-CC-PVTZ AUX)
    Blend: AUG-CC-PVTZ-JKFIT

    Orbital Energies [Eh]
    ---------------------

    Doubly Occupied:

       1A    -20.517211     2A    -15.592685     3A    -11.357407
       4A    -11.238711     5A     -1.372042     6A     -1.214199
       7A     -1.002889     8A     -0.802349     9A     -0.727307
      10A     -0.663651    11A     -0.613177    12A     -0.583728
      13A     -0.560870    14A     -0.522619    15A     -0.423806
      16A     -0.416638

  @DF-RHF Final Energy:  -208.06108478306419

   => Energetics <=

    Nuclear Repulsion Energy =            121.2575001509798369
    One-Electron Energy =                -523.4185944136318085
    Two-Electron Energy =                 194.1000094795878113
    Total Energy =                       -208.0610847830641887
  Basis Set: (AUG-CC-PVTZ AUX)
    Blend: AUG-CC-PVTZ-RI
    Molecular point group: c1

    Geometry (in Angstrom), charge = 0, multiplicity = 1:

       Center              X                  Y                   Z               Mass
    ------------   -----------------  -----------------  -----------------  -----------------
         C            0.046244168423     0.079751056146    -0.000574952999    12.000000000000
         O            0.289514868423     1.284682056146     0.000207247001    15.994914619570
         N            1.001027168423    -0.898465943854    -0.000179952999    14.003074004430
         H            1.970956168423    -0.614686943854     0.002017047001     1.007825032230
         H            0.780779168423    -1.881634943854     0.000498047001     1.007825032230
         C           -1.389081831577    -0.407645943854     0.000094047001    12.000000000000
         H           -1.887155831577    -0.018507943854     0.890619047001     1.007825032230
         H           -1.482100831577    -1.495841943854    -0.016422952999     1.007825032230
         H           -1.896973831577     0.009624056146    -0.871773952999     1.007825032230

  Basis Set: AUG-CC-PVTZ
    Blend: AUG-CC-PVTZ
  Basis Set: (AUG-CC-PVTZ AUX)
    Blend: AUG-CC-PVTZ-JKFIT
	 Reference Energy          =    -208.0610847830641887 [Eh]
	 Singles Energy            =      -0.0000000000000000 [Eh]
	 Same-Spin Energy          =      -0.2047595763143523 [Eh]
	 Opposite-Spin Energy      =      -0.6566501692005972 [Eh]
	 Correlation Energy        =      -0.8614097455149495 [Eh]
	 Total Energy              =    -208.9224945285791364 [Eh]

	 ================> DF-SCS-MP2 Energies <==================
	-----------------------------------------------------------
	 SCS Same-Spin Scale       =       0.3333333333333333 [-]
	 SCS Opposite-Spin Scale   =       1.2000000000000000 [-]
	 SCS Same-Spin Energy      =      -0.0682531921047841 [Eh]
	 SCS Opposite-Spin Energy  =      -0.7879802030407166 [Eh]
	 SCS Correlation Energy    =      -0.8562333951455007 [Eh]
	 SCS Total Energy          =    -208.9173181782096833 [Eh]
	-----------------------------------------------------------

  Dipole Moment: [D]
     X:    -0.0305      Y:    -3.8620      Z:     0.0047     Total:     3.8622

*** Psi4 exiting successfully. Buy a developer a beer!
