                               Psi4 1.3.2 release

  ==> Input File <==

--------------------------------------------------------------------------
#psi4
#
memory 32 gb

molecule  {
0 1
  C        0.0747750     0.1439390    -0.0006420
  O        0.3599490     1.3396460     0.0001020
  N        1.0994063    -0.9058407    -0.0002181
  H        1.9994870    -0.5504990     0.0019500
  H        0.8093100    -1.8174470     0.0004310
  C       -1.3605510    -0.3434580     0.0000270
  H       -1.8586250     0.0456800     0.8905520
  H       -1.4535700    -1.4316540    -0.0164900
  H       -1.8684430     0.0738120    -0.8718410
units angstrom
no_reorient  #important for SAPT in psi4, default
symmetry c1  #important for SAPT in psi4, default
}

set PROPERTIES_ORIGIN ["COM"]
properties('MP2/aug-cc-pvtz', properties = ['dipole'])
--------------------------------------------------------------------------

    Molecular point group: c1
  Charge       = 0
  Multiplicity = 1
  Basis Set: AUG-CC-PVTZ
    Blend: AUG-CC-PVTZ
  Basis Set: (AUG-CC-PVTZ AUX)
    Blend: AUG-CC-PVTZ-JKFIT

    Orbital Energies [Eh]
    ---------------------

    Doubly Occupied:

       1A    -20.532892     2A    -15.577775     3A    -11.370457
       4A    -11.246238     5A     -1.376451     6A     -1.198389
       7A     -1.010257     8A     -0.780946     9A     -0.746295
      10A     -0.661775    11A     -0.612379    12A     -0.599653
      13A     -0.564221    14A     -0.518362    15A     -0.430639
      16A     -0.416794

  @DF-RHF Final Energy:  -208.04866996903138

   => Energetics <=

    Nuclear Repulsion Energy =            119.6303536956624924
    One-Electron Energy =                -520.0710041114633668
    Two-Electron Energy =                 192.3919804467694803
    Total Energy =                       -208.0486699690313799
  Basis Set: (AUG-CC-PVTZ AUX)
    Blend: AUG-CC-PVTZ-RI
    Molecular point group: c1

    Geometry (in Angstrom), charge = 0, multiplicity = 1:

       Center              X                  Y                   Z               Mass
    ------------   -----------------  -----------------  -----------------  -----------------
         C            0.018323924460     0.099224143545    -0.000571458300    12.000000000000
         O            0.303497924460     1.294931143545     0.000172541700    15.994914619570
         N            1.042955224460    -0.950555556455    -0.000147558300    14.003074004430
         H            1.943035924460    -0.595213856455     0.002020541700     1.007825032230
         H            0.752858924460    -1.862161856455     0.000501541700     1.007825032230
         C           -1.417002075540    -0.388172856455     0.000097541700    12.000000000000
         H           -1.915076075540     0.000965143545     0.890622541700     1.007825032230
         H           -1.510021075540    -1.476368856455    -0.016419458300     1.007825032230
         H           -1.924894075540     0.029097143545    -0.871770458300     1.007825032230

  Basis Set: AUG-CC-PVTZ
    Blend: AUG-CC-PVTZ
  Basis Set: (AUG-CC-PVTZ AUX)
    Blend: AUG-CC-PVTZ-JKFIT
	 Reference Energy          =    -208.0486699690313799 [Eh]
	 Singles Energy            =      -0.0000000000000000 [Eh]
	 Same-Spin Energy          =      -0.2046188572412280 [Eh]
	 Opposite-Spin Energy      =      -0.6575172855890992 [Eh]
	 Correlation Energy        =      -0.8621361428303271 [Eh]
	 Total Energy              =    -208.9108061118617172 [Eh]

	 ================> DF-SCS-MP2 Energies <==================
	-----------------------------------------------------------
	 SCS Same-Spin Scale       =       0.3333333333333333 [-]
	 SCS Opposite-Spin Scale   =       1.2000000000000000 [-]
	 SCS Same-Spin Energy      =      -0.0682062857470760 [Eh]
	 SCS Opposite-Spin Energy  =      -0.7890207427069190 [Eh]
	 SCS Correlation Energy    =      -0.8572270284539950 [Eh]
	 SCS Total Energy          =    -208.9058969974853710 [Eh]
	-----------------------------------------------------------

  Dipole Moment: [D]
     X:    -0.5429      Y:    -3.3461      Z:     0.0051     Total:     3.3899

*** Psi4 exiting successfully. Buy a developer a beer!
