                               Psi4 1.4a3.dev225

  ==> Input File <==

--------------------------------------------------------------------------
#psi4
#
memory 32 gb

molecule  {
0 1
  C       -0.0770510     0.1498570    -0.0035670
  O       -0.4282050     1.3271550    -0.0076950
  N       -0.9842650    -0.8816240     0.0518060
  H       -1.9534590    -0.6329030    -0.0980890
  H       -0.7091260    -1.8228460    -0.1895470
  C        1.3932506    -0.2917380     0.0005091
  H        1.5969590    -0.9097150    -0.8707530
  H        1.5972890    -0.8674120     0.8994210
  H        2.0015580     0.6037800    -0.0234480
units angstrom
no_reorient  #important for SAPT in psi4, default
symmetry c1  #important for SAPT in psi4, default
}

set PROPERTIES_ORIGIN ["COM"]
properties('MP2/aug-cc-pvtz', properties = ['dipole'])
--------------------------------------------------------------------------

    Molecular point group: c1
  Charge       = 0
  Multiplicity = 1
  Basis Set: AUG-CC-PVTZ
    Blend: AUG-CC-PVTZ
  Basis Set: (AUG-CC-PVTZ AUX)
    Blend: AUG-CC-PVTZ-JKFIT

    Orbital Energies [Eh]
    ---------------------

    Doubly Occupied:

       1A    -20.523403     2A    -15.587411     3A    -11.358407
       4A    -11.240655     5A     -1.375315     6A     -1.209898
       7A     -1.003972     8A     -0.795825     9A     -0.719892
      10A     -0.662216    11A     -0.616611    12A     -0.583426
      13A     -0.564065    14A     -0.528156    15A     -0.428222
      16A     -0.416941

  @DF-RHF Final Energy:  -208.06101347642894

   => Energetics <=

    Nuclear Repulsion Energy =            120.9343697586904938
    One-Electron Energy =                -522.7619401439818603
    Two-Electron Energy =                 193.7665569088624409
    Total Energy =                       -208.0610134764289398
  Basis Set: (AUG-CC-PVTZ AUX)
    Blend: AUG-CC-PVTZ-RI
    Molecular point group: c1

    Geometry (in Angstrom), charge = 0, multiplicity = 1:

       Center              X                  Y                   Z               Mass
    ------------   -----------------  -----------------  -----------------  -----------------
         C           -0.038356708101     0.090195902482    -0.008327423597    12.000000000000
         O           -0.389510708101     1.267493902482    -0.012455423597    15.994914619570
         N           -0.945570708101    -0.941285097518     0.047045576403    14.003074004430
         H           -1.914764708101    -0.692564097518    -0.102849423597     1.007825032230
         H           -0.670431708101    -1.882507097518    -0.194307423597     1.007825032230
         C            1.431944891899    -0.351399097518    -0.004251323597    12.000000000000
         H            1.635653291899    -0.969376097518    -0.875513423597     1.007825032230
         H            1.635983291899    -0.927073097518     0.894660576403     1.007825032230
         H            2.040252291899     0.544118902482    -0.028208423597     1.007825032230

  Basis Set: AUG-CC-PVTZ
    Blend: AUG-CC-PVTZ
  Basis Set: (AUG-CC-PVTZ AUX)
    Blend: AUG-CC-PVTZ-JKFIT
	 Reference Energy          =    -208.0610134764289398 [Eh]
	 Singles Energy            =      -0.0000000000000000 [Eh]
	 Same-Spin Energy          =      -0.2044998689995298 [Eh]
	 Opposite-Spin Energy      =      -0.6566469997816186 [Eh]
	 Correlation Energy        =      -0.8611468687811483 [Eh]
	 Total Energy              =    -208.9221603452101022 [Eh]

	 ================> DF-SCS-MP2 Energies <==================
	-----------------------------------------------------------
	 SCS Same-Spin Scale       =       0.3333333333333333 [-]
	 SCS Opposite-Spin Scale   =       1.2000000000000000 [-]
	 SCS Same-Spin Energy      =      -0.0681666229998433 [Eh]
	 SCS Opposite-Spin Energy  =      -0.7879763997379422 [Eh]
	 SCS Correlation Energy    =      -0.8561430227377854 [Eh]
	 SCS Total Energy          =    -208.9171564991667367 [Eh]
	-----------------------------------------------------------

  Dipole Moment: [D]
     X:     0.4180      Y:    -3.6879      Z:    -0.5431     Total:     3.7511

*** Psi4 exiting successfully. Buy a developer a beer!
