                               Psi4 1.3.2 release

  ==> Input File <==

--------------------------------------------------------------------------
#psi4
#
memory 32 gb

molecule  {
0 1
  C        0.0747750     0.1439390    -0.0006420
  O        0.3599490     1.3396460     0.0001020
  N        1.0295580    -0.8342780    -0.0002470
  H        1.9035107    -0.5785795     0.0017326
  H        0.8093100    -1.8174470     0.0004310
  C       -1.3605510    -0.3434580     0.0000270
  H       -1.8586250     0.0456800     0.8905520
  H       -1.4535700    -1.4316540    -0.0164900
  H       -1.8684430     0.0738120    -0.8718410
units angstrom
no_reorient  #important for SAPT in psi4, default
symmetry c1  #important for SAPT in psi4, default
}

set PROPERTIES_ORIGIN ["COM"]
properties('MP2/aug-cc-pvtz', properties = ['dipole'])
--------------------------------------------------------------------------

    Molecular point group: c1
  Charge       = 0
  Multiplicity = 1
  Basis Set: AUG-CC-PVTZ
    Blend: AUG-CC-PVTZ
  Basis Set: (AUG-CC-PVTZ AUX)
    Blend: AUG-CC-PVTZ-JKFIT

    Orbital Energies [Eh]
    ---------------------

    Doubly Occupied:

       1A    -20.517919     2A    -15.581081     3A    -11.357978
       4A    -11.241015     5A     -1.374669     6A     -1.226027
       7A     -1.008653     8A     -0.812221     9A     -0.744494
      10A     -0.666433    11A     -0.614438    12A     -0.587190
      13A     -0.564403    14A     -0.524733    15A     -0.425550
      16A     -0.417099

  @DF-RHF Final Energy:  -208.05443011446479

   => Energetics <=

    Nuclear Repulsion Energy =            121.8112726171631692
    One-Electron Energy =                -524.4035988250062701
    Two-Electron Energy =                 194.5378960933782935
    Total Energy =                       -208.0544301144647932
  Basis Set: (AUG-CC-PVTZ AUX)
    Blend: AUG-CC-PVTZ-RI
    Molecular point group: c1

    Geometry (in Angstrom), charge = 0, multiplicity = 1:

       Center              X                  Y                   Z               Mass
    ------------   -----------------  -----------------  -----------------  -----------------
         C            0.036529730312     0.082729476194    -0.000560892235    12.000000000000
         O            0.321703730312     1.278436476194     0.000183107765    15.994914619570
         N            0.991312730312    -0.895487523806    -0.000165892235    14.003074004430
         H            1.865265430312    -0.639789023806     0.001813707765     1.007825032230
         H            0.771064730312    -1.878656523806     0.000512107765     1.007825032230
         C           -1.398796269688    -0.404667523806     0.000108107765    12.000000000000
         H           -1.896870269688    -0.015529523806     0.890633107765     1.007825032230
         H           -1.491815269688    -1.492863523806    -0.016408892235     1.007825032230
         H           -1.906688269688     0.012602476194    -0.871759892235     1.007825032230

  Basis Set: AUG-CC-PVTZ
    Blend: AUG-CC-PVTZ
  Basis Set: (AUG-CC-PVTZ AUX)
    Blend: AUG-CC-PVTZ-JKFIT
	 Reference Energy          =    -208.0544301144647932 [Eh]
	 Singles Energy            =      -0.0000000000000000 [Eh]
	 Same-Spin Energy          =      -0.2041681648543461 [Eh]
	 Opposite-Spin Energy      =      -0.6552175154147071 [Eh]
	 Correlation Energy        =      -0.8593856802690532 [Eh]
	 Total Energy              =    -208.9138157947338357 [Eh]

	 ================> DF-SCS-MP2 Energies <==================
	-----------------------------------------------------------
	 SCS Same-Spin Scale       =       0.3333333333333333 [-]
	 SCS Opposite-Spin Scale   =       1.2000000000000000 [-]
	 SCS Same-Spin Energy      =      -0.0680560549514487 [Eh]
	 SCS Opposite-Spin Energy  =      -0.7862610184976485 [Eh]
	 SCS Correlation Energy    =      -0.8543170734490972 [Eh]
	 SCS Total Energy          =    -208.9087471879138889 [Eh]
	-----------------------------------------------------------

  Dipole Moment: [D]
     X:    -0.2554      Y:    -3.8657      Z:     0.0046     Total:     3.8741

*** Psi4 exiting successfully. Buy a developer a beer!
