                               Psi4 1.4a3.dev225

  ==> Input File <==

--------------------------------------------------------------------------
#psi4
#
memory 32 gb

molecule  {
0 1
  C       -0.0770510     0.1498570    -0.0035670
  O       -0.4282050     1.3271550    -0.0076950
  N       -0.9512704    -0.8441100     0.0497921
  H       -1.9534590    -0.6329030    -0.0980890
  H       -0.7091260    -1.8228460    -0.1895470
  C        1.3740960    -0.2859850     0.0004560
  H        1.5969590    -0.9097150    -0.8707530
  H        1.5972890    -0.8674120     0.8994210
  H        2.0015580     0.6037800    -0.0234480
units angstrom
no_reorient  #important for SAPT in psi4, default
symmetry c1  #important for SAPT in psi4, default
}

set PROPERTIES_ORIGIN ["COM"]
properties('MP2/aug-cc-pvtz', properties = ['dipole'])
--------------------------------------------------------------------------

    Molecular point group: c1
  Charge       = 0
  Multiplicity = 1
  Basis Set: AUG-CC-PVTZ
    Blend: AUG-CC-PVTZ
  Basis Set: (AUG-CC-PVTZ AUX)
    Blend: AUG-CC-PVTZ-JKFIT

    Orbital Energies [Eh]
    ---------------------

    Doubly Occupied:

       1A    -20.514471     2A    -15.593171     3A    -11.350080
       4A    -11.238555     5A     -1.375011     6A     -1.218400
       7A     -1.003269     8A     -0.806527     9A     -0.713402
      10A     -0.662519    11A     -0.618229    12A     -0.576526
      13A     -0.558860    14A     -0.528584    15A     -0.425064
      16A     -0.415309

  @DF-RHF Final Energy:  -208.05780742786698

   => Energetics <=

    Nuclear Repulsion Energy =            122.0944110308818296
    One-Electron Energy =                -525.1084826657961457
    Two-Electron Energy =                 194.9562642070473544
    Total Energy =                       -208.0578074278669760
  Basis Set: (AUG-CC-PVTZ AUX)
    Blend: AUG-CC-PVTZ-RI
    Molecular point group: c1

    Geometry (in Angstrom), charge = 0, multiplicity = 1:

       Center              X                  Y                   Z               Mass
    ------------   -----------------  -----------------  -----------------  -----------------
         C           -0.042289329645     0.080128551962    -0.007838951365    12.000000000000
         O           -0.393443329645     1.257426551962    -0.011966951365    15.994914619570
         N           -0.916508729645    -0.913838448038     0.045520148635    14.003074004430
         H           -1.918697329645    -0.702631448038    -0.102360951365     1.007825032230
         H           -0.674364329645    -1.892574448038    -0.193818951365     1.007825032230
         C            1.408857670355    -0.355713448038    -0.003815951365    12.000000000000
         H            1.631720670355    -0.979443448038    -0.875024951365     1.007825032230
         H            1.632050670355    -0.937140448038     0.895149048635     1.007825032230
         H            2.036319670355     0.534051551962    -0.027719951365     1.007825032230

  Basis Set: AUG-CC-PVTZ
    Blend: AUG-CC-PVTZ
  Basis Set: (AUG-CC-PVTZ AUX)
    Blend: AUG-CC-PVTZ-JKFIT
	 Reference Energy          =    -208.0578074278669760 [Eh]
	 Singles Energy            =      -0.0000000000000000 [Eh]
	 Same-Spin Energy          =      -0.2049122630761691 [Eh]
	 Opposite-Spin Energy      =      -0.6567507032853023 [Eh]
	 Correlation Energy        =      -0.8616629663614714 [Eh]
	 Total Energy              =    -208.9194703942284548 [Eh]

	 ================> DF-SCS-MP2 Energies <==================
	-----------------------------------------------------------
	 SCS Same-Spin Scale       =       0.3333333333333333 [-]
	 SCS Opposite-Spin Scale   =       1.2000000000000000 [-]
	 SCS Same-Spin Energy      =      -0.0683040876920564 [Eh]
	 SCS Opposite-Spin Energy  =      -0.7881008439423627 [Eh]
	 SCS Correlation Energy    =      -0.8564049316344190 [Eh]
	 SCS Total Energy          =    -208.9142123595013913 [Eh]
	-----------------------------------------------------------

  Dipole Moment: [D]
     X:     0.2678      Y:    -3.9581      Z:    -0.5228     Total:     4.0014

*** Psi4 exiting successfully. Buy a developer a beer!
