                               Psi4 1.4a3.dev225

  ==> Input File <==

--------------------------------------------------------------------------
#psi4
#
memory 32 gb

molecule  {
0 1
  C       -0.0770510     0.1498570    -0.0035670
  O       -0.4282050     1.3271550    -0.0076950
  N       -0.9842650    -0.8816240     0.0518060
  H       -2.0013552    -0.6206116    -0.1054966
  H       -0.7091260    -1.8228460    -0.1895470
  C        1.3740960    -0.2859850     0.0004560
  H        1.5969590    -0.9097150    -0.8707530
  H        1.5972890    -0.8674120     0.8994210
  H        2.0015580     0.6037800    -0.0234480
units angstrom
no_reorient  #important for SAPT in psi4, default
symmetry c1  #important for SAPT in psi4, default
}

set PROPERTIES_ORIGIN ["COM"]
properties('MP2/aug-cc-pvtz', properties = ['dipole'])
--------------------------------------------------------------------------

    Molecular point group: c1
  Charge       = 0
  Multiplicity = 1
  Basis Set: AUG-CC-PVTZ
    Blend: AUG-CC-PVTZ
  Basis Set: (AUG-CC-PVTZ AUX)
    Blend: AUG-CC-PVTZ-JKFIT

    Orbital Energies [Eh]
    ---------------------

    Doubly Occupied:

       1A    -20.522591     2A    -15.591226     3A    -11.357318
       4A    -11.241199     5A     -1.374753     6A     -1.204351
       7A     -1.004482     8A     -0.792290     9A     -0.711287
      10A     -0.661550    11A     -0.615621    12A     -0.583564
      13A     -0.559817    14A     -0.524965    15A     -0.429110
      16A     -0.416131

  @DF-RHF Final Energy:  -208.05768104475703

   => Energetics <=

    Nuclear Repulsion Energy =            120.9558633253348887
    One-Electron Energy =                -522.8465794573080530
    Two-Electron Energy =                 193.8330350872161034
    Total Energy =                       -208.0576810447570324
  Basis Set: (AUG-CC-PVTZ AUX)
    Blend: AUG-CC-PVTZ-RI
    Molecular point group: c1

    Geometry (in Angstrom), charge = 0, multiplicity = 1:

       Center              X                  Y                   Z               Mass
    ------------   -----------------  -----------------  -----------------  -----------------
         C           -0.033645668359     0.088816709372    -0.008190174938    12.000000000000
         O           -0.384799668359     1.266114709372    -0.012318174938    15.994914619570
         N           -0.940859668359    -0.942664290628     0.047182825062    14.003074004430
         H           -1.957949868359    -0.681651890628    -0.110119774938     1.007825032230
         H           -0.665720668359    -1.883886290628    -0.194170174938     1.007825032230
         C            1.417501331641    -0.347025290628    -0.004167174938    12.000000000000
         H            1.640364331641    -0.970755290628    -0.875376174938     1.007825032230
         H            1.640694331641    -0.928452290628     0.894797825062     1.007825032230
         H            2.044963331641     0.542739709372    -0.028071174938     1.007825032230

  Basis Set: AUG-CC-PVTZ
    Blend: AUG-CC-PVTZ
  Basis Set: (AUG-CC-PVTZ AUX)
    Blend: AUG-CC-PVTZ-JKFIT
	 Reference Energy          =    -208.0576810447570324 [Eh]
	 Singles Energy            =      -0.0000000000000000 [Eh]
	 Same-Spin Energy          =      -0.2049033764765130 [Eh]
	 Opposite-Spin Energy      =      -0.6575201844245910 [Eh]
	 Correlation Energy        =      -0.8624235609011041 [Eh]
	 Total Energy              =    -208.9201046056581390 [Eh]

	 ================> DF-SCS-MP2 Energies <==================
	-----------------------------------------------------------
	 SCS Same-Spin Scale       =       0.3333333333333333 [-]
	 SCS Opposite-Spin Scale   =       1.2000000000000000 [-]
	 SCS Same-Spin Energy      =      -0.0683011254921710 [Eh]
	 SCS Opposite-Spin Energy  =      -0.7890242213095092 [Eh]
	 SCS Correlation Energy    =      -0.8573253468016803 [Eh]
	 SCS Total Energy          =    -208.9150063915587054 [Eh]
	-----------------------------------------------------------

  Dipole Moment: [D]
     X:     0.4039      Y:    -3.6855      Z:    -0.5482     Total:     3.7478

*** Psi4 exiting successfully. Buy a developer a beer!
