                               Psi4 1.3.2 release

  ==> Input File <==

--------------------------------------------------------------------------
#psi4
#
memory 32 gb

molecule  {
0 1
  C        0.0747750     0.1439390    -0.0006420
  O        0.3599490     1.3396460     0.0001020
  N        0.8898614    -0.6911527    -0.0003048
  H        1.9994870    -0.5504990     0.0019500
  H        0.8093100    -1.8174470     0.0004310
  C       -1.3605510    -0.3434580     0.0000270
  H       -1.8586250     0.0456800     0.8905520
  H       -1.4535700    -1.4316540    -0.0164900
  H       -1.8684430     0.0738120    -0.8718410
units angstrom
no_reorient  #important for SAPT in psi4, default
symmetry c1  #important for SAPT in psi4, default
}

set PROPERTIES_ORIGIN ["COM"]
properties('MP2/aug-cc-pvtz', properties = ['dipole'])
--------------------------------------------------------------------------

    Molecular point group: c1
  Charge       = 0
  Multiplicity = 1
  Basis Set: AUG-CC-PVTZ
    Blend: AUG-CC-PVTZ
  Basis Set: (AUG-CC-PVTZ AUX)
    Blend: AUG-CC-PVTZ-JKFIT

    Orbital Energies [Eh]
    ---------------------

    Doubly Occupied:

       1A    -20.479182     2A    -15.615806     3A    -11.321712
       4A    -11.230992     5A     -1.386769     6A     -1.243334
       7A     -0.994372     8A     -0.838815     9A     -0.706293
      10A     -0.650704    11A     -0.634358    12A     -0.560544
      13A     -0.538499    14A     -0.528692    15A     -0.403243
      16A     -0.402742

  @DF-RHF Final Energy:  -207.98945646456397

   => Energetics <=

    Nuclear Repulsion Energy =            125.2336893194723046
    One-Electron Energy =                -531.3741791555063401
    Two-Electron Energy =                 198.1510333714700494
    Total Energy =                       -207.9894564645639718
  Basis Set: (AUG-CC-PVTZ AUX)
    Blend: AUG-CC-PVTZ-RI
    Molecular point group: c1

    Geometry (in Angstrom), charge = 0, multiplicity = 1:

       Center              X                  Y                   Z               Mass
    ------------   -----------------  -----------------  -----------------  -----------------
         C            0.068026095752     0.048302075051    -0.000550893838    12.000000000000
         O            0.353200095752     1.244009075051     0.000193106162    15.994914619570
         N            0.883112495752    -0.786789624949    -0.000213693838    14.003074004430
         H            1.992738095752    -0.646135924949     0.002041106162     1.007825032230
         H            0.802561095752    -1.913083924949     0.000522106162     1.007825032230
         C           -1.367299904248    -0.439094924949     0.000118106162    12.000000000000
         H           -1.865373904248    -0.049956924949     0.890643106162     1.007825032230
         H           -1.460318904248    -1.527290924949    -0.016398893838     1.007825032230
         H           -1.875191904248    -0.021824924949    -0.871749893838     1.007825032230

  Basis Set: AUG-CC-PVTZ
    Blend: AUG-CC-PVTZ
  Basis Set: (AUG-CC-PVTZ AUX)
    Blend: AUG-CC-PVTZ-JKFIT
	 Reference Energy          =    -207.9894564645639718 [Eh]
	 Singles Energy            =      -0.0000000000000000 [Eh]
	 Same-Spin Energy          =      -0.2068083418148448 [Eh]
	 Opposite-Spin Energy      =      -0.6586600080739234 [Eh]
	 Correlation Energy        =      -0.8654683498887682 [Eh]
	 Total Energy              =    -208.8549248144527439 [Eh]

	 ================> DF-SCS-MP2 Energies <==================
	-----------------------------------------------------------
	 SCS Same-Spin Scale       =       0.3333333333333333 [-]
	 SCS Opposite-Spin Scale   =       1.2000000000000000 [-]
	 SCS Same-Spin Energy      =      -0.0689361139382816 [Eh]
	 SCS Opposite-Spin Energy  =      -0.7903920096887082 [Eh]
	 SCS Correlation Energy    =      -0.8593281236269897 [Eh]
	 SCS Total Energy          =    -208.8487845881909664 [Eh]
	-----------------------------------------------------------

  Dipole Moment: [D]
     X:     0.5354      Y:    -4.8926      Z:     0.0042     Total:     4.9218

*** Psi4 exiting successfully. Buy a developer a beer!
