                               Psi4 1.3.2 release

  ==> Input File <==

--------------------------------------------------------------------------
#psi4
#
memory 32 gb

molecule  {
0 1
  C        0.0747750     0.1439390    -0.0006420
  O        0.3599490     1.3396460     0.0001020
  N        0.9597097    -0.7627153    -0.0002759
  H        1.9994870    -0.5504990     0.0019500
  H        0.8093100    -1.8174470     0.0004310
  C       -1.3605510    -0.3434580     0.0000270
  H       -1.8586250     0.0456800     0.8905520
  H       -1.4535700    -1.4316540    -0.0164900
  H       -1.8684430     0.0738120    -0.8718410
units angstrom
no_reorient  #important for SAPT in psi4, default
symmetry c1  #important for SAPT in psi4, default
}

set PROPERTIES_ORIGIN ["COM"]
properties('MP2/aug-cc-pvtz', properties = ['dipole'])
--------------------------------------------------------------------------

    Molecular point group: c1
  Charge       = 0
  Multiplicity = 1
  Basis Set: AUG-CC-PVTZ
    Blend: AUG-CC-PVTZ
  Basis Set: (AUG-CC-PVTZ AUX)
    Blend: AUG-CC-PVTZ-JKFIT

    Orbital Energies [Eh]
    ---------------------

    Doubly Occupied:

       1A    -20.498523     2A    -15.603529     3A    -11.340838
       4A    -11.235658     5A     -1.373588     6A     -1.228062
       7A     -0.999398     8A     -0.822450     9A     -0.712117
      10A     -0.658947    11A     -0.619806    12A     -0.568262
      13A     -0.552770    14A     -0.530912    15A     -0.414889
      16A     -0.410170

  @DF-RHF Final Energy:  -208.04559356129084

   => Energetics <=

    Nuclear Repulsion Energy =            123.1116192626065100
    One-Electron Energy =                -527.1745895900673986
    Two-Electron Energy =                 196.0173767661700595
    Total Energy =                       -208.0455935612908434
  Basis Set: (AUG-CC-PVTZ AUX)
    Blend: AUG-CC-PVTZ-RI
    Molecular point group: c1

    Geometry (in Angstrom), charge = 0, multiplicity = 1:

       Center              X                  Y                   Z               Mass
    ------------   -----------------  -----------------  -----------------  -----------------
         C            0.051458705321     0.065276082070    -0.000557748659    12.000000000000
         O            0.336632705321     1.260983082070     0.000186251341    15.994914619570
         N            0.936393405321    -0.841378217930    -0.000191648659    14.003074004430
         H            1.976170705321    -0.629161917930     0.002034251341     1.007825032230
         H            0.785993705321    -1.896109917930     0.000515251341     1.007825032230
         C           -1.383867294679    -0.422120917930     0.000111251341    12.000000000000
         H           -1.881941294679    -0.032982917930     0.890636251341     1.007825032230
         H           -1.476886294679    -1.510316917930    -0.016405748659     1.007825032230
         H           -1.891759294679    -0.004850917930    -0.871756748659     1.007825032230

  Basis Set: AUG-CC-PVTZ
    Blend: AUG-CC-PVTZ
  Basis Set: (AUG-CC-PVTZ AUX)
    Blend: AUG-CC-PVTZ-JKFIT
	 Reference Energy          =    -208.0455935612908434 [Eh]
	 Singles Energy            =      -0.0000000000000000 [Eh]
	 Same-Spin Energy          =      -0.2054703526965393 [Eh]
	 Opposite-Spin Energy      =      -0.6569498450074810 [Eh]
	 Correlation Energy        =      -0.8624201977040203 [Eh]
	 Total Energy              =    -208.9080137589948549 [Eh]

	 ================> DF-SCS-MP2 Energies <==================
	-----------------------------------------------------------
	 SCS Same-Spin Scale       =       0.3333333333333333 [-]
	 SCS Opposite-Spin Scale   =       1.2000000000000000 [-]
	 SCS Same-Spin Energy      =      -0.0684901175655131 [Eh]
	 SCS Opposite-Spin Energy  =      -0.7883398140089771 [Eh]
	 SCS Correlation Energy    =      -0.8568299315744903 [Eh]
	 SCS Total Energy          =    -208.9024234928653243 [Eh]
	-----------------------------------------------------------

  Dipole Moment: [D]
     X:     0.2067      Y:    -4.3679      Z:     0.0045     Total:     4.3728

*** Psi4 exiting successfully. Buy a developer a beer!
