                               Psi4 1.3.2 release

  ==> Input File <==

--------------------------------------------------------------------------
#psi4
#
memory 32 gb

molecule  {
0 1
  C        0.0747750     0.1439390    -0.0006420
  O        0.3135507     1.1451025    -0.0000191
  N        1.0295580    -0.8342780    -0.0002470
  H        1.9994870    -0.5504990     0.0019500
  H        0.8093100    -1.8174470     0.0004310
  C       -1.3605510    -0.3434580     0.0000270
  H       -1.8586250     0.0456800     0.8905520
  H       -1.4535700    -1.4316540    -0.0164900
  H       -1.8684430     0.0738120    -0.8718410
units angstrom
no_reorient  #important for SAPT in psi4, default
symmetry c1  #important for SAPT in psi4, default
}

set PROPERTIES_ORIGIN ["COM"]
properties('MP2/aug-cc-pvtz', properties = ['dipole'])
--------------------------------------------------------------------------

    Molecular point group: c1
  Charge       = 0
  Multiplicity = 1
  Basis Set: AUG-CC-PVTZ
    Blend: AUG-CC-PVTZ
  Basis Set: (AUG-CC-PVTZ AUX)
    Blend: AUG-CC-PVTZ-JKFIT

    Orbital Energies [Eh]
    ---------------------

    Doubly Occupied:

       1A    -20.517030     2A    -15.557993     3A    -11.315169
       4A    -11.221350     5A     -1.519959     6A     -1.196212
       7A     -0.992977     8A     -0.783145     9A     -0.722597
      10A     -0.694837    11A     -0.658416    12A     -0.627643
      13A     -0.552024    14A     -0.542331    15A     -0.418167
      16A     -0.416479

  @DF-RHF Final Energy:  -207.99842221892405

   => Energetics <=

    Nuclear Repulsion Energy =            127.5049717472736859
    One-Electron Energy =                -535.5341306111229187
    Two-Electron Energy =                 200.0307366449252129
    Total Energy =                       -207.9984222189240484
  Basis Set: (AUG-CC-PVTZ AUX)
    Blend: AUG-CC-PVTZ-RI
    Molecular point group: c1

    Geometry (in Angstrom), charge = 0, multiplicity = 1:

       Center              X                  Y                   Z               Mass
    ------------   -----------------  -----------------  -----------------  -----------------
         C            0.047461997964     0.134957748272    -0.000531793878    12.000000000000
         O            0.286237697964     1.136121248272     0.000091106122    15.994914619570
         N            1.002244997964    -0.843259251728    -0.000136793878    14.003074004430
         H            1.972173997964    -0.559480251728     0.002060206122     1.007825032230
         H            0.781996997964    -1.826428251728     0.000541206122     1.007825032230
         C           -1.387864002036    -0.352439251728     0.000137206122    12.000000000000
         H           -1.885938002036     0.036698748272     0.890662206122     1.007825032230
         H           -1.480883002036    -1.440635251728    -0.016379793878     1.007825032230
         H           -1.895756002036     0.064830748272    -0.871730793878     1.007825032230

  Basis Set: AUG-CC-PVTZ
    Blend: AUG-CC-PVTZ
  Basis Set: (AUG-CC-PVTZ AUX)
    Blend: AUG-CC-PVTZ-JKFIT
	 Reference Energy          =    -207.9984222189240484 [Eh]
	 Singles Energy            =      -0.0000000000000000 [Eh]
	 Same-Spin Energy          =      -0.2007158297537629 [Eh]
	 Opposite-Spin Energy      =      -0.6460317246037611 [Eh]
	 Correlation Energy        =      -0.8467475543575240 [Eh]
	 Total Energy              =    -208.8451697732815830 [Eh]

	 ================> DF-SCS-MP2 Energies <==================
	-----------------------------------------------------------
	 SCS Same-Spin Scale       =       0.3333333333333333 [-]
	 SCS Opposite-Spin Scale   =       1.2000000000000000 [-]
	 SCS Same-Spin Energy      =      -0.0669052765845876 [Eh]
	 SCS Opposite-Spin Energy  =      -0.7752380695245134 [Eh]
	 SCS Correlation Energy    =      -0.8421433461091010 [Eh]
	 SCS Total Energy          =    -208.8405655650331596 [Eh]
	-----------------------------------------------------------

  Dipole Moment: [D]
     X:    -0.0330      Y:    -2.5101      Z:     0.0049     Total:     2.5103

*** Psi4 exiting successfully. Buy a developer a beer!
