                               Psi4 1.3.2 release

  ==> Input File <==

--------------------------------------------------------------------------
#psi4
#
memory 32 gb

molecule  {
0 1
  C        0.0747750     0.1439390    -0.0006420
  O        0.2334014     1.3629045     0.0002138
  N        1.0295580    -0.8342780    -0.0002470
  H        1.9994870    -0.5504990     0.0019500
  H        0.8093100    -1.8174470     0.0004310
  C       -1.3605510    -0.3434580     0.0000270
  H       -1.8586250     0.0456800     0.8905520
  H       -1.4535700    -1.4316540    -0.0164900
  H       -1.8684430     0.0738120    -0.8718410
units angstrom
no_reorient  #important for SAPT in psi4, default
symmetry c1  #important for SAPT in psi4, default
}

set PROPERTIES_ORIGIN ["COM"]
properties('MP2/aug-cc-pvtz', properties = ['dipole'])
--------------------------------------------------------------------------

    Molecular point group: c1
  Charge       = 0
  Multiplicity = 1
  Basis Set: AUG-CC-PVTZ
    Blend: AUG-CC-PVTZ
  Basis Set: (AUG-CC-PVTZ AUX)
    Blend: AUG-CC-PVTZ-JKFIT

    Orbital Energies [Eh]
    ---------------------

    Doubly Occupied:

       1A    -20.518130     2A    -15.597186     3A    -11.357777
       4A    -11.234232     5A     -1.371846     6A     -1.219331
       7A     -0.998627     8A     -0.804593     9A     -0.729748
      10A     -0.664394    11A     -0.612301    12A     -0.583068
      13A     -0.558104    14A     -0.520805    15A     -0.421232
      16A     -0.420117

  @DF-RHF Final Energy:  -208.05822033968252

   => Energetics <=

    Nuclear Repulsion Energy =            121.2862363910561072
    One-Electron Energy =                -523.4659344997136259
    Two-Electron Energy =                 194.1214777689750122
    Total Energy =                       -208.0582203396825207
  Basis Set: (AUG-CC-PVTZ AUX)
    Blend: AUG-CC-PVTZ-RI
    Molecular point group: c1

    Geometry (in Angstrom), charge = 0, multiplicity = 1:

       Center              X                  Y                   Z               Mass
    ------------   -----------------  -----------------  -----------------  -----------------
         C            0.069176833398     0.075948691586    -0.000594893433    12.000000000000
         O            0.227803233398     1.294914191586     0.000260906567    15.994914619570
         N            1.023959833398    -0.902268308414    -0.000199893433    14.003074004430
         H            1.993888833398    -0.618489308414     0.001997106567     1.007825032230
         H            0.803711833398    -1.885437308414     0.000478106567     1.007825032230
         C           -1.366149166602    -0.411448308414     0.000074106567    12.000000000000
         H           -1.864223166602    -0.022310308414     0.890599106567     1.007825032230
         H           -1.459168166602    -1.499644308414    -0.016442893433     1.007825032230
         H           -1.874041166602     0.005821691586    -0.871793893433     1.007825032230

  Basis Set: AUG-CC-PVTZ
    Blend: AUG-CC-PVTZ
  Basis Set: (AUG-CC-PVTZ AUX)
    Blend: AUG-CC-PVTZ-JKFIT
	 Reference Energy          =    -208.0582203396825207 [Eh]
	 Singles Energy            =      -0.0000000000000000 [Eh]
	 Same-Spin Energy          =      -0.2048426126962943 [Eh]
	 Opposite-Spin Energy      =      -0.6569051774167924 [Eh]
	 Correlation Energy        =      -0.8617477901130868 [Eh]
	 Total Energy              =    -208.9199681297956204 [Eh]

	 ================> DF-SCS-MP2 Energies <==================
	-----------------------------------------------------------
	 SCS Same-Spin Scale       =       0.3333333333333333 [-]
	 SCS Opposite-Spin Scale   =       1.2000000000000000 [-]
	 SCS Same-Spin Energy      =      -0.0682808708987648 [Eh]
	 SCS Opposite-Spin Energy  =      -0.7882862129001509 [Eh]
	 SCS Correlation Energy    =      -0.8565670837989157 [Eh]
	 SCS Total Energy          =    -208.9147874234814424 [Eh]
	-----------------------------------------------------------

  Dipole Moment: [D]
     X:     0.2321      Y:    -3.8761      Z:     0.0047     Total:     3.8831

*** Psi4 exiting successfully. Buy a developer a beer!
