                               Psi4 1.3.2 release

  ==> Input File <==

--------------------------------------------------------------------------
#psi4
#
memory 32 gb

molecule  {
0 1
  C        0.0747750     0.1439390    -0.0006420
  O        0.2334014     1.3629046     0.0000049
  N        1.0295580    -0.8342780    -0.0002470
  H        1.9994870    -0.5504990     0.0019500
  H        0.8093100    -1.8174470     0.0004310
  C       -1.3605510    -0.3434580     0.0000270
  H       -1.8586250     0.0456800     0.8905520
  H       -1.4535700    -1.4316540    -0.0164900
  H       -1.8684430     0.0738120    -0.8718410
units angstrom
no_reorient  #important for SAPT in psi4, default
symmetry c1  #important for SAPT in psi4, default
}

set PROPERTIES_ORIGIN ["COM"]
properties('MP2/aug-cc-pvtz', properties = ['dipole'])
--------------------------------------------------------------------------

    Molecular point group: c1
  Charge       = 0
  Multiplicity = 1
  Basis Set: AUG-CC-PVTZ
    Blend: AUG-CC-PVTZ
  Basis Set: (AUG-CC-PVTZ AUX)
    Blend: AUG-CC-PVTZ-JKFIT

    Orbital Energies [Eh]
    ---------------------

    Doubly Occupied:

       1A    -20.518130     2A    -15.597186     3A    -11.357777
       4A    -11.234232     5A     -1.371846     6A     -1.219331
       7A     -0.998627     8A     -0.804593     9A     -0.729748
      10A     -0.664394    11A     -0.612301    12A     -0.583068
      13A     -0.558104    14A     -0.520805    15A     -0.421232
      16A     -0.420117

  @DF-RHF Final Energy:  -208.05822035217327

   => Energetics <=

    Nuclear Repulsion Energy =            121.2862360709193013
    One-Electron Energy =                -523.4659338425667556
    Two-Electron Energy =                 194.1214774194741892
    Total Energy =                       -208.0582203521732652
  Basis Set: (AUG-CC-PVTZ AUX)
    Blend: AUG-CC-PVTZ-RI
    Molecular point group: c1

    Geometry (in Angstrom), charge = 0, multiplicity = 1:

       Center              X                  Y                   Z               Mass
    ------------   -----------------  -----------------  -----------------  -----------------
         C            0.069176833398     0.075948664493    -0.000538296194    12.000000000000
         O            0.227803233398     1.294914264493     0.000108603806    15.994914619570
         N            1.023959833398    -0.902268335507    -0.000143296194    14.003074004430
         H            1.993888833398    -0.618489335507     0.002053703806     1.007825032230
         H            0.803711833398    -1.885437335507     0.000534703806     1.007825032230
         C           -1.366149166602    -0.411448335507     0.000130703806    12.000000000000
         H           -1.864223166602    -0.022310335507     0.890655703806     1.007825032230
         H           -1.459168166602    -1.499644335507    -0.016386296194     1.007825032230
         H           -1.874041166602     0.005821664493    -0.871737296194     1.007825032230

  Basis Set: AUG-CC-PVTZ
    Blend: AUG-CC-PVTZ
  Basis Set: (AUG-CC-PVTZ AUX)
    Blend: AUG-CC-PVTZ-JKFIT
	 Reference Energy          =    -208.0582203521732652 [Eh]
	 Singles Energy            =      -0.0000000000000000 [Eh]
	 Same-Spin Energy          =      -0.2048426112582256 [Eh]
	 Opposite-Spin Energy      =      -0.6569051715781673 [Eh]
	 Correlation Energy        =      -0.8617477828363929 [Eh]
	 Total Energy              =    -208.9199681350096682 [Eh]

	 ================> DF-SCS-MP2 Energies <==================
	-----------------------------------------------------------
	 SCS Same-Spin Scale       =       0.3333333333333333 [-]
	 SCS Opposite-Spin Scale   =       1.2000000000000000 [-]
	 SCS Same-Spin Energy      =      -0.0682808704194085 [Eh]
	 SCS Opposite-Spin Energy  =      -0.7882862058938007 [Eh]
	 SCS Correlation Energy    =      -0.8565670763132093 [Eh]
	 SCS Total Energy          =    -208.9147874284864770 [Eh]
	-----------------------------------------------------------

  Dipole Moment: [D]
     X:     0.2321      Y:    -3.8761      Z:     0.0050     Total:     3.8831

*** Psi4 exiting successfully. Buy a developer a beer!
