                               Psi4 1.4a3.dev225

  ==> Input File <==

--------------------------------------------------------------------------
#psi4
#
memory 32 gb

molecule  {
0 1
  C       -0.0770510     0.1498570    -0.0035670
  O       -0.4282050     1.3271550    -0.0076950
  N       -0.9974628    -0.8966296     0.0526115
  H       -1.9534590    -0.6329030    -0.0980890
  H       -0.7091260    -1.8228460    -0.1895470
  C        1.3740960    -0.2859850     0.0004560
  H        1.5969590    -0.9097150    -0.8707530
  H        1.5972890    -0.8674120     0.8994210
  H        2.0015580     0.6037800    -0.0234480
units angstrom
no_reorient  #important for SAPT in psi4, default
symmetry c1  #important for SAPT in psi4, default
}

set PROPERTIES_ORIGIN ["COM"]
properties('MP2/aug-cc-pvtz', properties = ['dipole'])
--------------------------------------------------------------------------

    Molecular point group: c1
  Charge       = 0
  Multiplicity = 1
  Basis Set: AUG-CC-PVTZ
    Blend: AUG-CC-PVTZ
  Basis Set: (AUG-CC-PVTZ AUX)
    Blend: AUG-CC-PVTZ-JKFIT

    Orbital Energies [Eh]
    ---------------------

    Doubly Occupied:

       1A    -20.526462     2A    -15.584750     3A    -11.360415
       4A    -11.242249     5A     -1.376285     6A     -1.207087
       7A     -1.007112     8A     -0.791809     9A     -0.723279
      10A     -0.663993    11A     -0.615331    12A     -0.588883
      13A     -0.561808    14A     -0.524453    15A     -0.431162
      16A     -0.417662

  @DF-RHF Final Energy:  -208.06074132185540

   => Energetics <=

    Nuclear Repulsion Energy =            120.8534161777771345
    One-Electron Energy =                -522.5828350023168696
    Two-Electron Energy =                 193.6686775026843179
    Total Energy =                       -208.0607413218554029
  Basis Set: (AUG-CC-PVTZ AUX)
    Blend: AUG-CC-PVTZ-RI
    Molecular point group: c1

    Geometry (in Angstrom), charge = 0, multiplicity = 1:

       Center              X                  Y                   Z               Mass
    ------------   -----------------  -----------------  -----------------  -----------------
         C           -0.031332906572     0.092585730139    -0.008507687764    12.000000000000
         O           -0.382486906572     1.269883730139    -0.012635687764    15.994914619570
         N           -0.951744706572    -0.953900869861     0.047670812236    14.003074004430
         H           -1.907740906572    -0.690174269861    -0.103029687764     1.007825032230
         H           -0.663407906572    -1.880117269861    -0.194487687764     1.007825032230
         C            1.419814093428    -0.343256269861    -0.004484687764    12.000000000000
         H            1.642677093428    -0.966986269861    -0.875693687764     1.007825032230
         H            1.643007093428    -0.924683269861     0.894480312236     1.007825032230
         H            2.047276093428     0.546508730139    -0.028388687764     1.007825032230

  Basis Set: AUG-CC-PVTZ
    Blend: AUG-CC-PVTZ
  Basis Set: (AUG-CC-PVTZ AUX)
    Blend: AUG-CC-PVTZ-JKFIT
	 Reference Energy          =    -208.0607413218554029 [Eh]
	 Singles Energy            =      -0.0000000000000000 [Eh]
	 Same-Spin Energy          =      -0.2045041918021308 [Eh]
	 Opposite-Spin Energy      =      -0.6567727308334738 [Eh]
	 Correlation Energy        =      -0.8612769226356045 [Eh]
	 Total Energy              =    -208.9220182444909995 [Eh]

	 ================> DF-SCS-MP2 Energies <==================
	-----------------------------------------------------------
	 SCS Same-Spin Scale       =       0.3333333333333333 [-]
	 SCS Opposite-Spin Scale   =       1.2000000000000000 [-]
	 SCS Same-Spin Energy      =      -0.0681680639340436 [Eh]
	 SCS Opposite-Spin Energy  =      -0.7881272770001685 [Eh]
	 SCS Correlation Energy    =      -0.8562953409342121 [Eh]
	 SCS Total Energy          =    -208.9170366627896271 [Eh]
	-----------------------------------------------------------

  Dipole Moment: [D]
     X:     0.5197      Y:    -3.5920      Z:    -0.5514     Total:     3.6711

*** Psi4 exiting successfully. Buy a developer a beer!
