                               Psi4 1.3.2 release

  ==> Input File <==

--------------------------------------------------------------------------
#psi4
#
memory 32 gb

molecule  {
0 1
  C        0.0747750     0.1439390    -0.0006420
  O        0.4426626     1.3168406     0.0001623
  N        1.0295580    -0.8342780    -0.0002470
  H        1.9994870    -0.5504990     0.0019500
  H        0.8093100    -1.8174470     0.0004310
  C       -1.3605510    -0.3434580     0.0000270
  H       -1.8586250     0.0456800     0.8905520
  H       -1.4535700    -1.4316540    -0.0164900
  H       -1.8684430     0.0738120    -0.8718410
units angstrom
no_reorient  #important for SAPT in psi4, default
symmetry c1  #important for SAPT in psi4, default
}

set PROPERTIES_ORIGIN ["COM"]
properties('MP2/aug-cc-pvtz', properties = ['dipole'])
--------------------------------------------------------------------------

    Molecular point group: c1
  Charge       = 0
  Multiplicity = 1
  Basis Set: AUG-CC-PVTZ
    Blend: AUG-CC-PVTZ
  Basis Set: (AUG-CC-PVTZ AUX)
    Blend: AUG-CC-PVTZ-JKFIT

    Orbital Energies [Eh]
    ---------------------

    Doubly Occupied:

       1A    -20.515435     2A    -15.585591     3A    -11.357043
       4A    -11.245344     5A     -1.373328     6A     -1.205688
       7A     -1.008872     8A     -0.799012     9A     -0.723498
      10A     -0.662445    11A     -0.614923    12A     -0.584853
      13A     -0.564413    14A     -0.525126    15A     -0.425557
      16A     -0.410763

  @DF-RHF Final Energy:  -208.06031153149635

   => Energetics <=

    Nuclear Repulsion Energy =            121.3251063270748915
    One-Electron Energy =                -523.5670529314645592
    Two-Electron Energy =                 194.1816350728933287
    Total Energy =                       -208.0603115314963532
  Basis Set: (AUG-CC-PVTZ AUX)
    Blend: AUG-CC-PVTZ-RI
    Molecular point group: c1

    Geometry (in Angstrom), charge = 0, multiplicity = 1:

       Center              X                  Y                   Z               Mass
    ------------   -----------------  -----------------  -----------------  -----------------
         C            0.012481734119     0.088428775728    -0.000580940548    12.000000000000
         O            0.380369334119     1.261330375728     0.000223359452    15.994914619570
         N            0.967264734119    -0.889788224272    -0.000185940548    14.003074004430
         H            1.937193734119    -0.606009224272     0.002011059452     1.007825032230
         H            0.747016734119    -1.872957224272     0.000492059452     1.007825032230
         C           -1.422844265881    -0.398968224272     0.000088059452    12.000000000000
         H           -1.920918265881    -0.009830224272     0.890613059452     1.007825032230
         H           -1.515863265881    -1.487164224272    -0.016428940548     1.007825032230
         H           -1.930736265881     0.018301775728    -0.871779940548     1.007825032230

  Basis Set: AUG-CC-PVTZ
    Blend: AUG-CC-PVTZ
  Basis Set: (AUG-CC-PVTZ AUX)
    Blend: AUG-CC-PVTZ-JKFIT
	 Reference Energy          =    -208.0603115314963532 [Eh]
	 Singles Energy            =      -0.0000000000000000 [Eh]
	 Same-Spin Energy          =      -0.2048002579288218 [Eh]
	 Opposite-Spin Energy      =      -0.6566131218296026 [Eh]
	 Correlation Energy        =      -0.8614133797584245 [Eh]
	 Total Energy              =    -208.9217249112547847 [Eh]

	 ================> DF-SCS-MP2 Energies <==================
	-----------------------------------------------------------
	 SCS Same-Spin Scale       =       0.3333333333333333 [-]
	 SCS Opposite-Spin Scale   =       1.2000000000000000 [-]
	 SCS Same-Spin Energy      =      -0.0682667526429406 [Eh]
	 SCS Opposite-Spin Energy  =      -0.7879357461955231 [Eh]
	 SCS Correlation Energy    =      -0.8562024988384637 [Eh]
	 SCS Total Energy          =    -208.9165140303348096 [Eh]
	-----------------------------------------------------------

  Dipole Moment: [D]
     X:    -0.4190      Y:    -3.8016      Z:     0.0047     Total:     3.8246

*** Psi4 exiting successfully. Buy a developer a beer!
