                               Psi4 1.3.2 release

  ==> Input File <==

--------------------------------------------------------------------------
#psi4
#
memory 32 gb

molecule  {
0 1
  C        0.0747750     0.1439390    -0.0006420
  O        0.3599490     1.3396460     0.0001020
  N        1.0295580    -0.8342780    -0.0002470
  H        2.0954633    -0.5224185     0.0021674
  H        0.8093100    -1.8174470     0.0004310
  C       -1.3605510    -0.3434580     0.0000270
  H       -1.8586250     0.0456800     0.8905520
  H       -1.4535700    -1.4316540    -0.0164900
  H       -1.8684430     0.0738120    -0.8718410
units angstrom
no_reorient  #important for SAPT in psi4, default
symmetry c1  #important for SAPT in psi4, default
}

set PROPERTIES_ORIGIN ["COM"]
properties('MP2/aug-cc-pvtz', properties = ['dipole'])
--------------------------------------------------------------------------

    Molecular point group: c1
  Charge       = 0
  Multiplicity = 1
  Basis Set: AUG-CC-PVTZ
    Blend: AUG-CC-PVTZ
  Basis Set: (AUG-CC-PVTZ AUX)
    Blend: AUG-CC-PVTZ-JKFIT

    Orbital Energies [Eh]
    ---------------------

    Doubly Occupied:

       1A    -20.515490     2A    -15.598032     3A    -11.356623
       4A    -11.240979     5A     -1.370454     6A     -1.200868
       7A     -1.002076     8A     -0.794555     9A     -0.707602
      10A     -0.658568    11A     -0.613078    12A     -0.580778
      13A     -0.558557    14A     -0.522357    15A     -0.423794
      16A     -0.412663

  @DF-RHF Final Energy:  -208.05113173268194

   => Energetics <=

    Nuclear Repulsion Energy =            120.7970040936586713
    One-Electron Energy =                -522.5833262097917213
    Two-Electron Energy =                 193.7351903834511404
    Total Energy =                       -208.0511317326819380
  Basis Set: (AUG-CC-PVTZ AUX)
    Blend: AUG-CC-PVTZ-RI
    Molecular point group: c1

    Geometry (in Angstrom), charge = 0, multiplicity = 1:

       Center              X                  Y                   Z               Mass
    ------------   -----------------  -----------------  -----------------  -----------------
         C            0.033252899469     0.081770749420    -0.000568314724    12.000000000000
         O            0.318426899469     1.277477749420     0.000175685276    15.994914619570
         N            0.988035899469    -0.896446250580    -0.000173314724    14.003074004430
         H            2.053941199469    -0.584586750580     0.002241085276     1.007825032230
         H            0.767787899469    -1.879615250580     0.000504685276     1.007825032230
         C           -1.402073100531    -0.405626250580     0.000100685276    12.000000000000
         H           -1.900147100531    -0.016488250580     0.890625685276     1.007825032230
         H           -1.495092100531    -1.493822250580    -0.016416314724     1.007825032230
         H           -1.909965100531     0.011643749420    -0.871767314724     1.007825032230

  Basis Set: AUG-CC-PVTZ
    Blend: AUG-CC-PVTZ
  Basis Set: (AUG-CC-PVTZ AUX)
    Blend: AUG-CC-PVTZ-JKFIT
	 Reference Energy          =    -208.0511317326819380 [Eh]
	 Singles Energy            =      -0.0000000000000000 [Eh]
	 Same-Spin Energy          =      -0.2054053685784666 [Eh]
	 Opposite-Spin Energy      =      -0.6583080387248893 [Eh]
	 Correlation Energy        =      -0.8637134073033559 [Eh]
	 Total Energy              =    -208.9148451399852888 [Eh]

	 ================> DF-SCS-MP2 Energies <==================
	-----------------------------------------------------------
	 SCS Same-Spin Scale       =       0.3333333333333333 [-]
	 SCS Opposite-Spin Scale   =       1.2000000000000000 [-]
	 SCS Same-Spin Energy      =      -0.0684684561928222 [Eh]
	 SCS Opposite-Spin Energy  =      -0.7899696464698671 [Eh]
	 SCS Correlation Energy    =      -0.8584381026626893 [Eh]
	 SCS Total Energy          =    -208.9095698353446267 [Eh]
	-----------------------------------------------------------

  Dipole Moment: [D]
     X:    -0.0686      Y:    -3.8249      Z:     0.0050     Total:     3.8255

*** Psi4 exiting successfully. Buy a developer a beer!
