                               Psi4 1.3.2 release

  ==> Input File <==

--------------------------------------------------------------------------
#psi4
#
memory 32 gb

molecule  {
0 1
  C        0.0747750     0.1439390    -0.0006420
  O        0.3367499     1.2423742     0.0000415
  N        1.0295580    -0.8342780    -0.0002470
  H        1.9994870    -0.5504990     0.0019500
  H        0.8093100    -1.8174470     0.0004310
  C       -1.3605510    -0.3434580     0.0000270
  H       -1.8586250     0.0456800     0.8905520
  H       -1.4535700    -1.4316540    -0.0164900
  H       -1.8684430     0.0738120    -0.8718410
units angstrom
no_reorient  #important for SAPT in psi4, default
symmetry c1  #important for SAPT in psi4, default
}

set PROPERTIES_ORIGIN ["COM"]
properties('MP2/aug-cc-pvtz', properties = ['dipole'])
--------------------------------------------------------------------------

    Molecular point group: c1
  Charge       = 0
  Multiplicity = 1
  Basis Set: AUG-CC-PVTZ
    Blend: AUG-CC-PVTZ
  Basis Set: (AUG-CC-PVTZ AUX)
    Blend: AUG-CC-PVTZ-JKFIT

    Orbital Energies [Eh]
    ---------------------

    Doubly Occupied:

       1A    -20.517303     2A    -15.574417     3A    -11.336395
       4A    -11.231650     5A     -1.440729     6A     -1.204778
       7A     -0.998371     8A     -0.791018     9A     -0.720341
      10A     -0.677715    11A     -0.626960    12A     -0.607555
      13A     -0.557184    14A     -0.534161    15A     -0.423864
      16A     -0.419100

  @DF-RHF Final Energy:  -208.05613495924146

   => Energetics <=

    Nuclear Repulsion Energy =            124.1774408896153119
    One-Electron Energy =                -529.1440651200076672
    Two-Electron Energy =                 196.9104892711509081
    Total Energy =                       -208.0561349592414615
  Basis Set: (AUG-CC-PVTZ AUX)
    Blend: AUG-CC-PVTZ-RI
    Molecular point group: c1

    Geometry (in Angstrom), charge = 0, multiplicity = 1:

       Center              X                  Y                   Z               Mass
    ------------   -----------------  -----------------  -----------------  -----------------
         C            0.041176642881     0.108603944086    -0.000548212225    12.000000000000
         O            0.303151542881     1.207039144086     0.000135287775    15.994914619570
         N            0.995959642881    -0.869613055914    -0.000153212225    14.003074004430
         H            1.965888642881    -0.585834055914     0.002043787775     1.007825032230
         H            0.775711642881    -1.852782055914     0.000524787775     1.007825032230
         C           -1.394149357119    -0.378793055914     0.000120787775    12.000000000000
         H           -1.892223357119     0.010344944086     0.890645787775     1.007825032230
         H           -1.487168357119    -1.466989055914    -0.016396212225     1.007825032230
         H           -1.902041357119     0.038476944086    -0.871747212225     1.007825032230

  Basis Set: AUG-CC-PVTZ
    Blend: AUG-CC-PVTZ
  Basis Set: (AUG-CC-PVTZ AUX)
    Blend: AUG-CC-PVTZ-JKFIT
	 Reference Energy          =    -208.0561349592414615 [Eh]
	 Singles Energy            =      -0.0000000000000000 [Eh]
	 Same-Spin Energy          =      -0.2025828210992971 [Eh]
	 Opposite-Spin Energy      =      -0.6511152427132071 [Eh]
	 Correlation Energy        =      -0.8536980638125041 [Eh]
	 Total Energy              =    -208.9098330230539773 [Eh]

	 ================> DF-SCS-MP2 Energies <==================
	-----------------------------------------------------------
	 SCS Same-Spin Scale       =       0.3333333333333333 [-]
	 SCS Opposite-Spin Scale   =       1.2000000000000000 [-]
	 SCS Same-Spin Energy      =      -0.0675276070330990 [Eh]
	 SCS Opposite-Spin Energy  =      -0.7813382912558485 [Eh]
	 SCS Correlation Energy    =      -0.8488658982889475 [Eh]
	 SCS Total Energy          =    -208.9050008575304105 [Eh]
	-----------------------------------------------------------

  Dipole Moment: [D]
     X:    -0.1036      Y:    -3.2119      Z:     0.0048     Total:     3.2136

*** Psi4 exiting successfully. Buy a developer a beer!
