                               Psi4 1.4a3.dev225

  ==> Input File <==

--------------------------------------------------------------------------
#psi4
#
memory 32 gb

molecule  {
0 1
  C       -0.0770510     0.1498570    -0.0035670
  O       -0.4282050     1.3271550    -0.0076950
  N       -0.9842650    -0.8816240     0.0518060
  H       -1.9726175    -0.6279864    -0.1010520
  H       -0.7091260    -1.8228460    -0.1895470
  C        1.3740960    -0.2859850     0.0004560
  H        1.5969590    -0.9097150    -0.8707530
  H        1.5972890    -0.8674120     0.8994210
  H        2.0015580     0.6037800    -0.0234480
units angstrom
no_reorient  #important for SAPT in psi4, default
symmetry c1  #important for SAPT in psi4, default
}

set PROPERTIES_ORIGIN ["COM"]
properties('MP2/aug-cc-pvtz', properties = ['dipole'])
--------------------------------------------------------------------------

    Molecular point group: c1
  Charge       = 0
  Multiplicity = 1
  Basis Set: AUG-CC-PVTZ
    Blend: AUG-CC-PVTZ
  Basis Set: (AUG-CC-PVTZ AUX)
    Blend: AUG-CC-PVTZ-JKFIT

    Orbital Energies [Eh]
    ---------------------

    Doubly Occupied:

       1A    -20.522919     2A    -15.588808     3A    -11.357498
       4A    -11.241191     5A     -1.375294     6A     -1.207703
       7A     -1.005383     8A     -0.794374     9A     -0.716554
      10A     -0.663006    11A     -0.615803    12A     -0.584709
      13A     -0.560721    14A     -0.525288    15A     -0.429398
      16A     -0.416724

  @DF-RHF Final Energy:  -208.06027353317887

   => Energetics <=

    Nuclear Repulsion Energy =            121.0987739092574742
    One-Electron Energy =                -523.1073510943244855
    Two-Electron Energy =                 193.9483036518881249
    Total Energy =                       -208.0602735331788722
  Basis Set: (AUG-CC-PVTZ AUX)
    Blend: AUG-CC-PVTZ-RI
    Molecular point group: c1

    Geometry (in Angstrom), charge = 0, multiplicity = 1:

       Center              X                  Y                   Z               Mass
    ------------   -----------------  -----------------  -----------------  -----------------
         C           -0.034136250834     0.088942604890    -0.008266048890    12.000000000000
         O           -0.385290250834     1.266240604890    -0.012394048890    15.994914619570
         N           -0.941350250834    -0.942538395110     0.047106951110    14.003074004430
         H           -1.929702750834    -0.688900795110    -0.105751048890     1.007825032230
         H           -0.666211250834    -1.883760395110    -0.194246048890     1.007825032230
         C            1.417010749166    -0.346899395110    -0.004243048890    12.000000000000
         H            1.639873749166    -0.970629395110    -0.875452048890     1.007825032230
         H            1.640203749166    -0.928326395110     0.894721951110     1.007825032230
         H            2.044472749166     0.542865604890    -0.028147048890     1.007825032230

  Basis Set: AUG-CC-PVTZ
    Blend: AUG-CC-PVTZ
  Basis Set: (AUG-CC-PVTZ AUX)
    Blend: AUG-CC-PVTZ-JKFIT
	 Reference Energy          =    -208.0602735331788722 [Eh]
	 Singles Energy            =      -0.0000000000000000 [Eh]
	 Same-Spin Energy          =      -0.2047149046290523 [Eh]
	 Opposite-Spin Energy      =      -0.6570209398207859 [Eh]
	 Correlation Energy        =      -0.8617358444498382 [Eh]
	 Total Energy              =    -208.9220093776287115 [Eh]

	 ================> DF-SCS-MP2 Energies <==================
	-----------------------------------------------------------
	 SCS Same-Spin Scale       =       0.3333333333333333 [-]
	 SCS Opposite-Spin Scale   =       1.2000000000000000 [-]
	 SCS Same-Spin Energy      =      -0.0682383015430174 [Eh]
	 SCS Opposite-Spin Energy  =      -0.7884251277849431 [Eh]
	 SCS Correlation Energy    =      -0.8566634293279606 [Eh]
	 SCS Total Energy          =    -208.9169369625068384 [Eh]
	-----------------------------------------------------------

  Dipole Moment: [D]
     X:     0.4297      Y:    -3.6916      Z:    -0.5450     Total:     3.7563

*** Psi4 exiting successfully. Buy a developer a beer!
