                               Psi4 1.3.2 release

  ==> Input File <==

--------------------------------------------------------------------------
#psi4
#
memory 32 gb

molecule  {
0 1
  C        0.0747750     0.1439390    -0.0006420
  O        0.4833722     1.3032871    -0.0000180
  N        1.0295580    -0.8342780    -0.0002470
  H        1.9994870    -0.5504990     0.0019500
  H        0.8093100    -1.8174470     0.0004310
  C       -1.3605510    -0.3434580     0.0000270
  H       -1.8586250     0.0456800     0.8905520
  H       -1.4535700    -1.4316540    -0.0164900
  H       -1.8684430     0.0738120    -0.8718410
units angstrom
no_reorient  #important for SAPT in psi4, default
symmetry c1  #important for SAPT in psi4, default
}

set PROPERTIES_ORIGIN ["COM"]
properties('MP2/aug-cc-pvtz', properties = ['dipole'])
--------------------------------------------------------------------------

    Molecular point group: c1
  Charge       = 0
  Multiplicity = 1
  Basis Set: AUG-CC-PVTZ
    Blend: AUG-CC-PVTZ
  Basis Set: (AUG-CC-PVTZ AUX)
    Blend: AUG-CC-PVTZ-JKFIT

    Orbital Energies [Eh]
    ---------------------

    Doubly Occupied:

       1A    -20.514731     2A    -15.583135     3A    -11.356980
       4A    -11.247520     5A     -1.374038     6A     -1.202622
       7A     -1.010759     8A     -0.797919     9A     -0.722210
      10A     -0.662010    11A     -0.615602    12A     -0.585250
      13A     -0.565416    14A     -0.525925    15A     -0.425572
      16A     -0.408625

  @DF-RHF Final Energy:  -208.05866586171720

   => Energetics <=

    Nuclear Repulsion Energy =            121.3774326044045040
    One-Electron Energy =                -523.6755680710521119
    Two-Electron Energy =                 194.2394696049304343
    Total Energy =                       -208.0586658617172020
  Basis Set: (AUG-CC-PVTZ AUX)
    Blend: AUG-CC-PVTZ-RI
    Molecular point group: c1

    Geometry (in Angstrom), charge = 0, multiplicity = 1:

       Center              X                  Y                   Z               Mass
    ------------   -----------------  -----------------  -----------------  -----------------
         C            0.001452289513     0.092100823045    -0.000532091901    12.000000000000
         O            0.410049489513     1.251448923045     0.000091908099    15.994914619570
         N            0.956235289513    -0.886116176955    -0.000137091901    14.003074004430
         H            1.926164289513    -0.602337176955     0.002059908099     1.007825032230
         H            0.735987289513    -1.869285176955     0.000540908099     1.007825032230
         C           -1.433873710487    -0.395296176955     0.000136908099    12.000000000000
         H           -1.931947710487    -0.006158176955     0.890661908099     1.007825032230
         H           -1.526892710487    -1.483492176955    -0.016380091901     1.007825032230
         H           -1.941765710487     0.021973823045    -0.871731091901     1.007825032230

  Basis Set: AUG-CC-PVTZ
    Blend: AUG-CC-PVTZ
  Basis Set: (AUG-CC-PVTZ AUX)
    Blend: AUG-CC-PVTZ-JKFIT
	 Reference Energy          =    -208.0586658617172020 [Eh]
	 Singles Energy            =      -0.0000000000000000 [Eh]
	 Same-Spin Energy          =      -0.2048579386020020 [Eh]
	 Opposite-Spin Energy      =      -0.6566983020074786 [Eh]
	 Correlation Energy        =      -0.8615562406094806 [Eh]
	 Total Energy              =    -208.9202221023266759 [Eh]

	 ================> DF-SCS-MP2 Energies <==================
	-----------------------------------------------------------
	 SCS Same-Spin Scale       =       0.3333333333333333 [-]
	 SCS Opposite-Spin Scale   =       1.2000000000000000 [-]
	 SCS Same-Spin Energy      =      -0.0682859795340006 [Eh]
	 SCS Opposite-Spin Energy  =      -0.7880379624089743 [Eh]
	 SCS Correlation Energy    =      -0.8563239419429749 [Eh]
	 SCS Total Energy          =    -208.9149898036601769 [Eh]
	-----------------------------------------------------------

  Dipole Moment: [D]
     X:    -0.5464      Y:    -3.7710      Z:     0.0050     Total:     3.8104

*** Psi4 exiting successfully. Buy a developer a beer!
