                               Psi4 1.4a3.dev225

  ==> Input File <==

--------------------------------------------------------------------------
#psi4
#
memory 32 gb

molecule  {
0 1
  C       -0.0770510     0.1498570    -0.0035670
  O       -0.4282050     1.3271550    -0.0076950
  N       -0.9842650    -0.8816240     0.0518060
  H       -1.9534590    -0.6329030    -0.0980890
  H       -0.7091260    -1.8228460    -0.1895470
  C        1.4219826    -0.3003674     0.0005888
  H        1.5969590    -0.9097150    -0.8707530
  H        1.5972890    -0.8674120     0.8994210
  H        2.0015580     0.6037800    -0.0234480
units angstrom
no_reorient  #important for SAPT in psi4, default
symmetry c1  #important for SAPT in psi4, default
}

set PROPERTIES_ORIGIN ["COM"]
properties('MP2/aug-cc-pvtz', properties = ['dipole'])
--------------------------------------------------------------------------

    Molecular point group: c1
  Charge       = 0
  Multiplicity = 1
  Basis Set: AUG-CC-PVTZ
    Blend: AUG-CC-PVTZ
  Basis Set: (AUG-CC-PVTZ AUX)
    Blend: AUG-CC-PVTZ-JKFIT

    Orbital Energies [Eh]
    ---------------------

    Doubly Occupied:

       1A    -20.523784     2A    -15.587822     3A    -11.359442
       4A    -11.240058     5A     -1.374820     6A     -1.209575
       7A     -1.001233     8A     -0.795609     9A     -0.719516
      10A     -0.659968    11A     -0.617887    12A     -0.581679
      13A     -0.566649    14A     -0.531795    15A     -0.426104
      16A     -0.416406

  @DF-RHF Final Energy:  -208.05931791150732

   => Energetics <=

    Nuclear Repulsion Energy =            120.5468803645264870
    One-Electron Energy =                -521.9877041848867520
    Two-Electron Energy =                 193.3815059088529438
    Total Energy =                       -208.0593179115073212
  Basis Set: (AUG-CC-PVTZ AUX)
    Blend: AUG-CC-PVTZ-RI
    Molecular point group: c1

    Geometry (in Angstrom), charge = 0, multiplicity = 1:

       Center              X                  Y                   Z               Mass
    ------------   -----------------  -----------------  -----------------  -----------------
         C           -0.044196830998     0.091949931319    -0.008343623576    12.000000000000
         O           -0.395350830998     1.269247931319    -0.012471623576    15.994914619570
         N           -0.951410830998    -0.939531068681     0.047029376424    14.003074004430
         H           -1.920604830998    -0.690810068681    -0.102865623576     1.007825032230
         H           -0.676271830998    -1.880753068681    -0.194323623576     1.007825032230
         C            1.454836769002    -0.358274468681    -0.004187823576    12.000000000000
         H            1.629813169002    -0.967622068681    -0.875529623576     1.007825032230
         H            1.630143169002    -0.925319068681     0.894644376424     1.007825032230
         H            2.034412169002     0.545872931319    -0.028224623576     1.007825032230

  Basis Set: AUG-CC-PVTZ
    Blend: AUG-CC-PVTZ
  Basis Set: (AUG-CC-PVTZ AUX)
    Blend: AUG-CC-PVTZ-JKFIT
	 Reference Energy          =    -208.0593179115073212 [Eh]
	 Singles Energy            =      -0.0000000000000000 [Eh]
	 Same-Spin Energy          =      -0.2044194014528351 [Eh]
	 Opposite-Spin Energy      =      -0.6566646230377864 [Eh]
	 Correlation Energy        =      -0.8610840244906215 [Eh]
	 Total Energy              =    -208.9204019359979441 [Eh]

	 ================> DF-SCS-MP2 Energies <==================
	-----------------------------------------------------------
	 SCS Same-Spin Scale       =       0.3333333333333333 [-]
	 SCS Opposite-Spin Scale   =       1.2000000000000000 [-]
	 SCS Same-Spin Energy      =      -0.0681398004842784 [Eh]
	 SCS Opposite-Spin Energy  =      -0.7879975476453437 [Eh]
	 SCS Correlation Energy    =      -0.8561373481296221 [Eh]
	 SCS Total Energy          =    -208.9154552596369570 [Eh]
	-----------------------------------------------------------

  Dipole Moment: [D]
     X:     0.3747      Y:    -3.6759      Z:    -0.5433     Total:     3.7347

*** Psi4 exiting successfully. Buy a developer a beer!
