                               Psi4 1.3.2 release

  ==> Input File <==

--------------------------------------------------------------------------
#psi4
#
memory 32 gb

molecule  {
0 1
  C        0.0747750     0.1439390    -0.0006420
  O        0.3807735     1.3344869     0.0001174
  N        1.0295580    -0.8342780    -0.0002470
  H        1.9994870    -0.5504990     0.0019500
  H        0.8093100    -1.8174470     0.0004310
  C       -1.3605510    -0.3434580     0.0000270
  H       -1.8586250     0.0456800     0.8905520
  H       -1.4535700    -1.4316540    -0.0164900
  H       -1.8684430     0.0738120    -0.8718410
units angstrom
no_reorient  #important for SAPT in psi4, default
symmetry c1  #important for SAPT in psi4, default
}

set PROPERTIES_ORIGIN ["COM"]
properties('MP2/aug-cc-pvtz', properties = ['dipole'])
--------------------------------------------------------------------------

    Molecular point group: c1
  Charge       = 0
  Multiplicity = 1
  Basis Set: AUG-CC-PVTZ
    Blend: AUG-CC-PVTZ
  Basis Set: (AUG-CC-PVTZ AUX)
    Blend: AUG-CC-PVTZ-JKFIT

    Orbital Energies [Eh]
    ---------------------

    Doubly Occupied:

       1A    -20.516384     2A    -15.589189     3A    -11.357194
       4A    -11.242044     5A     -1.372532     6A     -1.210069
       7A     -1.005941     8A     -0.800673     9A     -0.725419
      10A     -0.663064    11A     -0.613992    12A     -0.584278
      13A     -0.562737    14A     -0.523898    15A     -0.424997
      16A     -0.413800

  @DF-RHF Final Energy:  -208.06146654875573

   => Energetics <=

    Nuclear Repulsion Energy =            121.2746426416097876
    One-Electron Energy =                -523.4597919310892848
    Two-Electron Energy =                 194.1236827407237797
    Total Energy =                       -208.0614665487557318
  Basis Set: (AUG-CC-PVTZ AUX)
    Blend: AUG-CC-PVTZ-RI
    Molecular point group: c1

    Geometry (in Angstrom), charge = 0, multiplicity = 1:

       Center              X                  Y                   Z               Mass
    ------------   -----------------  -----------------  -----------------  -----------------
         C            0.029249336851     0.083647866842    -0.000568775799    12.000000000000
         O            0.335247836851     1.274195766842     0.000190624201    15.994914619570
         N            0.984032336851    -0.894569133158    -0.000173775799    14.003074004430
         H            1.953961336851    -0.610790133158     0.002023224201     1.007825032230
         H            0.763784336851    -1.877738133158     0.000504224201     1.007825032230
         C           -1.406076663149    -0.403749133158     0.000100224201    12.000000000000
         H           -1.904150663149    -0.014611133158     0.890625224201     1.007825032230
         H           -1.499095663149    -1.491945133158    -0.016416775799     1.007825032230
         H           -1.913968663149     0.013520866842    -0.871767775799     1.007825032230

  Basis Set: AUG-CC-PVTZ
    Blend: AUG-CC-PVTZ
  Basis Set: (AUG-CC-PVTZ AUX)
    Blend: AUG-CC-PVTZ-JKFIT
	 Reference Energy          =    -208.0614665487557318 [Eh]
	 Singles Energy            =      -0.0000000000000000 [Eh]
	 Same-Spin Energy          =      -0.2047552737448428 [Eh]
	 Opposite-Spin Energy      =      -0.6565775995963907 [Eh]
	 Correlation Energy        =      -0.8613328733412335 [Eh]
	 Total Energy              =    -208.9227994220969720 [Eh]

	 ================> DF-SCS-MP2 Energies <==================
	-----------------------------------------------------------
	 SCS Same-Spin Scale       =       0.3333333333333333 [-]
	 SCS Opposite-Spin Scale   =       1.2000000000000000 [-]
	 SCS Same-Spin Energy      =      -0.0682517579149476 [Eh]
	 SCS Opposite-Spin Energy  =      -0.7878931195156689 [Eh]
	 SCS Correlation Energy    =      -0.8561448774306165 [Eh]
	 SCS Total Energy          =    -208.9176114261863404 [Eh]
	-----------------------------------------------------------

  Dipole Moment: [D]
     X:    -0.2258      Y:    -3.8377      Z:     0.0048     Total:     3.8443

*** Psi4 exiting successfully. Buy a developer a beer!
