                               Psi4 1.4a3.dev225

  ==> Input File <==

--------------------------------------------------------------------------
#psi4
#
memory 32 gb

molecule  {
0 1
  C       -0.0770510     0.1498570    -0.0035670
  O       -0.4282050     1.3271550    -0.0076950
  N       -0.9842650    -0.8816240     0.0518060
  H       -1.9534590    -0.6329030    -0.0980890
  H       -0.7091260    -1.8228460    -0.1895470
  C        1.3549414    -0.2802320     0.0004029
  H        1.5969590    -0.9097150    -0.8707530
  H        1.5972890    -0.8674120     0.8994210
  H        2.0015580     0.6037800    -0.0234480
units angstrom
no_reorient  #important for SAPT in psi4, default
symmetry c1  #important for SAPT in psi4, default
}

set PROPERTIES_ORIGIN ["COM"]
properties('MP2/aug-cc-pvtz', properties = ['dipole'])
--------------------------------------------------------------------------

    Molecular point group: c1
  Charge       = 0
  Multiplicity = 1
  Basis Set: AUG-CC-PVTZ
    Blend: AUG-CC-PVTZ
  Basis Set: (AUG-CC-PVTZ AUX)
    Blend: AUG-CC-PVTZ-JKFIT

    Orbital Energies [Eh]
    ---------------------

    Doubly Occupied:

       1A    -20.522878     2A    -15.586799     3A    -11.356757
       4A    -11.241836     5A     -1.376057     6A     -1.210367
       7A     -1.008275     8A     -0.796042     9A     -0.720428
      10A     -0.665659    11A     -0.615395    12A     -0.587740
      13A     -0.557984    14A     -0.522690    15A     -0.430881
      16A     -0.417232

  @DF-RHF Final Energy:  -208.06077283817223

   => Energetics <=

    Nuclear Repulsion Energy =            121.4652412315350460
    One-Electron Energy =                -523.8179874766087778
    Two-Electron Energy =                 194.2919734069014908
    Total Energy =                       -208.0607728381722268
  Basis Set: (AUG-CC-PVTZ AUX)
    Blend: AUG-CC-PVTZ-RI
    Molecular point group: c1

    Geometry (in Angstrom), charge = 0, multiplicity = 1:

       Center              X                  Y                   Z               Mass
    ------------   -----------------  -----------------  -----------------  -----------------
         C           -0.030569904673     0.087857170266    -0.008305837176    12.000000000000
         O           -0.381723904673     1.265155170266    -0.012433837176    15.994914619570
         N           -0.937783904673    -0.943623829734     0.047067162824    14.003074004430
         H           -1.906977904673    -0.694902829734    -0.102827837176     1.007825032230
         H           -0.662644904673    -1.884845829734    -0.194285837176     1.007825032230
         C            1.401422495327    -0.342231829734    -0.004335937176    12.000000000000
         H            1.643440095327    -0.971714829734    -0.875491837176     1.007825032230
         H            1.643770095327    -0.929411829734     0.894682162824     1.007825032230
         H            2.048039095327     0.541780170266    -0.028186837176     1.007825032230

  Basis Set: AUG-CC-PVTZ
    Blend: AUG-CC-PVTZ
  Basis Set: (AUG-CC-PVTZ AUX)
    Blend: AUG-CC-PVTZ-JKFIT
	 Reference Energy          =    -208.0607728381722268 [Eh]
	 Singles Energy            =      -0.0000000000000000 [Eh]
	 Same-Spin Energy          =      -0.2047154674844267 [Eh]
	 Opposite-Spin Energy      =      -0.6568169328747089 [Eh]
	 Correlation Energy        =      -0.8615324003591356 [Eh]
	 Total Energy              =    -208.9223052385313508 [Eh]

	 ================> DF-SCS-MP2 Energies <==================
	-----------------------------------------------------------
	 SCS Same-Spin Scale       =       0.3333333333333333 [-]
	 SCS Opposite-Spin Scale   =       1.2000000000000000 [-]
	 SCS Same-Spin Energy      =      -0.0682384891614756 [Eh]
	 SCS Opposite-Spin Energy  =      -0.7881803194496506 [Eh]
	 SCS Correlation Energy    =      -0.8564188086111262 [Eh]
	 SCS Total Energy          =    -208.9171916467833512 [Eh]
	-----------------------------------------------------------

  Dipole Moment: [D]
     X:     0.4765      Y:    -3.7030      Z:    -0.5428     Total:     3.7728

*** Psi4 exiting successfully. Buy a developer a beer!
