                               Psi4 1.3.2 release

  ==> Input File <==

--------------------------------------------------------------------------
#psi4
#
memory 32 gb

molecule  {
0 1
  C        0.0747750     0.1439390    -0.0006420
  O        0.3599490     1.3396460     0.0001020
  N        1.1692546    -0.9774033    -0.0001892
  H        1.9994870    -0.5504990     0.0019500
  H        0.8093100    -1.8174470     0.0004310
  C       -1.3605510    -0.3434580     0.0000270
  H       -1.8586250     0.0456800     0.8905520
  H       -1.4535700    -1.4316540    -0.0164900
  H       -1.8684430     0.0738120    -0.8718410
units angstrom
no_reorient  #important for SAPT in psi4, default
symmetry c1  #important for SAPT in psi4, default
}

set PROPERTIES_ORIGIN ["COM"]
properties('MP2/aug-cc-pvtz', properties = ['dipole'])
--------------------------------------------------------------------------

    Molecular point group: c1
  Charge       = 0
  Multiplicity = 1
  Basis Set: AUG-CC-PVTZ
    Blend: AUG-CC-PVTZ
  Basis Set: (AUG-CC-PVTZ AUX)
    Blend: AUG-CC-PVTZ-JKFIT

    Orbital Energies [Eh]
    ---------------------

    Doubly Occupied:

       1A    -20.546940     2A    -15.567175     3A    -11.380458
       4A    -11.251251     5A     -1.382303     6A     -1.189471
       7A     -1.015061     8A     -0.772044     9A     -0.764080
      10A     -0.654812    11A     -0.613364    12A     -0.611351
      13A     -0.562891    14A     -0.516195    15A     -0.431345
      16A     -0.417021

  @DF-RHF Final Energy:  -208.01586201814899

   => Energetics <=

    Nuclear Repulsion Energy =            118.1495196925322091
    One-Electron Energy =                -516.9792373030510362
    Two-Electron Energy =                 190.8138555923698618
    Total Energy =                       -208.0158620181489937
  Basis Set: (AUG-CC-PVTZ AUX)
    Blend: AUG-CC-PVTZ-RI
    Molecular point group: c1

    Geometry (in Angstrom), charge = 0, multiplicity = 1:

       Center              X                  Y                   Z               Mass
    ------------   -----------------  -----------------  -----------------  -----------------
         C            0.001756534029     0.116198150564    -0.000578313121    12.000000000000
         O            0.286930534029     1.311905150564     0.000165686879    15.994914619570
         N            1.096236134029    -1.005144149436    -0.000125513121    14.003074004430
         H            1.926468534029    -0.578239849436     0.002013686879     1.007825032230
         H            0.736291534029    -1.845187849436     0.000494686879     1.007825032230
         C           -1.433569465971    -0.371198849436     0.000090686879    12.000000000000
         H           -1.931643465971     0.017939150564     0.890615686879     1.007825032230
         H           -1.526588465971    -1.459394849436    -0.016426313121     1.007825032230
         H           -1.941461465971     0.046071150564    -0.871777313121     1.007825032230

  Basis Set: AUG-CC-PVTZ
    Blend: AUG-CC-PVTZ
  Basis Set: (AUG-CC-PVTZ AUX)
    Blend: AUG-CC-PVTZ-JKFIT
	 Reference Energy          =    -208.0158620181489937 [Eh]
	 Singles Energy            =      -0.0000000000000000 [Eh]
	 Same-Spin Energy          =      -0.2050533455696241 [Eh]
	 Opposite-Spin Energy      =      -0.6596181785478925 [Eh]
	 Correlation Energy        =      -0.8646715241175166 [Eh]
	 Total Energy              =    -208.8805335422665053 [Eh]

	 ================> DF-SCS-MP2 Energies <==================
	-----------------------------------------------------------
	 SCS Same-Spin Scale       =       0.3333333333333333 [-]
	 SCS Opposite-Spin Scale   =       1.2000000000000000 [-]
	 SCS Same-Spin Energy      =      -0.0683511151898747 [Eh]
	 SCS Opposite-Spin Energy  =      -0.7915418142574709 [Eh]
	 SCS Correlation Energy    =      -0.8598929294473456 [Eh]
	 SCS Total Energy          =    -208.8757549475963344 [Eh]
	-----------------------------------------------------------

  Dipole Moment: [D]
     X:    -0.9304      Y:    -2.8644      Z:     0.0054     Total:     3.0118

*** Psi4 exiting successfully. Buy a developer a beer!
