                               Psi4 1.3.2 release

  ==> Input File <==

--------------------------------------------------------------------------
#psi4
#
memory 32 gb

molecule  {
0 1
  C        0.0747750     0.1439390    -0.0006420
  O        0.4063473     1.5341895     0.0002231
  N        1.0295580    -0.8342780    -0.0002470
  H        1.9994870    -0.5504990     0.0019500
  H        0.8093100    -1.8174470     0.0004310
  C       -1.3605510    -0.3434580     0.0000270
  H       -1.8586250     0.0456800     0.8905520
  H       -1.4535700    -1.4316540    -0.0164900
  H       -1.8684430     0.0738120    -0.8718410
units angstrom
no_reorient  #important for SAPT in psi4, default
symmetry c1  #important for SAPT in psi4, default
}

set PROPERTIES_ORIGIN ["COM"]
properties('MP2/aug-cc-pvtz', properties = ['dipole'])
--------------------------------------------------------------------------

    Molecular point group: c1
  Charge       = 0
  Multiplicity = 1
  Basis Set: AUG-CC-PVTZ
    Blend: AUG-CC-PVTZ
  Basis Set: (AUG-CC-PVTZ AUX)
    Blend: AUG-CC-PVTZ-JKFIT

    Orbital Energies [Eh]
    ---------------------

    Doubly Occupied:

       1A    -20.511858     2A    -15.619588     3A    -11.389068
       4A    -11.256009     5A     -1.290354     6A     -1.200692
       7A     -1.018345     8A     -0.821726     9A     -0.742851
      10A     -0.651571    11A     -0.610658    12A     -0.572700
      13A     -0.529664    14A     -0.514016    15A     -0.412378
      16A     -0.395161

  @DF-RHF Final Energy:  -208.00563325744932

   => Energetics <=

    Nuclear Repulsion Energy =            116.3768639625395593
    One-Electron Energy =                -513.6917170439000984
    Two-Electron Energy =                 189.3092198239112065
    Total Energy =                       -208.0056332574493183
  Basis Set: (AUG-CC-PVTZ AUX)
    Blend: AUG-CC-PVTZ-RI
    Molecular point group: c1

    Geometry (in Angstrom), charge = 0, multiplicity = 1:

       Center              X                  Y                   Z               Mass
    ------------   -----------------  -----------------  -----------------  -----------------
         C            0.022320631817     0.029542477342    -0.000597413081    12.000000000000
         O            0.353892931817     1.419792977342     0.000267686919    15.994914619570
         N            0.977103631817    -0.948674522658    -0.000202413081    14.003074004430
         H            1.947032631817    -0.664895522658     0.001994586919     1.007825032230
         H            0.756855631817    -1.931843522658     0.000475586919     1.007825032230
         C           -1.413005368183    -0.457854522658     0.000071586919    12.000000000000
         H           -1.911079368183    -0.068716522658     0.890596586919     1.007825032230
         H           -1.506024368183    -1.546050522658    -0.016445413081     1.007825032230
         H           -1.920897368183    -0.040584522658    -0.871796413081     1.007825032230

  Basis Set: AUG-CC-PVTZ
    Blend: AUG-CC-PVTZ
  Basis Set: (AUG-CC-PVTZ AUX)
    Blend: AUG-CC-PVTZ-JKFIT
	 Reference Energy          =    -208.0056332574493183 [Eh]
	 Singles Energy            =      -0.0000000000000000 [Eh]
	 Same-Spin Energy          =      -0.2084161209819446 [Eh]
	 Opposite-Spin Energy      =      -0.6664053428683346 [Eh]
	 Correlation Energy        =      -0.8748214638502791 [Eh]
	 Total Energy              =    -208.8804547212995999 [Eh]

	 ================> DF-SCS-MP2 Energies <==================
	-----------------------------------------------------------
	 SCS Same-Spin Scale       =       0.3333333333333333 [-]
	 SCS Opposite-Spin Scale   =       1.2000000000000000 [-]
	 SCS Same-Spin Energy      =      -0.0694720403273149 [Eh]
	 SCS Opposite-Spin Energy  =      -0.7996864114420016 [Eh]
	 SCS Correlation Energy    =      -0.8691584517693165 [Eh]
	 SCS Total Energy          =    -208.8747917092186412 [Eh]
	-----------------------------------------------------------

  Dipole Moment: [D]
     X:    -0.2604      Y:    -4.9646      Z:     0.0047     Total:     4.9714

*** Psi4 exiting successfully. Buy a developer a beer!
