                               Psi4 1.3.2 release

  ==> Input File <==

--------------------------------------------------------------------------
#psi4
#
memory 32 gb

molecule  {
0 1
  C        0.0747750     0.1439390    -0.0006420
  O        0.3599490     1.3396460     0.0001020
  N        1.0295580    -0.8342780    -0.0002470
  H        1.9994870    -0.5504990     0.0019500
  H        0.8093100    -1.8174470     0.0004310
  C       -1.4552406    -0.3756120     0.0000711
  H       -1.8586250     0.0456800     0.8905520
  H       -1.4535700    -1.4316540    -0.0164900
  H       -1.8684430     0.0738120    -0.8718410
units angstrom
no_reorient  #important for SAPT in psi4, default
symmetry c1  #important for SAPT in psi4, default
}

set PROPERTIES_ORIGIN ["COM"]
properties('MP2/aug-cc-pvtz', properties = ['dipole'])
--------------------------------------------------------------------------

    Molecular point group: c1
  Charge       = 0
  Multiplicity = 1
  Basis Set: AUG-CC-PVTZ
    Blend: AUG-CC-PVTZ
  Basis Set: (AUG-CC-PVTZ AUX)
    Blend: AUG-CC-PVTZ-JKFIT

    Orbital Energies [Eh]
    ---------------------

    Doubly Occupied:

       1A    -20.518709     2A    -15.591153     3A    -11.360431
       4A    -11.239069     5A     -1.370983     6A     -1.210380
       7A     -0.996453     8A     -0.800505     9A     -0.724888
      10A     -0.656460    11A     -0.616243    12A     -0.587002
      13A     -0.563690    14A     -0.534585    15A     -0.415381
      16A     -0.415316

  @DF-RHF Final Energy:  -208.05375316121496

   => Energetics <=

    Nuclear Repulsion Energy =            119.9886540052080619
    One-Electron Energy =                -520.8823194895783217
    Two-Electron Energy =                 192.8399123231553176
    Total Energy =                       -208.0537531612149564
  Basis Set: (AUG-CC-PVTZ AUX)
    Blend: AUG-CC-PVTZ-RI
    Molecular point group: c1

    Geometry (in Angstrom), charge = 0, multiplicity = 1:

       Center              X                  Y                   Z               Mass
    ------------   -----------------  -----------------  -----------------  -----------------
         C            0.054138109443     0.088785798163    -0.000573567332    12.000000000000
         O            0.339312109443     1.284492798163     0.000170432668    15.994914619570
         N            1.008921109443    -0.889431201837    -0.000178567332    14.003074004430
         H            1.978850109443    -0.605652201837     0.002018432668     1.007825032230
         H            0.788673109443    -1.872600201837     0.000499432668     1.007825032230
         C           -1.475877490557    -0.430765201837     0.000139532668    12.000000000000
         H           -1.879261890557    -0.009473201837     0.890620432668     1.007825032230
         H           -1.474206890557    -1.486807201837    -0.016421567332     1.007825032230
         H           -1.889079890557     0.018658798163    -0.871772567332     1.007825032230

  Basis Set: AUG-CC-PVTZ
    Blend: AUG-CC-PVTZ
  Basis Set: (AUG-CC-PVTZ AUX)
    Blend: AUG-CC-PVTZ-JKFIT
	 Reference Energy          =    -208.0537531612149564 [Eh]
	 Singles Energy            =      -0.0000000000000000 [Eh]
	 Same-Spin Energy          =      -0.2045610904154980 [Eh]
	 Opposite-Spin Energy      =      -0.6568076495136987 [Eh]
	 Correlation Energy        =      -0.8613687399291967 [Eh]
	 Total Energy              =    -208.9151219011441469 [Eh]

	 ================> DF-SCS-MP2 Energies <==================
	-----------------------------------------------------------
	 SCS Same-Spin Scale       =       0.3333333333333333 [-]
	 SCS Opposite-Spin Scale   =       1.2000000000000000 [-]
	 SCS Same-Spin Energy      =      -0.0681870301384993 [Eh]
	 SCS Opposite-Spin Energy  =      -0.7881691794164385 [Eh]
	 SCS Correlation Energy    =      -0.8563562095549379 [Eh]
	 SCS Total Energy          =    -208.9101093707699022 [Eh]
	-----------------------------------------------------------

  Dipole Moment: [D]
     X:    -0.0197      Y:    -3.8061      Z:     0.0044     Total:     3.8062

*** Psi4 exiting successfully. Buy a developer a beer!
