                               Psi4 1.4a3.dev225

  ==> Input File <==

--------------------------------------------------------------------------
#psi4
#
memory 32 gb

molecule  {
0 1
  C       -0.0770510     0.1498570    -0.0035670
  O       -0.4139137     1.2792412    -0.0075270
  N       -0.9842650    -0.8816240     0.0518060
  H       -1.9534590    -0.6329030    -0.0980890
  H       -0.7091260    -1.8228460    -0.1895470
  C        1.3740960    -0.2859850     0.0004560
  H        1.5969590    -0.9097150    -0.8707530
  H        1.5972890    -0.8674120     0.8994210
  H        2.0015580     0.6037800    -0.0234480
units angstrom
no_reorient  #important for SAPT in psi4, default
symmetry c1  #important for SAPT in psi4, default
}

set PROPERTIES_ORIGIN ["COM"]
properties('MP2/aug-cc-pvtz', properties = ['dipole'])
--------------------------------------------------------------------------

    Molecular point group: c1
  Charge       = 0
  Multiplicity = 1
  Basis Set: AUG-CC-PVTZ
    Blend: AUG-CC-PVTZ
  Basis Set: (AUG-CC-PVTZ AUX)
    Blend: AUG-CC-PVTZ-JKFIT

    Orbital Energies [Eh]
    ---------------------

    Doubly Occupied:

       1A    -20.523221     2A    -15.579532     3A    -11.347318
       4A    -11.236695     5A     -1.408239     6A     -1.207081
       7A     -1.002672     8A     -0.790944     9A     -0.717380
      10A     -0.670719    11A     -0.620034    12A     -0.596683
      13A     -0.559090    14A     -0.531735    15A     -0.430724
      16A     -0.418392

  @DF-RHF Final Energy:  -208.06342565485798

   => Energetics <=

    Nuclear Repulsion Energy =            122.6069472813703527
    One-Electron Energy =                -526.0598265017223412
    Two-Electron Energy =                 195.3894535654939943
    Total Energy =                       -208.0634256548579799
  Basis Set: (AUG-CC-PVTZ AUX)
    Blend: AUG-CC-PVTZ-RI
    Molecular point group: c1

    Geometry (in Angstrom), charge = 0, multiplicity = 1:

       Center              X                  Y                   Z               Mass
    ------------   -----------------  -----------------  -----------------  -----------------
         C           -0.038335245726     0.102007813590    -0.008362146596    12.000000000000
         O           -0.375197945726     1.231392013590    -0.012322146596    15.994914619570
         N           -0.945549245726    -0.929473186410     0.047010853404    14.003074004430
         H           -1.914743245726    -0.680752186410    -0.102884146596     1.007825032230
         H           -0.670410245726    -1.870695186410    -0.194342146596     1.007825032230
         C            1.412811754274    -0.333834186410    -0.004339146596    12.000000000000
         H            1.635674754274    -0.957564186410    -0.875548146596     1.007825032230
         H            1.636004754274    -0.915261186410     0.894625853404     1.007825032230
         H            2.040273754274     0.555930813590    -0.028243146596     1.007825032230

  Basis Set: AUG-CC-PVTZ
    Blend: AUG-CC-PVTZ
  Basis Set: (AUG-CC-PVTZ AUX)
    Blend: AUG-CC-PVTZ-JKFIT
	 Reference Energy          =    -208.0634256548579799 [Eh]
	 Singles Energy            =      -0.0000000000000000 [Eh]
	 Same-Spin Energy          =      -0.2034424230615010 [Eh]
	 Opposite-Spin Energy      =      -0.6538122997169978 [Eh]
	 Correlation Energy        =      -0.8572547227784989 [Eh]
	 Total Energy              =    -208.9206803776364723 [Eh]

	 ================> DF-SCS-MP2 Energies <==================
	-----------------------------------------------------------
	 SCS Same-Spin Scale       =       0.3333333333333333 [-]
	 SCS Opposite-Spin Scale   =       1.2000000000000000 [-]
	 SCS Same-Spin Energy      =      -0.0678141410205003 [Eh]
	 SCS Opposite-Spin Energy  =      -0.7845747596603974 [Eh]
	 SCS Correlation Energy    =      -0.8523889006808977 [Eh]
	 SCS Total Energy          =    -208.9158145555388728 [Eh]
	-----------------------------------------------------------

  Dipole Moment: [D]
     X:     0.4089      Y:    -3.3991      Z:    -0.5501     Total:     3.4675

*** Psi4 exiting successfully. Buy a developer a beer!
