                               Psi4 1.4a3.dev225

  ==> Input File <==

--------------------------------------------------------------------------
#psi4
#
memory 32 gb

molecule  {
0 1
  C       -0.0770510     0.1498570    -0.0035670
  O       -0.4282050     1.3271550    -0.0076950
  N       -0.9842650    -0.8816240     0.0518060
  H       -1.9534590    -0.6329030    -0.0980890
  H       -0.7091260    -1.8228460    -0.1895470
  C        1.3262094    -0.2716026     0.0003232
  H        1.5969590    -0.9097150    -0.8707530
  H        1.5972890    -0.8674120     0.8994210
  H        2.0015580     0.6037800    -0.0234480
units angstrom
no_reorient  #important for SAPT in psi4, default
symmetry c1  #important for SAPT in psi4, default
}

set PROPERTIES_ORIGIN ["COM"]
properties('MP2/aug-cc-pvtz', properties = ['dipole'])
--------------------------------------------------------------------------

    Molecular point group: c1
  Charge       = 0
  Multiplicity = 1
  Basis Set: AUG-CC-PVTZ
    Blend: AUG-CC-PVTZ
  Basis Set: (AUG-CC-PVTZ AUX)
    Blend: AUG-CC-PVTZ-JKFIT

    Orbital Energies [Eh]
    ---------------------

    Doubly Occupied:

       1A    -20.522465     2A    -15.586288     3A    -11.355298
       4A    -11.242989     5A     -1.376679     6A     -1.210751
       7A     -1.012042     8A     -0.796129     9A     -0.720853
      10A     -0.668551    11A     -0.614878    12A     -0.591265
      13A     -0.552581    14A     -0.518154    15A     -0.432609
      16A     -0.417277

  @DF-RHF Final Energy:  -208.05845486986522

   => Energetics <=

    Nuclear Repulsion Energy =            121.8755124456964296
    One-Electron Energy =                -524.6303171539964296
    Two-Electron Energy =                 194.6963498384347986
    Total Energy =                       -208.0584548698652156
  Basis Set: (AUG-CC-PVTZ AUX)
    Blend: AUG-CC-PVTZ-RI
    Molecular point group: c1

    Geometry (in Angstrom), charge = 0, multiplicity = 1:

       Center              X                  Y                   Z               Mass
    ------------   -----------------  -----------------  -----------------  -----------------
         C           -0.024729781776     0.086103141429    -0.008289637197    12.000000000000
         O           -0.375883781776     1.263401141429    -0.012417637197    15.994914619570
         N           -0.931943781776    -0.945377858571     0.047083362803    14.003074004430
         H           -1.901137781776    -0.696656858571    -0.102811637197     1.007825032230
         H           -0.656804781776    -1.886599858571    -0.194269637197     1.007825032230
         C            1.378530618224    -0.335356458571    -0.004399437197    12.000000000000
         H            1.649280218224    -0.973468858571    -0.875475637197     1.007825032230
         H            1.649610218224    -0.931165858571     0.894698362803     1.007825032230
         H            2.053879218224     0.540026141429    -0.028170637197     1.007825032230

  Basis Set: AUG-CC-PVTZ
    Blend: AUG-CC-PVTZ
  Basis Set: (AUG-CC-PVTZ AUX)
    Blend: AUG-CC-PVTZ-JKFIT
	 Reference Energy          =    -208.0584548698652156 [Eh]
	 Singles Energy            =      -0.0000000000000000 [Eh]
	 Same-Spin Energy          =      -0.2049640554022655 [Eh]
	 Opposite-Spin Energy      =      -0.6570965272651742 [Eh]
	 Correlation Energy        =      -0.8620605826674397 [Eh]
	 Total Energy              =    -208.9205154525326691 [Eh]

	 ================> DF-SCS-MP2 Energies <==================
	-----------------------------------------------------------
	 SCS Same-Spin Scale       =       0.3333333333333333 [-]
	 SCS Opposite-Spin Scale   =       1.2000000000000000 [-]
	 SCS Same-Spin Energy      =      -0.0683213518007552 [Eh]
	 SCS Opposite-Spin Energy  =      -0.7885158327182090 [Eh]
	 SCS Correlation Energy    =      -0.8568371845189642 [Eh]
	 SCS Total Energy          =    -208.9152920543841674 [Eh]
	-----------------------------------------------------------

  Dipole Moment: [D]
     X:     0.5216      Y:    -3.7138      Z:    -0.5425     Total:     3.7892

*** Psi4 exiting successfully. Buy a developer a beer!
