                               Psi4 1.3.2 release

  ==> Input File <==

--------------------------------------------------------------------------
#psi4
#
memory 32 gb

molecule  {
0 1
  C        0.0747750     0.1439390    -0.0006420
  O        0.4833722     1.3032869     0.0001910
  N        1.0295580    -0.8342780    -0.0002470
  H        1.9994870    -0.5504990     0.0019500
  H        0.8093100    -1.8174470     0.0004310
  C       -1.3605510    -0.3434580     0.0000270
  H       -1.8586250     0.0456800     0.8905520
  H       -1.4535700    -1.4316540    -0.0164900
  H       -1.8684430     0.0738120    -0.8718410
units angstrom
no_reorient  #important for SAPT in psi4, default
symmetry c1  #important for SAPT in psi4, default
}

set PROPERTIES_ORIGIN ["COM"]
properties('MP2/aug-cc-pvtz', properties = ['dipole'])
--------------------------------------------------------------------------

    Molecular point group: c1
  Charge       = 0
  Multiplicity = 1
  Basis Set: AUG-CC-PVTZ
    Blend: AUG-CC-PVTZ
  Basis Set: (AUG-CC-PVTZ AUX)
    Blend: AUG-CC-PVTZ-JKFIT

    Orbital Energies [Eh]
    ---------------------

    Doubly Occupied:

       1A    -20.514731     2A    -15.583135     3A    -11.356980
       4A    -11.247520     5A     -1.374038     6A     -1.202622
       7A     -1.010759     8A     -0.797919     9A     -0.722210
      10A     -0.662010    11A     -0.615602    12A     -0.585250
      13A     -0.565416    14A     -0.525925    15A     -0.425572
      16A     -0.408625

  @DF-RHF Final Energy:  -208.05866584312415

   => Energetics <=

    Nuclear Repulsion Energy =            121.3774356740199920
    One-Electron Energy =                -523.6755741960444084
    Two-Electron Energy =                 194.2394726789002846
    Total Energy =                       -208.0586658431241460
  Basis Set: (AUG-CC-PVTZ AUX)
    Blend: AUG-CC-PVTZ-RI
    Molecular point group: c1

    Geometry (in Angstrom), charge = 0, multiplicity = 1:

       Center              X                  Y                   Z               Mass
    ------------   -----------------  -----------------  -----------------  -----------------
         C            0.001452289513     0.092100877231    -0.000588716233    12.000000000000
         O            0.410049489513     1.251448777231     0.000244283767    15.994914619570
         N            0.956235289513    -0.886116122769    -0.000193716233    14.003074004430
         H            1.926164289513    -0.602337122769     0.002003283767     1.007825032230
         H            0.735987289513    -1.869285122769     0.000484283767     1.007825032230
         C           -1.433873710487    -0.395296122769     0.000080283767    12.000000000000
         H           -1.931947710487    -0.006158122769     0.890605283767     1.007825032230
         H           -1.526892710487    -1.483492122769    -0.016436716233     1.007825032230
         H           -1.941765710487     0.021973877231    -0.871787716233     1.007825032230

  Basis Set: AUG-CC-PVTZ
    Blend: AUG-CC-PVTZ
  Basis Set: (AUG-CC-PVTZ AUX)
    Blend: AUG-CC-PVTZ-JKFIT
	 Reference Energy          =    -208.0586658431241460 [Eh]
	 Singles Energy            =      -0.0000000000000000 [Eh]
	 Same-Spin Energy          =      -0.2048579384102441 [Eh]
	 Opposite-Spin Energy      =      -0.6566983037182517 [Eh]
	 Correlation Energy        =      -0.8615562421284958 [Eh]
	 Total Energy              =    -208.9202220852526466 [Eh]

	 ================> DF-SCS-MP2 Energies <==================
	-----------------------------------------------------------
	 SCS Same-Spin Scale       =       0.3333333333333333 [-]
	 SCS Opposite-Spin Scale   =       1.2000000000000000 [-]
	 SCS Same-Spin Energy      =      -0.0682859794700814 [Eh]
	 SCS Opposite-Spin Energy  =      -0.7880379644619020 [Eh]
	 SCS Correlation Energy    =      -0.8563239439319834 [Eh]
	 SCS Total Energy          =    -208.9149897870561290 [Eh]
	-----------------------------------------------------------

  Dipole Moment: [D]
     X:    -0.5464      Y:    -3.7710      Z:     0.0046     Total:     3.8104

*** Psi4 exiting successfully. Buy a developer a beer!
