                               Psi4 1.3.2 release

  ==> Input File <==

--------------------------------------------------------------------------
#psi4
#
memory 32 gb

molecule  {
0 1
  C        0.0747750     0.1439390    -0.0006420
  O        0.3599490     1.3396460     0.0001020
  N        1.0295580    -0.8342780    -0.0002470
  H        1.8075345    -0.6066599     0.0015152
  H        0.8093100    -1.8174470     0.0004310
  C       -1.3605510    -0.3434580     0.0000270
  H       -1.8586250     0.0456800     0.8905520
  H       -1.4535700    -1.4316540    -0.0164900
  H       -1.8684430     0.0738120    -0.8718410
units angstrom
no_reorient  #important for SAPT in psi4, default
symmetry c1  #important for SAPT in psi4, default
}

set PROPERTIES_ORIGIN ["COM"]
properties('MP2/aug-cc-pvtz', properties = ['dipole'])
--------------------------------------------------------------------------

    Molecular point group: c1
  Charge       = 0
  Multiplicity = 1
  Basis Set: AUG-CC-PVTZ
    Blend: AUG-CC-PVTZ
  Basis Set: (AUG-CC-PVTZ AUX)
    Blend: AUG-CC-PVTZ-JKFIT

    Orbital Energies [Eh]
    ---------------------

    Doubly Occupied:

       1A    -20.519191     2A    -15.570596     3A    -11.358776
       4A    -11.241215     5A     -1.377776     6A     -1.245657
       7A     -1.013332     8A     -0.828985     9A     -0.758844
      10A     -0.668776    11A     -0.615261    12A     -0.589913
      13A     -0.566000    14A     -0.526113    15A     -0.426430
      16A     -0.419643

  @DF-RHF Final Energy:  -208.01513410051419

   => Energetics <=

    Nuclear Repulsion Energy =            122.4619690745376346
    One-Electron Energy =                -525.5011927776728271
    Two-Electron Energy =                 195.0240896026209896
    Total Energy =                       -208.0151341005141887
  Basis Set: (AUG-CC-PVTZ AUX)
    Blend: AUG-CC-PVTZ-RI
    Molecular point group: c1

    Geometry (in Angstrom), charge = 0, multiplicity = 1:

       Center              X                  Y                   Z               Mass
    ------------   -----------------  -----------------  -----------------  -----------------
         C            0.038168144025     0.083208837874    -0.000557180991    12.000000000000
         O            0.323342144025     1.278915837874     0.000186819009    15.994914619570
         N            0.992951144025    -0.895008162126    -0.000162180991    14.003074004430
         H            1.770927644025    -0.667390062126     0.001600019009     1.007825032230
         H            0.772703144025    -1.878177162126     0.000515819009     1.007825032230
         C           -1.397157855975    -0.404188162126     0.000111819009    12.000000000000
         H           -1.895231855975    -0.015050162126     0.890636819009     1.007825032230
         H           -1.490176855975    -1.492384162126    -0.016405180991     1.007825032230
         H           -1.905049855975     0.013081837874    -0.871756180991     1.007825032230

  Basis Set: AUG-CC-PVTZ
    Blend: AUG-CC-PVTZ
  Basis Set: (AUG-CC-PVTZ AUX)
    Blend: AUG-CC-PVTZ-JKFIT
	 Reference Energy          =    -208.0151341005141887 [Eh]
	 Singles Energy            =      -0.0000000000000000 [Eh]
	 Same-Spin Energy          =      -0.2037190277278585 [Eh]
	 Opposite-Spin Energy      =      -0.6542990801656156 [Eh]
	 Correlation Energy        =      -0.8580181078934741 [Eh]
	 Total Energy              =    -208.8731522084076744 [Eh]

	 ================> DF-SCS-MP2 Energies <==================
	-----------------------------------------------------------
	 SCS Same-Spin Scale       =       0.3333333333333333 [-]
	 SCS Opposite-Spin Scale   =       1.2000000000000000 [-]
	 SCS Same-Spin Energy      =      -0.0679063425759528 [Eh]
	 SCS Opposite-Spin Energy  =      -0.7851588961987387 [Eh]
	 SCS Correlation Energy    =      -0.8530652387746915 [Eh]
	 SCS Total Energy          =    -208.8681993392888785 [Eh]
	-----------------------------------------------------------

  Dipole Moment: [D]
     X:    -0.3500      Y:    -3.8808      Z:     0.0045     Total:     3.8965

*** Psi4 exiting successfully. Buy a developer a beer!
