                               Psi4 1.3.2 release

  ==> Input File <==

--------------------------------------------------------------------------
#psi4
#
memory 32 gb

molecule  {
0 1
  C        0.0747750     0.1439390    -0.0006420
  O        0.2758460     1.3566260     0.0001775
  N        1.0295580    -0.8342780    -0.0002470
  H        1.9994870    -0.5504990     0.0019500
  H        0.8093100    -1.8174470     0.0004310
  C       -1.3605510    -0.3434580     0.0000270
  H       -1.8586250     0.0456800     0.8905520
  H       -1.4535700    -1.4316540    -0.0164900
  H       -1.8684430     0.0738120    -0.8718410
units angstrom
no_reorient  #important for SAPT in psi4, default
symmetry c1  #important for SAPT in psi4, default
}

set PROPERTIES_ORIGIN ["COM"]
properties('MP2/aug-cc-pvtz', properties = ['dipole'])
--------------------------------------------------------------------------

    Molecular point group: c1
  Charge       = 0
  Multiplicity = 1
  Basis Set: AUG-CC-PVTZ
    Blend: AUG-CC-PVTZ
  Basis Set: (AUG-CC-PVTZ AUX)
    Blend: AUG-CC-PVTZ-JKFIT

    Orbital Energies [Eh]
    ---------------------

    Doubly Occupied:

       1A    -20.517696     2A    -15.594958     3A    -11.357580
       4A    -11.236475     5A     -1.371879     6A     -1.216817
       7A     -1.000786     8A     -0.803470     9A     -0.728541
      10A     -0.664027    11A     -0.612707    12A     -0.583385
      13A     -0.559526    14A     -0.521728    15A     -0.422661
      16A     -0.418421

  @DF-RHF Final Energy:  -208.05998844408310

   => Energetics <=

    Nuclear Repulsion Energy =            121.2644981316940118
    One-Electron Energy =                -523.4276630953207814
    Two-Electron Energy =                 194.1031765195436378
    Total Energy =                       -208.0599884440831033
  Basis Set: (AUG-CC-PVTZ AUX)
    Blend: AUG-CC-PVTZ-RI
    Molecular point group: c1

    Geometry (in Angstrom), charge = 0, multiplicity = 1:

       Center              X                  Y                   Z               Mass
    ------------   -----------------  -----------------  -----------------  -----------------
         C            0.057677325554     0.077649724461    -0.000585058681    12.000000000000
         O            0.258748325554     1.290336724461     0.000234441319    15.994914619570
         N            1.012460325554    -0.900567275539    -0.000190058681    14.003074004430
         H            1.982389325554    -0.616788275539     0.002006941319     1.007825032230
         H            0.792212325554    -1.883736275539     0.000487941319     1.007825032230
         C           -1.377648674446    -0.409747275539     0.000083941319    12.000000000000
         H           -1.875722674446    -0.020609275539     0.890608941319     1.007825032230
         H           -1.470667674446    -1.497943275539    -0.016433058681     1.007825032230
         H           -1.885540674446     0.007522724461    -0.871784058681     1.007825032230

  Basis Set: AUG-CC-PVTZ
    Blend: AUG-CC-PVTZ
  Basis Set: (AUG-CC-PVTZ AUX)
    Blend: AUG-CC-PVTZ-JKFIT
	 Reference Energy          =    -208.0599884440831033 [Eh]
	 Singles Energy            =      -0.0000000000000000 [Eh]
	 Same-Spin Energy          =      -0.2047899339653868 [Eh]
	 Opposite-Spin Energy      =      -0.6567558945901705 [Eh]
	 Correlation Energy        =      -0.8615458285555573 [Eh]
	 Total Energy              =    -208.9215342726386666 [Eh]

	 ================> DF-SCS-MP2 Energies <==================
	-----------------------------------------------------------
	 SCS Same-Spin Scale       =       0.3333333333333333 [-]
	 SCS Opposite-Spin Scale   =       1.2000000000000000 [-]
	 SCS Same-Spin Energy      =      -0.0682633113217956 [Eh]
	 SCS Opposite-Spin Energy  =      -0.7881070735082045 [Eh]
	 SCS Correlation Energy    =      -0.8563703848300002 [Eh]
	 SCS Total Energy          =    -208.9163588289131042 [Eh]
	-----------------------------------------------------------

  Dipole Moment: [D]
     X:     0.1005      Y:    -3.8717      Z:     0.0047     Total:     3.8730

*** Psi4 exiting successfully. Buy a developer a beer!
