                               Psi4 1.3.2 release

  ==> Input File <==

--------------------------------------------------------------------------
#psi4
#
memory 32 gb

molecule  {
0 1
  C        0.0747750     0.1439390    -0.0006420
  O        0.3831481     1.4369178     0.0001625
  N        1.0295580    -0.8342780    -0.0002470
  H        1.9994870    -0.5504990     0.0019500
  H        0.8093100    -1.8174470     0.0004310
  C       -1.3605510    -0.3434580     0.0000270
  H       -1.8586250     0.0456800     0.8905520
  H       -1.4535700    -1.4316540    -0.0164900
  H       -1.8684430     0.0738120    -0.8718410
units angstrom
no_reorient  #important for SAPT in psi4, default
symmetry c1  #important for SAPT in psi4, default
}

set PROPERTIES_ORIGIN ["COM"]
properties('MP2/aug-cc-pvtz', properties = ['dipole'])
--------------------------------------------------------------------------

    Molecular point group: c1
  Charge       = 0
  Multiplicity = 1
  Basis Set: AUG-CC-PVTZ
    Blend: AUG-CC-PVTZ
  Basis Set: (AUG-CC-PVTZ AUX)
    Blend: AUG-CC-PVTZ-JKFIT

    Orbital Energies [Eh]
    ---------------------

    Doubly Occupied:

       1A    -20.514748     2A    -15.605560     3A    -11.375369
       4A    -11.249122     5A     -1.320066     6A     -1.212389
       7A     -1.011812     8A     -0.811784     9A     -0.734235
      10A     -0.654914    11A     -0.610240    12A     -0.568049
      13A     -0.557256    14A     -0.516381    15A     -0.420060
      16A     -0.405626

  @DF-RHF Final Energy:  -208.03976929123246

   => Energetics <=

    Nuclear Repulsion Energy =            118.6852926787841938
    One-Electron Energy =                -518.3149004278440088
    Two-Electron Energy =                 191.5898384578273408
    Total Energy =                       -208.0397692912324601
  Basis Set: (AUG-CC-PVTZ AUX)
    Blend: AUG-CC-PVTZ-RI
    Molecular point group: c1

    Geometry (in Angstrom), charge = 0, multiplicity = 1:

       Center              X                  Y                   Z               Mass
    ------------   -----------------  -----------------  -----------------  -----------------
         C            0.028605986900     0.055896281528    -0.000580994734    12.000000000000
         O            0.336979086900     1.348875081528     0.000223505266    15.994914619570
         N            0.983388986900    -0.922320718472    -0.000185994734    14.003074004430
         H            1.953317986900    -0.638541718472     0.002011005266     1.007825032230
         H            0.763140986900    -1.905489718472     0.000492005266     1.007825032230
         C           -1.406720013100    -0.431500718472     0.000088005266    12.000000000000
         H           -1.904794013100    -0.042362718472     0.890613005266     1.007825032230
         H           -1.499739013100    -1.519696718472    -0.016428994734     1.007825032230
         H           -1.914612013100    -0.014230718472    -0.871779994734     1.007825032230

  Basis Set: AUG-CC-PVTZ
    Blend: AUG-CC-PVTZ
  Basis Set: (AUG-CC-PVTZ AUX)
    Blend: AUG-CC-PVTZ-JKFIT
	 Reference Energy          =    -208.0397692912324601 [Eh]
	 Singles Energy            =      -0.0000000000000000 [Eh]
	 Same-Spin Energy          =      -0.2068852144123872 [Eh]
	 Opposite-Spin Energy      =      -0.6619918628221795 [Eh]
	 Correlation Energy        =      -0.8688770772345668 [Eh]
	 Total Energy              =    -208.9086463684670321 [Eh]

	 ================> DF-SCS-MP2 Energies <==================
	-----------------------------------------------------------
	 SCS Same-Spin Scale       =       0.3333333333333333 [-]
	 SCS Opposite-Spin Scale   =       1.2000000000000000 [-]
	 SCS Same-Spin Energy      =      -0.0689617381374624 [Eh]
	 SCS Opposite-Spin Energy  =      -0.7943902353866154 [Eh]
	 SCS Correlation Energy    =      -0.8633519735240778 [Eh]
	 SCS Total Energy          =    -208.9031212647565496 [Eh]
	-----------------------------------------------------------

  Dipole Moment: [D]
     X:    -0.2094      Y:    -4.4160      Z:     0.0048     Total:     4.4210

*** Psi4 exiting successfully. Buy a developer a beer!
