                               Psi4 1.3.2 release

  ==> Input File <==

--------------------------------------------------------------------------
#psi4
#
memory 32 gb

molecule  {
0 1
  C        0.0747750     0.1439390    -0.0006420
  O        0.3390376     1.3444408     0.0001212
  N        1.0295580    -0.8342780    -0.0002470
  H        1.9994870    -0.5504990     0.0019500
  H        0.8093100    -1.8174470     0.0004310
  C       -1.3605510    -0.3434580     0.0000270
  H       -1.8586250     0.0456800     0.8905520
  H       -1.4535700    -1.4316540    -0.0164900
  H       -1.8684430     0.0738120    -0.8718410
units angstrom
no_reorient  #important for SAPT in psi4, default
symmetry c1  #important for SAPT in psi4, default
}

set PROPERTIES_ORIGIN ["COM"]
properties('MP2/aug-cc-pvtz', properties = ['dipole'])
--------------------------------------------------------------------------

    Molecular point group: c1
  Charge       = 0
  Multiplicity = 1
  Basis Set: AUG-CC-PVTZ
    Blend: AUG-CC-PVTZ
  Basis Set: (AUG-CC-PVTZ AUX)
    Blend: AUG-CC-PVTZ-JKFIT

    Orbital Energies [Eh]
    ---------------------

    Doubly Occupied:

       1A    -20.516949     2A    -15.591531     3A    -11.357329
       4A    -11.239825     5A     -1.372172     6A     -1.212849
       7A     -1.003920     8A     -0.801789     9A     -0.726682
      10A     -0.663458    11A     -0.613435    12A     -0.583908
      13A     -0.561513    14A     -0.523052    15A     -0.424273
      16A     -0.415714

  @DF-RHF Final Energy:  -208.06138094098111

   => Energetics <=

    Nuclear Repulsion Energy =            121.2595266359401336
    One-Electron Energy =                -523.4250142185732102
    Two-Electron Energy =                 194.1041066416519811
    Total Energy =                       -208.0613809409811097
  Basis Set: (AUG-CC-PVTZ AUX)
    Blend: AUG-CC-PVTZ-RI
    Molecular point group: c1

    Geometry (in Angstrom), charge = 0, multiplicity = 1:

       Center              X                  Y                   Z               Mass
    ------------   -----------------  -----------------  -----------------  -----------------
         C            0.040556836731     0.080951058506    -0.000569805332    12.000000000000
         O            0.304819436731     1.281452858506     0.000193394668    15.994914619570
         N            0.995339836731    -0.897265941494    -0.000174805332    14.003074004430
         H            1.965268836731    -0.613486941494     0.002022194668     1.007825032230
         H            0.775091836731    -1.880434941494     0.000503194668     1.007825032230
         C           -1.394769163269    -0.406445941494     0.000099194668    12.000000000000
         H           -1.892843163269    -0.017307941494     0.890624194668     1.007825032230
         H           -1.487788163269    -1.494641941494    -0.016417805332     1.007825032230
         H           -1.902661163269     0.010824058506    -0.871768805332     1.007825032230

  Basis Set: AUG-CC-PVTZ
    Blend: AUG-CC-PVTZ
  Basis Set: (AUG-CC-PVTZ AUX)
    Blend: AUG-CC-PVTZ-JKFIT
	 Reference Energy          =    -208.0613809409811097 [Eh]
	 Singles Energy            =      -0.0000000000000000 [Eh]
	 Same-Spin Energy          =      -0.2047526662528081 [Eh]
	 Opposite-Spin Energy      =      -0.6566142700504729 [Eh]
	 Correlation Energy        =      -0.8613669363032810 [Eh]
	 Total Energy              =    -208.9227478772843938 [Eh]

	 ================> DF-SCS-MP2 Energies <==================
	-----------------------------------------------------------
	 SCS Same-Spin Scale       =       0.3333333333333333 [-]
	 SCS Opposite-Spin Scale   =       1.2000000000000000 [-]
	 SCS Same-Spin Energy      =      -0.0682508887509360 [Eh]
	 SCS Opposite-Spin Energy  =      -0.7879371240605675 [Eh]
	 SCS Correlation Energy    =      -0.8561880128115035 [Eh]
	 SCS Total Energy          =    -208.9175689537926246 [Eh]
	-----------------------------------------------------------

  Dipole Moment: [D]
     X:    -0.0958      Y:    -3.8552      Z:     0.0048     Total:     3.8564

*** Psi4 exiting successfully. Buy a developer a beer!
