                               Psi4 1.3.2 release

  ==> Input File <==

--------------------------------------------------------------------------
#psi4
#
memory 32 gb

molecule  {
0 1
  C        0.0747750     0.1439390    -0.0006420
  O        0.3599490     1.3396460     0.0001020
  N        1.0295580    -0.8342780    -0.0002470
  H        1.9994870    -0.5504990     0.0019500
  H        0.8093100    -1.8174470     0.0004310
  C       -1.3605510    -0.3434580     0.0000270
  H       -1.8586250     0.0456800     0.8905520
  H       -1.4535700    -1.4316540    -0.0164900
  H       -1.8684430     0.0738120    -0.8718410
units angstrom
no_reorient  #important for SAPT in psi4, default
symmetry c1  #important for SAPT in psi4, default
}

set PROPERTIES_ORIGIN ["COM"]
properties('MP2/aug-cc-pvtz', properties = ['dipole'])
--------------------------------------------------------------------------

    Molecular point group: c1
  Charge       = 0
  Multiplicity = 1
  Basis Set: AUG-CC-PVTZ
    Blend: AUG-CC-PVTZ
  Basis Set: (AUG-CC-PVTZ AUX)
    Blend: AUG-CC-PVTZ-JKFIT

    Orbital Energies [Eh]
    ---------------------

    Doubly Occupied:

       1A    -20.516673     2A    -15.590366     3A    -11.357258
       4A    -11.240937     5A     -1.372335     6A     -1.211473
       7A     -1.004937     8A     -0.801231     9A     -0.726053
      10A     -0.663263    11A     -0.613707    12A     -0.584091
      13A     -0.562136    14A     -0.523479    15A     -0.424670
      16A     -0.414768

  @DF-RHF Final Energy:  -208.06150846433772

   => Energetics <=

    Nuclear Repulsion Energy =            121.2652374972831240
    One-Electron Energy =                -523.4387401320876734
    Two-Electron Energy =                 194.1119941704668292
    Total Energy =                       -208.0615084643377202
  Basis Set: (AUG-CC-PVTZ AUX)
    Blend: AUG-CC-PVTZ-RI
    Molecular point group: c1

    Geometry (in Angstrom), charge = 0, multiplicity = 1:

       Center              X                  Y                   Z               Mass
    ------------   -----------------  -----------------  -----------------  -----------------
         C            0.034891314890     0.082250112807    -0.000564603479    12.000000000000
         O            0.320065314890     1.277957112807     0.000179396521    15.994914619570
         N            0.989674314890    -0.895966887193    -0.000169603479    14.003074004430
         H            1.959603314890    -0.612187887193     0.002027396521     1.007825032230
         H            0.769426314890    -1.879135887193     0.000508396521     1.007825032230
         C           -1.400434685110    -0.405146887193     0.000104396521    12.000000000000
         H           -1.898508685110    -0.016008887193     0.890629396521     1.007825032230
         H           -1.493453685110    -1.493342887193    -0.016412603479     1.007825032230
         H           -1.908326685110     0.012123112807    -0.871763603479     1.007825032230

  Basis Set: AUG-CC-PVTZ
    Blend: AUG-CC-PVTZ
  Basis Set: (AUG-CC-PVTZ AUX)
    Blend: AUG-CC-PVTZ-JKFIT
	 Reference Energy          =    -208.0615084643377202 [Eh]
	 Singles Energy            =      -0.0000000000000000 [Eh]
	 Same-Spin Energy          =      -0.2047512369495492 [Eh]
	 Opposite-Spin Energy      =      -0.6565900102986176 [Eh]
	 Correlation Energy        =      -0.8613412472481669 [Eh]
	 Total Energy              =    -208.9228497115858829 [Eh]

	 ================> DF-SCS-MP2 Energies <==================
	-----------------------------------------------------------
	 SCS Same-Spin Scale       =       0.3333333333333333 [-]
	 SCS Opposite-Spin Scale   =       1.2000000000000000 [-]
	 SCS Same-Spin Energy      =      -0.0682504123165164 [Eh]
	 SCS Opposite-Spin Energy  =      -0.7879080123583412 [Eh]
	 SCS Correlation Energy    =      -0.8561584246748576 [Eh]
	 SCS Total Energy          =    -208.9176668890125654 [Eh]
	-----------------------------------------------------------

  Dipole Moment: [D]
     X:    -0.1609      Y:    -3.8471      Z:     0.0048     Total:     3.8505

*** Psi4 exiting successfully. Buy a developer a beer!
