                               Psi4 1.3.2 release

  ==> Input File <==

--------------------------------------------------------------------------
#psi4
#
memory 32 gb

molecule  {
0 1
  C        0.0747750     0.1439390    -0.0006420
  O        0.4015048     1.3289652     0.0000628
  N        1.0295580    -0.8342780    -0.0002470
  H        1.9994870    -0.5504990     0.0019500
  H        0.8093100    -1.8174470     0.0004310
  C       -1.3605510    -0.3434580     0.0000270
  H       -1.8586250     0.0456800     0.8905520
  H       -1.4535700    -1.4316540    -0.0164900
  H       -1.8684430     0.0738120    -0.8718410
units angstrom
no_reorient  #important for SAPT in psi4, default
symmetry c1  #important for SAPT in psi4, default
}

set PROPERTIES_ORIGIN ["COM"]
properties('MP2/aug-cc-pvtz', properties = ['dipole'])
--------------------------------------------------------------------------

    Molecular point group: c1
  Charge       = 0
  Multiplicity = 1
  Basis Set: AUG-CC-PVTZ
    Blend: AUG-CC-PVTZ
  Basis Set: (AUG-CC-PVTZ AUX)
    Blend: AUG-CC-PVTZ-JKFIT

    Orbital Energies [Eh]
    ---------------------

    Doubly Occupied:

       1A    -20.516082     2A    -15.588001     3A    -11.357136
       4A    -11.243148     5A     -1.372763     6A     -1.208638
       7A     -1.006931     8A     -0.800117     9A     -0.724781
      10A     -0.662862    11A     -0.614290    12A     -0.584467
      13A     -0.563318    14A     -0.524313    15A     -0.425254
      16A     -0.412810

  @DF-RHF Final Energy:  -208.06125408559126

   => Energetics <=

    Nuclear Repulsion Energy =            121.2877478714509323
    One-Electron Energy =                -523.4881802788430605
    Two-Electron Energy =                 194.1391783218008413
    Total Energy =                       -208.0612540855912584
  Basis Set: (AUG-CC-PVTZ AUX)
    Blend: AUG-CC-PVTZ-RI
    Molecular point group: c1

    Geometry (in Angstrom), charge = 0, multiplicity = 1:

       Center              X                  Y                   Z               Mass
    ------------   -----------------  -----------------  -----------------  -----------------
         C            0.023632609471     0.085143860030    -0.000553983031    12.000000000000
         O            0.350362409471     1.270170060030     0.000150816969    15.994914619570
         N            0.978415609471    -0.893073139970    -0.000158983031    14.003074004430
         H            1.948344609471    -0.609294139970     0.002038016969     1.007825032230
         H            0.758167609471    -1.876242139970     0.000519016969     1.007825032230
         C           -1.411693390529    -0.402253139970     0.000115016969    12.000000000000
         H           -1.909767390529    -0.013115139970     0.890640016969     1.007825032230
         H           -1.504712390529    -1.490449139970    -0.016401983031     1.007825032230
         H           -1.919585390529     0.015016860030    -0.871752983031     1.007825032230

  Basis Set: AUG-CC-PVTZ
    Blend: AUG-CC-PVTZ
  Basis Set: (AUG-CC-PVTZ AUX)
    Blend: AUG-CC-PVTZ-JKFIT
	 Reference Energy          =    -208.0612540855912584 [Eh]
	 Singles Energy            =      -0.0000000000000000 [Eh]
	 Same-Spin Energy          =      -0.2047647780751701 [Eh]
	 Opposite-Spin Energy      =      -0.6565772234505254 [Eh]
	 Correlation Energy        =      -0.8613420015256955 [Eh]
	 Total Energy              =    -208.9225960871169434 [Eh]

	 ================> DF-SCS-MP2 Energies <==================
	-----------------------------------------------------------
	 SCS Same-Spin Scale       =       0.3333333333333333 [-]
	 SCS Opposite-Spin Scale   =       1.2000000000000000 [-]
	 SCS Same-Spin Energy      =      -0.0682549260250567 [Eh]
	 SCS Opposite-Spin Energy  =      -0.7878926681406304 [Eh]
	 SCS Correlation Energy    =      -0.8561475941656871 [Eh]
	 SCS Total Energy          =    -208.9174016797569493 [Eh]
	-----------------------------------------------------------

  Dipole Moment: [D]
     X:    -0.2905      Y:    -3.8270      Z:     0.0049     Total:     3.8380

*** Psi4 exiting successfully. Buy a developer a beer!
