                               Psi4 1.3.2 release

  ==> Input File <==

--------------------------------------------------------------------------
#psi4
#
memory 32 gb

molecule  {
0 1
  C        0.0747750     0.1439390    -0.0006420
  O        0.3599490     1.3396460     0.0001020
  N        1.0295580    -0.8342780    -0.0002470
  H        1.9994870    -0.5504990     0.0019500
  H        0.8093100    -1.8174470     0.0004310
  C       -1.1711718    -0.2791501    -0.0000613
  H       -1.8586250     0.0456800     0.8905520
  H       -1.4535700    -1.4316540    -0.0164900
  H       -1.8684430     0.0738120    -0.8718410
units angstrom
no_reorient  #important for SAPT in psi4, default
symmetry c1  #important for SAPT in psi4, default
}

set PROPERTIES_ORIGIN ["COM"]
properties('MP2/aug-cc-pvtz', properties = ['dipole'])
--------------------------------------------------------------------------

    Molecular point group: c1
  Charge       = 0
  Multiplicity = 1
  Basis Set: AUG-CC-PVTZ
    Blend: AUG-CC-PVTZ
  Basis Set: (AUG-CC-PVTZ AUX)
    Blend: AUG-CC-PVTZ-JKFIT

    Orbital Energies [Eh]
    ---------------------

    Doubly Occupied:

       1A    -20.511642     2A    -15.587517     3A    -11.344632
       4A    -11.251846     5A     -1.377301     6A     -1.214511
       7A     -1.037781     8A     -0.799981     9A     -0.728422
      10A     -0.685824    11A     -0.617435    12A     -0.602892
      13A     -0.519618    14A     -0.490952    15A     -0.431612
      16A     -0.412781

  @DF-RHF Final Energy:  -208.01086589816541

   => Energetics <=

    Nuclear Repulsion Energy =            124.1921559344245907
    One-Electron Energy =                -529.1765540507461765
    Two-Electron Energy =                 196.9735322181561799
    Total Energy =                       -208.0108658981654060
  Basis Set: (AUG-CC-PVTZ AUX)
    Blend: AUG-CC-PVTZ-RI
    Molecular point group: c1

    Geometry (in Angstrom), charge = 0, multiplicity = 1:

       Center              X                  Y                   Z               Mass
    ------------   -----------------  -----------------  -----------------  -----------------
         C           -0.003602274215     0.069178762422    -0.000546655448    12.000000000000
         O            0.281571725785     1.264885762422     0.000197344552    15.994914619570
         N            0.951180725785    -0.909038237578    -0.000151655448    14.003074004430
         H            1.921109725785    -0.625259237578     0.002045344552     1.007825032230
         H            0.730932725785    -1.892207237578     0.000526344552     1.007825032230
         C           -1.249549074215    -0.353910337578     0.000034044552    12.000000000000
         H           -1.937002274215    -0.029080237578     0.890647344552     1.007825032230
         H           -1.531947274215    -1.506414237578    -0.016394655448     1.007825032230
         H           -1.946820274215    -0.000948237578    -0.871745655448     1.007825032230

  Basis Set: AUG-CC-PVTZ
    Blend: AUG-CC-PVTZ
  Basis Set: (AUG-CC-PVTZ AUX)
    Blend: AUG-CC-PVTZ-JKFIT
	 Reference Energy          =    -208.0108658981654060 [Eh]
	 Singles Energy            =      -0.0000000000000000 [Eh]
	 Same-Spin Energy          =      -0.2077195862694329 [Eh]
	 Opposite-Spin Energy      =      -0.6605676993465068 [Eh]
	 Correlation Energy        =      -0.8682872856159397 [Eh]
	 Total Energy              =    -208.8791531837813409 [Eh]

	 ================> DF-SCS-MP2 Energies <==================
	-----------------------------------------------------------
	 SCS Same-Spin Scale       =       0.3333333333333333 [-]
	 SCS Opposite-Spin Scale   =       1.2000000000000000 [-]
	 SCS Same-Spin Energy      =      -0.0692398620898110 [Eh]
	 SCS Opposite-Spin Energy  =      -0.7926812392158081 [Eh]
	 SCS Correlation Energy    =      -0.8619211013056191 [Eh]
	 SCS Total Energy          =    -208.8727869994710318 [Eh]
	-----------------------------------------------------------

  Dipole Moment: [D]
     X:    -0.4811      Y:    -3.8936      Z:     0.0065     Total:     3.9232

*** Psi4 exiting successfully. Buy a developer a beer!
