                               Psi4 1.3.2 release

  ==> Input File <==

--------------------------------------------------------------------------
#psi4
#
memory 32 gb

molecule  {
0 1
  C        0.0747750     0.1439390    -0.0006420
  O        0.3599490     1.3396460     0.0001020
  N        1.0295580    -0.8342780    -0.0002470
  H        1.9994870    -0.5504990     0.0019500
  H        0.8093100    -1.8174470     0.0004310
  C       -1.5499302    -0.4077659     0.0001153
  H       -1.8586250     0.0456800     0.8905520
  H       -1.4535700    -1.4316540    -0.0164900
  H       -1.8684430     0.0738120    -0.8718410
units angstrom
no_reorient  #important for SAPT in psi4, default
symmetry c1  #important for SAPT in psi4, default
}

set PROPERTIES_ORIGIN ["COM"]
properties('MP2/aug-cc-pvtz', properties = ['dipole'])
--------------------------------------------------------------------------

    Molecular point group: c1
  Charge       = 0
  Multiplicity = 1
  Basis Set: AUG-CC-PVTZ
    Blend: AUG-CC-PVTZ
  Basis Set: (AUG-CC-PVTZ AUX)
    Blend: AUG-CC-PVTZ-JKFIT

    Orbital Energies [Eh]
    ---------------------

    Doubly Occupied:

       1A    -20.520750     2A    -15.591811     3A    -11.362288
       4A    -11.240225     5A     -1.370243     6A     -1.209586
       7A     -0.991244     8A     -0.799737     9A     -0.724015
      10A     -0.653429    11A     -0.619939    12A     -0.601409
      13A     -0.550638    14A     -0.542052    15A     -0.415924
      16A     -0.402211

  @DF-RHF Final Energy:  -208.03358051775183

   => Energetics <=

    Nuclear Repulsion Energy =            118.7834351066294261
    One-Electron Energy =                -518.4430300143127397
    Two-Electron Energy =                 191.6260143899314699
    Total Energy =                       -208.0335805177518296
  Basis Set: (AUG-CC-PVTZ AUX)
    Blend: AUG-CC-PVTZ-RI
    Molecular point group: c1

    Geometry (in Angstrom), charge = 0, multiplicity = 1:

       Center              X                  Y                   Z               Mass
    ------------   -----------------  -----------------  -----------------  -----------------
         C            0.073384903996     0.095321463192    -0.000582551511    12.000000000000
         O            0.358558903996     1.291028463192     0.000161448489    15.994914619570
         N            1.028167903996    -0.882895536808    -0.000187551511    14.003074004430
         H            1.998096903996    -0.599116536808     0.002009448489     1.007825032230
         H            0.807919903996    -1.866064536808     0.000490448489     1.007825032230
         C           -1.551320296004    -0.456383436808     0.000174748489    12.000000000000
         H           -1.860015096004    -0.002937536808     0.890611448489     1.007825032230
         H           -1.454960096004    -1.480271536808    -0.016430551511     1.007825032230
         H           -1.869833096004     0.025194463192    -0.871781551511     1.007825032230

  Basis Set: AUG-CC-PVTZ
    Blend: AUG-CC-PVTZ
  Basis Set: (AUG-CC-PVTZ AUX)
    Blend: AUG-CC-PVTZ-JKFIT
	 Reference Energy          =    -208.0335805177518296 [Eh]
	 Singles Energy            =      -0.0000000000000000 [Eh]
	 Same-Spin Energy          =      -0.2050355554910799 [Eh]
	 Opposite-Spin Energy      =      -0.6582928096625971 [Eh]
	 Correlation Energy        =      -0.8633283651536769 [Eh]
	 Total Energy              =    -208.8969088829055067 [Eh]

	 ================> DF-SCS-MP2 Energies <==================
	-----------------------------------------------------------
	 SCS Same-Spin Scale       =       0.3333333333333333 [-]
	 SCS Opposite-Spin Scale   =       1.2000000000000000 [-]
	 SCS Same-Spin Energy      =      -0.0683451851636933 [Eh]
	 SCS Opposite-Spin Energy  =      -0.7899513715951164 [Eh]
	 SCS Correlation Energy    =      -0.8582965567588097 [Eh]
	 SCS Total Energy          =    -208.8918770745106315 [Eh]
	-----------------------------------------------------------

  Dipole Moment: [D]
     X:     0.1391      Y:    -3.7478      Z:     0.0041     Total:     3.7504

*** Psi4 exiting successfully. Buy a developer a beer!
