                               Psi4 1.4a2.dev612

  ==> Input File <==

--------------------------------------------------------------------------
#psi4
#
memory 32 gb

molecule  {
-2 1
  O       -1.2921450    -0.1901730    -0.0000340
  O        0.8107920    -1.0237360    -0.0000120
  O        0.4813280     1.2139460    -0.0000050
  C        0.0000340    -0.0000480     0.0000670
units angstrom
no_reorient  #important for SAPT in psi4, default
symmetry c1  #important for SAPT in psi4, default
}

set PROPERTIES_ORIGIN ["COM"]
properties('MP2/aug-cc-pvtz', properties = ['dipole'])
--------------------------------------------------------------------------

    Molecular point group: c1
  Charge       = -2
  Multiplicity = 1
  Basis Set: AUG-CC-PVTZ
    Blend: AUG-CC-PVTZ
  Basis Set: (AUG-CC-PVTZ AUX)
    Blend: AUG-CC-PVTZ-JKFIT

    Orbital Energies [Eh]
    ---------------------

    Doubly Occupied:

       1A    -20.062678     2A    -20.062660     3A    -20.062618
       4A    -10.931121     5A     -0.946803     6A     -0.809457
       7A     -0.809392     8A     -0.272161     9A     -0.176567
      10A     -0.176556    11A     -0.146493    12A     -0.008607
      13A     -0.008594    14A      0.024329    15A      0.024352
      16A      0.053806

  @DF-RHF Final Energy:  -262.40708674715216

   => Energetics <=

    Nuclear Repulsion Energy =            103.2664582929443355
    One-Electron Energy =                -582.6046526718380392
    Two-Electron Energy =                 216.9311076317415825
    Total Energy =                       -262.4070867471521069
  Basis Set: (AUG-CC-PVTZ AUX)
    Blend: AUG-CC-PVTZ-RI
    Molecular point group: c1

    Geometry (in Angstrom), charge = -2, multiplicity = 1:

       Center              X                  Y                   Z               Mass
    ------------   -----------------  -----------------  -----------------  -----------------
         O           -1.292145135487    -0.190173263598    -0.000033804273    15.994914619570
         O            0.810791864513    -1.023736263598    -0.000011804273    15.994914619570
         O            0.481327864513     1.213945736402    -0.000004804273    15.994914619570
         C            0.000033864513    -0.000048263598     0.000067195727    12.000000000000

  Basis Set: AUG-CC-PVTZ
    Blend: AUG-CC-PVTZ
  Basis Set: (AUG-CC-PVTZ AUX)
    Blend: AUG-CC-PVTZ-JKFIT
	 Reference Energy          =    -262.4070867471521638 [Eh]
	 Singles Energy            =      -0.0000000000000000 [Eh]
	 Same-Spin Energy          =      -0.2573678629444698 [Eh]
	 Opposite-Spin Energy      =      -0.7113487421519613 [Eh]
	 Correlation Energy        =      -0.9687166050964311 [Eh]
	 Total Energy              =    -263.3758033522485675 [Eh]

	 ================> DF-SCS-MP2 Energies <==================
	-----------------------------------------------------------
	 SCS Same-Spin Scale       =       0.3333333333333333 [-]
	 SCS Opposite-Spin Scale   =       1.2000000000000000 [-]
	 SCS Same-Spin Energy      =      -0.0857892876481566 [Eh]
	 SCS Opposite-Spin Energy  =      -0.8536184905823535 [Eh]
	 SCS Correlation Energy    =      -0.9394077782305101 [Eh]
	 SCS Total Energy          =    -263.3464945253826954 [Eh]
	-----------------------------------------------------------

  Dipole Moment: [D]
     X:     0.0017      Y:    -0.0004      Z:     0.0000     Total:     0.0017

*** Psi4 exiting successfully. Buy a developer a beer!
