                               Psi4 1.4a2.dev612

  ==> Input File <==

--------------------------------------------------------------------------
#psi4
#
memory 32 gb

molecule  {
-2 1
  O       -1.2921450    -0.1901730    -0.0000340
  O        0.8107920    -1.0237360    -0.0000120
  O        0.4813274     1.2139458     0.0499950
  C        0.0000340    -0.0000480     0.0000670
units angstrom
no_reorient  #important for SAPT in psi4, default
symmetry c1  #important for SAPT in psi4, default
}

set PROPERTIES_ORIGIN ["COM"]
properties('MP2/aug-cc-pvtz', properties = ['dipole'])
--------------------------------------------------------------------------

    Molecular point group: c1
  Charge       = -2
  Multiplicity = 1
  Basis Set: AUG-CC-PVTZ
    Blend: AUG-CC-PVTZ
  Basis Set: (AUG-CC-PVTZ AUX)
    Blend: AUG-CC-PVTZ-JKFIT

    Orbital Energies [Eh]
    ---------------------

    Doubly Occupied:

       1A    -20.062817     2A    -20.062781     3A    -20.062646
       4A    -10.931306     5A     -0.946661     6A     -0.809535
       7A     -0.809148     8A     -0.272220     9A     -0.176535
      10A     -0.176476    11A     -0.146408    12A     -0.008647
      13A     -0.008581    14A      0.024270    15A      0.024417
      16A      0.053742

  @DF-RHF Final Energy:  -262.40686725063875

   => Energetics <=

    Nuclear Repulsion Energy =            103.2449505523080120
    One-Electron Energy =                -582.5609729929136620
    Two-Electron Energy =                 216.9091551899668957
    Total Energy =                       -262.4068672506387543
  Basis Set: (AUG-CC-PVTZ AUX)
    Blend: AUG-CC-PVTZ-RI
    Molecular point group: c1

    Geometry (in Angstrom), charge = -2, multiplicity = 1:

       Center              X                  Y                   Z               Mass
    ------------   -----------------  -----------------  -----------------  -----------------
         O           -1.292144975497    -0.190173210268    -0.013366289827    15.994914619570
         O            0.810792024503    -1.023736210268    -0.013344289827    15.994914619570
         O            0.481327424503     1.213945589732     0.036662710173    15.994914619570
         C            0.000034024503    -0.000048210268    -0.013265289827    12.000000000000

  Basis Set: AUG-CC-PVTZ
    Blend: AUG-CC-PVTZ
  Basis Set: (AUG-CC-PVTZ AUX)
    Blend: AUG-CC-PVTZ-JKFIT
	 Reference Energy          =    -262.4068672506387543 [Eh]
	 Singles Energy            =      -0.0000000000000000 [Eh]
	 Same-Spin Energy          =      -0.2573905502206231 [Eh]
	 Opposite-Spin Energy      =      -0.7114091817526034 [Eh]
	 Correlation Energy        =      -0.9687997319732264 [Eh]
	 Total Energy              =    -263.3756669826119605 [Eh]

	 ================> DF-SCS-MP2 Energies <==================
	-----------------------------------------------------------
	 SCS Same-Spin Scale       =       0.3333333333333333 [-]
	 SCS Opposite-Spin Scale   =       1.2000000000000000 [-]
	 SCS Same-Spin Energy      =      -0.0857968500735410 [Eh]
	 SCS Opposite-Spin Energy  =      -0.8536910181031240 [Eh]
	 SCS Correlation Energy    =      -0.9394878681766650 [Eh]
	 SCS Total Energy          =    -263.3463551188154383 [Eh]
	-----------------------------------------------------------

  Dipole Moment: [D]
     X:    -0.0013      Y:    -0.0080      Z:    -0.0074     Total:     0.0110

*** Psi4 exiting successfully. Buy a developer a beer!
