                               Psi4 1.4a2.dev612

  ==> Input File <==

--------------------------------------------------------------------------
#psi4
#
memory 32 gb

molecule  {
-2 1
  O       -1.2921450    -0.1901730    -0.0000340
  O        0.8107920    -1.0237360    -0.0000120
  O        0.4813268     1.2139455     0.0999950
  C        0.0000340    -0.0000480     0.0000670
units angstrom
no_reorient  #important for SAPT in psi4, default
symmetry c1  #important for SAPT in psi4, default
}

set PROPERTIES_ORIGIN ["COM"]
properties('MP2/aug-cc-pvtz', properties = ['dipole'])
--------------------------------------------------------------------------

    Molecular point group: c1
  Charge       = -2
  Multiplicity = 1
  Basis Set: AUG-CC-PVTZ
    Blend: AUG-CC-PVTZ
  Basis Set: (AUG-CC-PVTZ AUX)
    Blend: AUG-CC-PVTZ-JKFIT

    Orbital Energies [Eh]
    ---------------------

    Doubly Occupied:

       1A    -20.063238     2A    -20.063200     3A    -20.062673
       4A    -10.931860     5A     -0.946246     6A     -0.809840
       7A     -0.808339     8A     -0.272401     9A     -0.176443
      10A     -0.176233    11A     -0.146159    12A     -0.008766
      13A     -0.008537    14A      0.024081    15A      0.024627
      16A      0.053553

  @DF-RHF Final Energy:  -262.40620007122106

   => Energetics <=

    Nuclear Repulsion Energy =            103.1805553703364637
    One-Electron Energy =                -582.4301599410998733
    Two-Electron Energy =                 216.8434044995423164
    Total Energy =                       -262.4062000712210647
  Basis Set: (AUG-CC-PVTZ AUX)
    Blend: AUG-CC-PVTZ-RI
    Molecular point group: c1

    Geometry (in Angstrom), charge = -2, multiplicity = 1:

       Center              X                  Y                   Z               Mass
    ------------   -----------------  -----------------  -----------------  -----------------
         O           -1.292144815507    -0.190173130273    -0.026698775382    15.994914619570
         O            0.810792184493    -1.023736130273    -0.026676775382    15.994914619570
         O            0.481326984493     1.213945369727     0.073330224618    15.994914619570
         C            0.000034184493    -0.000048130273    -0.026597775382    12.000000000000

  Basis Set: AUG-CC-PVTZ
    Blend: AUG-CC-PVTZ
  Basis Set: (AUG-CC-PVTZ AUX)
    Blend: AUG-CC-PVTZ-JKFIT
	 Reference Energy          =    -262.4062000712210647 [Eh]
	 Singles Energy            =      -0.0000000000000000 [Eh]
	 Same-Spin Energy          =      -0.2574587521848394 [Eh]
	 Opposite-Spin Energy      =      -0.7115909618625111 [Eh]
	 Correlation Energy        =      -0.9690497140473505 [Eh]
	 Total Energy              =    -263.3752497852684087 [Eh]

	 ================> DF-SCS-MP2 Energies <==================
	-----------------------------------------------------------
	 SCS Same-Spin Scale       =       0.3333333333333333 [-]
	 SCS Opposite-Spin Scale   =       1.2000000000000000 [-]
	 SCS Same-Spin Energy      =      -0.0858195840616131 [Eh]
	 SCS Opposite-Spin Energy  =      -0.8539091542350133 [Eh]
	 SCS Correlation Energy    =      -0.9397287382966265 [Eh]
	 SCS Total Energy          =    -263.3459288095177158 [Eh]
	-----------------------------------------------------------

  Dipole Moment: [D]
     X:    -0.0104      Y:    -0.0309      Z:    -0.0160     Total:     0.0363

*** Psi4 exiting successfully. Buy a developer a beer!
