                               Psi4 1.4a2.dev612

  ==> Input File <==

--------------------------------------------------------------------------
#psi4
#
memory 32 gb

molecule  {
-2 1
  O       -1.2921450    -0.1901730    -0.0000340
  O        0.8107920    -1.0237360    -0.0000120
  O        0.4813249     1.2139448     0.2499950
  C        0.0000340    -0.0000480     0.0000670
units angstrom
no_reorient  #important for SAPT in psi4, default
symmetry c1  #important for SAPT in psi4, default
}

set PROPERTIES_ORIGIN ["COM"]
properties('MP2/aug-cc-pvtz', properties = ['dipole'])
--------------------------------------------------------------------------

    Molecular point group: c1
  Charge       = -2
  Multiplicity = 1
  Basis Set: AUG-CC-PVTZ
    Blend: AUG-CC-PVTZ
  Basis Set: (AUG-CC-PVTZ AUX)
    Blend: AUG-CC-PVTZ-JKFIT

    Orbital Energies [Eh]
    ---------------------

    Doubly Occupied:

       1A    -20.066148     2A    -20.066108     3A    -20.062854
       4A    -10.935617     5A     -0.943765     6A     -0.811964
       7A     -0.802567     8A     -0.273724     9A     -0.175950
      10A     -0.174578    11A     -0.144613    12A     -0.009583
      13A     -0.008093    14A      0.022766    15A      0.026059
      16A      0.052293

  @DF-RHF Final Energy:  -262.40133152221506

   => Energetics <=

    Nuclear Repulsion Energy =            102.7385370117701768
    One-Electron Energy =                -581.5308501341693272
    Two-Electron Energy =                 216.3909816001841193
    Total Energy =                       -262.4013315222150595
  Basis Set: (AUG-CC-PVTZ AUX)
    Blend: AUG-CC-PVTZ-RI
    Molecular point group: c1

    Geometry (in Angstrom), charge = -2, multiplicity = 1:

       Center              X                  Y                   Z               Mass
    ------------   -----------------  -----------------  -----------------  -----------------
         O           -1.292144308873    -0.190172943618    -0.066696232045    15.994914619570
         O            0.810792691127    -1.023735943618    -0.066674232045    15.994914619570
         O            0.481325591127     1.213944856382     0.183332767955    15.994914619570
         C            0.000034691127    -0.000047943618    -0.066595232045    12.000000000000

  Basis Set: AUG-CC-PVTZ
    Blend: AUG-CC-PVTZ
  Basis Set: (AUG-CC-PVTZ AUX)
    Blend: AUG-CC-PVTZ-JKFIT
	 Reference Energy          =    -262.4013315222150595 [Eh]
	 Singles Energy            =      -0.0000000000000000 [Eh]
	 Same-Spin Energy          =      -0.2579313955902548 [Eh]
	 Opposite-Spin Energy      =      -0.7128566097030076 [Eh]
	 Correlation Energy        =      -0.9707880052932624 [Eh]
	 Total Energy              =    -263.3721195275083460 [Eh]

	 ================> DF-SCS-MP2 Energies <==================
	-----------------------------------------------------------
	 SCS Same-Spin Scale       =       0.3333333333333333 [-]
	 SCS Opposite-Spin Scale   =       1.2000000000000000 [-]
	 SCS Same-Spin Energy      =      -0.0859771318634183 [Eh]
	 SCS Opposite-Spin Energy  =      -0.8554279316436091 [Eh]
	 SCS Correlation Energy    =      -0.9414050635070274 [Eh]
	 SCS Total Energy          =    -263.3427365857220934 [Eh]
	-----------------------------------------------------------

  Dipole Moment: [D]
     X:    -0.0729      Y:    -0.1885      Z:    -0.0602     Total:     0.2109

*** Psi4 exiting successfully. Buy a developer a beer!
