                               Psi4 1.4a2.dev612

  ==> Input File <==

--------------------------------------------------------------------------
#psi4
#
memory 32 gb

molecule  {
-2 1
  O       -1.2921450    -0.1901730    -0.0000340
  O        0.8107920    -1.0237360    -0.0000120
  O        0.4813261     1.2139453     0.1499950
  C        0.0000340    -0.0000480     0.0000670
units angstrom
no_reorient  #important for SAPT in psi4, default
symmetry c1  #important for SAPT in psi4, default
}

set PROPERTIES_ORIGIN ["COM"]
properties('MP2/aug-cc-pvtz', properties = ['dipole'])
--------------------------------------------------------------------------

    Molecular point group: c1
  Charge       = -2
  Multiplicity = 1
  Basis Set: AUG-CC-PVTZ
    Blend: AUG-CC-PVTZ
  Basis Set: (AUG-CC-PVTZ AUX)
    Blend: AUG-CC-PVTZ-JKFIT

    Orbital Energies [Eh]
    ---------------------

    Doubly Occupied:

       1A    -20.063938     2A    -20.063899     3A    -20.062714
       4A    -10.932773     5A     -0.945589     6A     -0.810349
       7A     -0.806979     8A     -0.272707     9A     -0.176302
      10A     -0.175832    11A     -0.145759    12A     -0.008964
      13A     -0.008453    14A      0.023766    15A      0.024974
      16A      0.053242

  @DF-RHF Final Energy:  -262.40507066461237

   => Energetics <=

    Nuclear Repulsion Energy =            103.0739182184125013
    One-Electron Energy =                -582.2134215645202175
    Two-Electron Energy =                 216.7344326814953490
    Total Energy =                       -262.4050706646123672
  Basis Set: (AUG-CC-PVTZ AUX)
    Blend: AUG-CC-PVTZ-RI
    Molecular point group: c1

    Geometry (in Angstrom), charge = -2, multiplicity = 1:

       Center              X                  Y                   Z               Mass
    ------------   -----------------  -----------------  -----------------  -----------------
         O           -1.292144628852    -0.190173076943    -0.040031260936    15.994914619570
         O            0.810792371148    -1.023736076943    -0.040009260936    15.994914619570
         O            0.481326471148     1.213945223057     0.109997739064    15.994914619570
         C            0.000034371148    -0.000048076943    -0.039930260936    12.000000000000

  Basis Set: AUG-CC-PVTZ
    Blend: AUG-CC-PVTZ
  Basis Set: (AUG-CC-PVTZ AUX)
    Blend: AUG-CC-PVTZ-JKFIT
	 Reference Energy          =    -262.4050706646123672 [Eh]
	 Singles Energy            =      -0.0000000000000000 [Eh]
	 Same-Spin Energy          =      -0.2575721011720316 [Eh]
	 Opposite-Spin Energy      =      -0.7118935176413099 [Eh]
	 Correlation Energy        =      -0.9694656188133415 [Eh]
	 Total Energy              =    -263.3745362834256980 [Eh]

	 ================> DF-SCS-MP2 Energies <==================
	-----------------------------------------------------------
	 SCS Same-Spin Scale       =       0.3333333333333333 [-]
	 SCS Opposite-Spin Scale   =       1.2000000000000000 [-]
	 SCS Same-Spin Energy      =      -0.0858573670573438 [Eh]
	 SCS Opposite-Spin Energy  =      -0.8542722211695719 [Eh]
	 SCS Correlation Energy    =      -0.9401295882269157 [Eh]
	 SCS Total Energy          =    -263.3452002528392768 [Eh]
	-----------------------------------------------------------

  Dipole Moment: [D]
     X:    -0.0255      Y:    -0.0689      Z:    -0.0270     Total:     0.0782

*** Psi4 exiting successfully. Buy a developer a beer!
