                               Psi4 1.4a2.dev612

  ==> Input File <==

--------------------------------------------------------------------------
#psi4
#
memory 32 gb

molecule  {
-2 1
  O       -1.2921450    -0.1901730    -0.0000340
  O        0.8107920    -1.0237360    -0.0000120
  O        0.4813255     1.2139450     0.1999950
  C        0.0000340    -0.0000480     0.0000670
units angstrom
no_reorient  #important for SAPT in psi4, default
symmetry c1  #important for SAPT in psi4, default
}

set PROPERTIES_ORIGIN ["COM"]
properties('MP2/aug-cc-pvtz', properties = ['dipole'])
--------------------------------------------------------------------------

    Molecular point group: c1
  Charge       = -2
  Multiplicity = 1
  Basis Set: AUG-CC-PVTZ
    Blend: AUG-CC-PVTZ
  Basis Set: (AUG-CC-PVTZ AUX)
    Blend: AUG-CC-PVTZ-JKFIT

    Orbital Energies [Eh]
    ---------------------

    Doubly Occupied:

       1A    -20.064910     2A    -20.064871     3A    -20.062773
       4A    -10.934032     5A     -0.944740     6A     -0.811059
       7A     -0.805059     8A     -0.273145     9A     -0.176130
      10A     -0.175278    11A     -0.145234    12A     -0.009237
      13A     -0.008313    14A      0.023327    15A      0.025454
      16A      0.052818

  @DF-RHF Final Energy:  -262.40345684219824

   => Energetics <=

    Nuclear Repulsion Energy =            102.9261013961923652
    One-Electron Energy =                -581.9127524257348796
    Two-Electron Energy =                 216.5831941873442474
    Total Energy =                       -262.4034568421982385
  Basis Set: (AUG-CC-PVTZ AUX)
    Blend: AUG-CC-PVTZ-RI
    Molecular point group: c1

    Geometry (in Angstrom), charge = -2, multiplicity = 1:

       Center              X                  Y                   Z               Mass
    ------------   -----------------  -----------------  -----------------  -----------------
         O           -1.292144468862    -0.190172996948    -0.053363746490    15.994914619570
         O            0.810792531138    -1.023735996948    -0.053341746490    15.994914619570
         O            0.481326031138     1.213945003052     0.146665253510    15.994914619570
         C            0.000034531138    -0.000047996948    -0.053262746490    12.000000000000

  Basis Set: AUG-CC-PVTZ
    Blend: AUG-CC-PVTZ
  Basis Set: (AUG-CC-PVTZ AUX)
    Blend: AUG-CC-PVTZ-JKFIT
	 Reference Energy          =    -262.4034568421982385 [Eh]
	 Singles Energy            =      -0.0000000000000000 [Eh]
	 Same-Spin Energy          =      -0.2577299587195825 [Eh]
	 Opposite-Spin Energy      =      -0.7123158688190998 [Eh]
	 Correlation Energy        =      -0.9700458275386823 [Eh]
	 Total Energy              =    -263.3735026697369221 [Eh]

	 ================> DF-SCS-MP2 Energies <==================
	-----------------------------------------------------------
	 SCS Same-Spin Scale       =       0.3333333333333333 [-]
	 SCS Opposite-Spin Scale   =       1.2000000000000000 [-]
	 SCS Same-Spin Energy      =      -0.0859099862398608 [Eh]
	 SCS Opposite-Spin Energy  =      -0.8547790425829197 [Eh]
	 SCS Correlation Energy    =      -0.9406890288227805 [Eh]
	 SCS Total Energy          =    -263.3441458710209986 [Eh]
	-----------------------------------------------------------

  Dipole Moment: [D]
     X:    -0.0464      Y:    -0.1216      Z:    -0.0414     Total:     0.1365

*** Psi4 exiting successfully. Buy a developer a beer!
