                               Psi4 1.3.2 release

  ==> Input File <==

--------------------------------------------------------------------------
#psi4
#
memory 32 gb

molecule  {
0 1
  O       -1.2691620    -1.9635190    -0.2989340
  N       -1.5914490     0.7494560    -0.4145900
  C       -0.3130270     0.2119120    -0.1595780
  C        0.8301940     1.0305910    -0.0518670
  C       -0.1431580    -1.1878580    -0.1217090
  C        2.0898390     0.4471990     0.1357390
  C        0.6762192     2.5365417     0.0320342
  C        1.1116310    -1.7522480     0.0999640
  C        2.2372160    -0.9348950     0.2090400
  C       -2.6427770     0.4546790     0.5677560
  H        2.9635850     1.0904280     0.2186520
  H       -1.5238420     1.7535930    -0.5485080
  H        0.3450640     2.8711750    -1.0989170
  H       -0.0074210     2.9084320     0.6355410
  H        1.6619860     3.0062270     0.0664270
  H        1.2125710    -2.8369000     0.1368280
  H        3.2163680    -1.3783700     0.3701280
  H       -2.3586210     0.7219050     1.5961240
  H       -2.8840400    -0.6056810     0.5350110
  H       -3.5330900     1.0242430     0.2900250
  H       -0.9887950    -2.8960920    -0.2836830
units angstrom
no_reorient  #important for SAPT in psi4, default
symmetry c1  #important for SAPT in psi4, default
}

set PROPERTIES_ORIGIN ["COM"]
properties('MP2/aug-cc-pvtz', properties = ['dipole'])
--------------------------------------------------------------------------

    Molecular point group: c1
  Charge       = 0
  Multiplicity = 1
  Basis Set: AUG-CC-PVTZ
    Blend: AUG-CC-PVTZ
  Basis Set: (AUG-CC-PVTZ AUX)
    Blend: AUG-CC-PVTZ-JKFIT

    Orbital Energies [Eh]
    ---------------------

    Doubly Occupied:

       1A    -20.587120     2A    -15.554127     3A    -11.295034
       4A    -11.263299     5A    -11.242527     6A    -11.240116
       7A    -11.232816     8A    -11.231975     9A    -11.230659
      10A    -11.224499    11A     -1.396769    12A     -1.224102
      13A     -1.131447    14A     -1.041051    15A     -0.994605
      16A     -0.940322    17A     -0.900993    18A     -0.824324
      19A     -0.801721    20A     -0.708978    21A     -0.693227
      22A     -0.672089    23A     -0.624938    24A     -0.609429
      25A     -0.601400    26A     -0.591560    27A     -0.584311
      28A     -0.565254    29A     -0.554013    30A     -0.531381
      31A     -0.523710    32A     -0.505061    33A     -0.486056
      34A     -0.463509    35A     -0.413377    36A     -0.316737
      37A     -0.290604

  @DF-RHF Final Energy:  -438.77883596590425

   => Energetics <=

    Nuclear Repulsion Energy =            524.0844283775199983
    One-Electron Energy =               -1635.5402517214395175
    Two-Electron Energy =                 672.6769873780152693
    Total Energy =                       -438.7788359659042499
  Basis Set: (AUG-CC-PVTZ AUX)
    Blend: AUG-CC-PVTZ-RI
    Molecular point group: c1

    Geometry (in Angstrom), charge = 0, multiplicity = 1:

       Center              X                  Y                   Z               Mass
    ------------   -----------------  -----------------  -----------------  -----------------
         O           -1.281251350886    -1.923125326055    -0.298074860330    15.994914619570
         N           -1.603538350886     0.789849673945    -0.413730860330    14.003074004430
         C           -0.325116350886     0.252305673945    -0.158718860330    12.000000000000
         C            0.818104649114     1.070984673945    -0.051007860330    12.000000000000
         C           -0.155247350886    -1.147464326055    -0.120849860330    12.000000000000
         C            2.077749649114     0.487592673945     0.136598139670    12.000000000000
         C            0.664129849114     2.576935373945     0.032893339670    12.000000000000
         C            1.099541649114    -1.711854326055     0.100823139670    12.000000000000
         C            2.225126649114    -0.894501326055     0.209899139670    12.000000000000
         C           -2.654866350886     0.495072673945     0.568615139670    12.000000000000
         H            2.951495649114     1.130821673945     0.219511139670     1.007825032230
         H           -1.535931350886     1.793986673945    -0.547648860330     1.007825032230
         H            0.332974649114     2.911568673945    -1.098057860330     1.007825032230
         H           -0.019510350886     2.948825673945     0.636400139670     1.007825032230
         H            1.649896649114     3.046620673945     0.067286139670     1.007825032230
         H            1.200481649114    -2.796506326055     0.137687139670     1.007825032230
         H            3.204278649114    -1.337976326055     0.370987139670     1.007825032230
         H           -2.370710350886     0.762298673945     1.596983139670     1.007825032230
         H           -2.896129350886    -0.565287326055     0.535870139670     1.007825032230
         H           -3.545179350886     1.064636673945     0.290884139670     1.007825032230
         H           -1.000884350886    -2.855698326055    -0.282823860330     1.007825032230

  Basis Set: AUG-CC-PVTZ
    Blend: AUG-CC-PVTZ
  Basis Set: (AUG-CC-PVTZ AUX)
    Blend: AUG-CC-PVTZ-JKFIT
	 Reference Energy          =    -438.7788359659042499 [Eh]
	 Singles Energy            =      -0.0000000000000000 [Eh]
	 Same-Spin Energy          =      -0.4739958796594844 [Eh]
	 Opposite-Spin Energy      =      -1.4981238194800204 [Eh]
	 Correlation Energy        =      -1.9721196991395047 [Eh]
	 Total Energy              =    -440.7509556650437617 [Eh]

	 ================> DF-SCS-MP2 Energies <==================
	-----------------------------------------------------------
	 SCS Same-Spin Scale       =       0.3333333333333333 [-]
	 SCS Opposite-Spin Scale   =       1.2000000000000000 [-]
	 SCS Same-Spin Energy      =      -0.1579986265531615 [Eh]
	 SCS Opposite-Spin Energy  =      -1.7977485833760245 [Eh]
	 SCS Correlation Energy    =      -1.9557472099291859 [Eh]
	 SCS Total Energy          =    -440.7345831758334498 [Eh]
	-----------------------------------------------------------

  Dipole Moment: [D]
     X:     0.1963      Y:     0.0640      Z:     0.8697     Total:     0.8939

*** Psi4 exiting successfully. Buy a developer a beer!
