                               Psi4 1.3.2 release

  ==> Input File <==

--------------------------------------------------------------------------
#psi4
#
memory 32 gb

molecule  {
0 1
  O       -1.2691620    -1.9635190    -0.2989340
  N       -1.5914490     0.7494560    -0.4145900
  C       -0.3130270     0.2119120    -0.1595780
  C        0.8301940     1.0305910    -0.0518670
  C       -0.1431580    -1.1878580    -0.1217090
  C        2.0898390     0.4471990     0.1357390
  C        0.6950280     2.5311170    -0.1166830
  C        1.1448481    -1.7542142    -0.0972485
  C        2.2372160    -0.9348950     0.2090400
  C       -2.6427770     0.4546790     0.5677560
  H        2.9635850     1.0904280     0.2186520
  H       -1.5238420     1.7535930    -0.5485080
  H        0.3450640     2.8711750    -1.0989170
  H       -0.0074210     2.9084320     0.6355410
  H        1.6619860     3.0062270     0.0664270
  H        1.2125710    -2.8369000     0.1368280
  H        3.2163680    -1.3783700     0.3701280
  H       -2.3586210     0.7219050     1.5961240
  H       -2.8840400    -0.6056810     0.5350110
  H       -3.5330900     1.0242430     0.2900250
  H       -0.9887950    -2.8960920    -0.2836830
units angstrom
no_reorient  #important for SAPT in psi4, default
symmetry c1  #important for SAPT in psi4, default
}

set PROPERTIES_ORIGIN ["COM"]
properties('MP2/aug-cc-pvtz', properties = ['dipole'])
--------------------------------------------------------------------------

    Molecular point group: c1
  Charge       = 0
  Multiplicity = 1
  Basis Set: AUG-CC-PVTZ
    Blend: AUG-CC-PVTZ
  Basis Set: (AUG-CC-PVTZ AUX)
    Blend: AUG-CC-PVTZ-JKFIT

    Orbital Energies [Eh]
    ---------------------

    Doubly Occupied:

       1A    -20.587551     2A    -15.554153     3A    -11.297461
       4A    -11.262923     5A    -11.242495     6A    -11.240031
       7A    -11.233680     8A    -11.232499     9A    -11.230233
      10A    -11.223774    11A     -1.396904    12A     -1.224225
      13A     -1.130834    14A     -1.040219    15A     -0.994300
      16A     -0.937155    17A     -0.900774    18A     -0.822769
      19A     -0.799956    20A     -0.704037    21A     -0.692694
      22A     -0.670709    23A     -0.616827    24A     -0.607974
      25A     -0.599137    26A     -0.586523    27A     -0.574112
      28A     -0.567967    29A     -0.560732    30A     -0.536801
      31A     -0.528543    32A     -0.504813    33A     -0.482436
      34A     -0.469875    35A     -0.412419    36A     -0.318708
      37A     -0.289945

  @DF-RHF Final Energy:  -438.79134478898237

   => Energetics <=

    Nuclear Repulsion Energy =            523.7561271911823724
    One-Electron Energy =               -1634.9425679749513165
    Two-Electron Energy =                 672.3950959947865158
    Total Energy =                       -438.7913447889823146
  Basis Set: (AUG-CC-PVTZ AUX)
    Blend: AUG-CC-PVTZ-RI
    Molecular point group: c1

    Geometry (in Angstrom), charge = 0, multiplicity = 1:

       Center              X                  Y                   Z               Mass
    ------------   -----------------  -----------------  -----------------  -----------------
         O           -1.285805569530    -1.922478344944    -0.267793029755    15.994914619570
         N           -1.608092569530     0.790496655056    -0.383449029755    14.003074004430
         C           -0.329670569530     0.252952655056    -0.128437029755    12.000000000000
         C            0.813550430470     1.071631655056    -0.020726029755    12.000000000000
         C           -0.159801569530    -1.146817344944    -0.090568029755    12.000000000000
         C            2.073195430470     0.488239655056     0.166879970245    12.000000000000
         C            0.678384430470     2.572157655056    -0.085542029755    12.000000000000
         C            1.128204530470    -1.713173544944    -0.066107529755    12.000000000000
         C            2.220572430470    -0.893854344944     0.240180970245    12.000000000000
         C           -2.659420569530     0.495719655056     0.598896970245    12.000000000000
         H            2.946941430470     1.131468655056     0.249792970245     1.007825032230
         H           -1.540485569530     1.794633655056    -0.517367029755     1.007825032230
         H            0.328420430470     2.912215655056    -1.067776029755     1.007825032230
         H           -0.024064569530     2.949472655056     0.666681970245     1.007825032230
         H            1.645342430470     3.047267655056     0.097567970245     1.007825032230
         H            1.195927430470    -2.795859344944     0.167968970245     1.007825032230
         H            3.199724430470    -1.337329344944     0.401268970245     1.007825032230
         H           -2.375264569530     0.762945655056     1.627264970245     1.007825032230
         H           -2.900683569530    -0.564640344944     0.566151970245     1.007825032230
         H           -3.549733569530     1.065283655056     0.321165970245     1.007825032230
         H           -1.005438569530    -2.855051344944    -0.252542029755     1.007825032230

  Basis Set: AUG-CC-PVTZ
    Blend: AUG-CC-PVTZ
  Basis Set: (AUG-CC-PVTZ AUX)
    Blend: AUG-CC-PVTZ-JKFIT
	 Reference Energy          =    -438.7913447889823715 [Eh]
	 Singles Energy            =      -0.0000000000000000 [Eh]
	 Same-Spin Energy          =      -0.4742264047143199 [Eh]
	 Opposite-Spin Energy      =      -1.4986093646381269 [Eh]
	 Correlation Energy        =      -1.9728357693524468 [Eh]
	 Total Energy              =    -440.7641805583348287 [Eh]

	 ================> DF-SCS-MP2 Energies <==================
	-----------------------------------------------------------
	 SCS Same-Spin Scale       =       0.3333333333333333 [-]
	 SCS Opposite-Spin Scale   =       1.2000000000000000 [-]
	 SCS Same-Spin Energy      =      -0.1580754682381066 [Eh]
	 SCS Opposite-Spin Energy  =      -1.7983312375657523 [Eh]
	 SCS Correlation Energy    =      -1.9564067058038590 [Eh]
	 SCS Total Energy          =    -440.7477514947862574 [Eh]
	-----------------------------------------------------------

  Dipole Moment: [D]
     X:     0.1415      Y:     0.1989      Z:     0.9287     Total:     0.9602

*** Psi4 exiting successfully. Buy a developer a beer!
