                               Psi4 1.3.2 release

  ==> Input File <==

--------------------------------------------------------------------------
#psi4
#
memory 32 gb

molecule  {
0 1
  O       -1.2691620    -1.9635190    -0.2989340
  N       -1.5914490     0.7494560    -0.4145900
  C       -0.3130270     0.2119120    -0.1595780
  C        0.8301940     1.0305910    -0.0518670
  C       -0.1127416    -1.1949841    -0.3192541
  C        2.0898390     0.4471990     0.1357390
  C        0.6950280     2.5311170    -0.1166830
  C        1.1116310    -1.7522480     0.0999640
  C        2.2372160    -0.9348950     0.2090400
  C       -2.6427770     0.4546790     0.5677560
  H        2.9635850     1.0904280     0.2186520
  H       -1.5238420     1.7535930    -0.5485080
  H        0.3450640     2.8711750    -1.0989170
  H       -0.0074210     2.9084320     0.6355410
  H        1.6619860     3.0062270     0.0664270
  H        1.2125710    -2.8369000     0.1368280
  H        3.2163680    -1.3783700     0.3701280
  H       -2.3586210     0.7219050     1.5961240
  H       -2.8840400    -0.6056810     0.5350110
  H       -3.5330900     1.0242430     0.2900250
  H       -0.9887950    -2.8960920    -0.2836830
units angstrom
no_reorient  #important for SAPT in psi4, default
symmetry c1  #important for SAPT in psi4, default
}

set PROPERTIES_ORIGIN ["COM"]
properties('MP2/aug-cc-pvtz', properties = ['dipole'])
--------------------------------------------------------------------------

    Molecular point group: c1
  Charge       = 0
  Multiplicity = 1
  Basis Set: AUG-CC-PVTZ
    Blend: AUG-CC-PVTZ
  Basis Set: (AUG-CC-PVTZ AUX)
    Blend: AUG-CC-PVTZ-JKFIT

    Orbital Energies [Eh]
    ---------------------

    Doubly Occupied:

       1A    -20.584486     2A    -15.553502     3A    -11.297007
       4A    -11.265716     5A    -11.240809     6A    -11.239027
       7A    -11.233835     8A    -11.231245     9A    -11.229599
      10A    -11.225858    11A     -1.391290    12A     -1.223033
      13A     -1.130436    14A     -1.040262    15A     -0.992076
      16A     -0.937151    17A     -0.898916    18A     -0.819519
      19A     -0.799631    20A     -0.703347    21A     -0.691018
      22A     -0.670491    23A     -0.617084    24A     -0.606890
      25A     -0.594733    26A     -0.587449    27A     -0.574535
      28A     -0.568910    29A     -0.557592    30A     -0.535459
      31A     -0.528657    32A     -0.506245    33A     -0.482188
      34A     -0.467341    35A     -0.409295    36A     -0.317483
      37A     -0.292341

  @DF-RHF Final Energy:  -438.78571899876238

   => Energetics <=

    Nuclear Repulsion Energy =            523.3333239303342452
    One-Electron Energy =               -1634.1491703108893034
    Two-Electron Energy =                 672.0301273817926813
    Total Energy =                       -438.7857189987623769
  Basis Set: (AUG-CC-PVTZ AUX)
    Blend: AUG-CC-PVTZ-RI
    Molecular point group: c1

    Geometry (in Angstrom), charge = 0, multiplicity = 1:

       Center              X                  Y                   Z               Mass
    ------------   -----------------  -----------------  -----------------  -----------------
         O           -1.285560403178    -1.922026660056    -0.267763914773    15.994914619570
         N           -1.607847403178     0.790948339944    -0.383419914773    14.003074004430
         C           -0.329425403178     0.253404339944    -0.128407914773    12.000000000000
         C            0.813795596822     1.072083339944    -0.020696914773    12.000000000000
         C           -0.129140003178    -1.153491760056    -0.288084014773    12.000000000000
         C            2.073440596822     0.488691339944     0.166909085227    12.000000000000
         C            0.678629596822     2.572609339944    -0.085512914773    12.000000000000
         C            1.095232596822    -1.710755660056     0.131134085227    12.000000000000
         C            2.220817596822    -0.893402660056     0.240210085227    12.000000000000
         C           -2.659175403178     0.496171339944     0.598926085227    12.000000000000
         H            2.947186596822     1.131920339944     0.249822085227     1.007825032230
         H           -1.540240403178     1.795085339944    -0.517337914773     1.007825032230
         H            0.328665596822     2.912667339944    -1.067746914773     1.007825032230
         H           -0.023819403178     2.949924339944     0.666711085227     1.007825032230
         H            1.645587596822     3.047719339944     0.097597085227     1.007825032230
         H            1.196172596822    -2.795407660056     0.167998085227     1.007825032230
         H            3.199969596822    -1.336877660056     0.401298085227     1.007825032230
         H           -2.375019403178     0.763397339944     1.627294085227     1.007825032230
         H           -2.900438403178    -0.564188660056     0.566181085227     1.007825032230
         H           -3.549488403178     1.065735339944     0.321195085227     1.007825032230
         H           -1.005193403178    -2.854599660056    -0.252512914773     1.007825032230

  Basis Set: AUG-CC-PVTZ
    Blend: AUG-CC-PVTZ
  Basis Set: (AUG-CC-PVTZ AUX)
    Blend: AUG-CC-PVTZ-JKFIT
	 Reference Energy          =    -438.7857189987623769 [Eh]
	 Singles Energy            =      -0.0000000000000000 [Eh]
	 Same-Spin Energy          =      -0.4742960219271348 [Eh]
	 Opposite-Spin Energy      =      -1.4992073302945794 [Eh]
	 Correlation Energy        =      -1.9735033522217142 [Eh]
	 Total Energy              =    -440.7592223509840892 [Eh]

	 ================> DF-SCS-MP2 Energies <==================
	-----------------------------------------------------------
	 SCS Same-Spin Scale       =       0.3333333333333333 [-]
	 SCS Opposite-Spin Scale   =       1.2000000000000000 [-]
	 SCS Same-Spin Energy      =      -0.1580986739757116 [Eh]
	 SCS Opposite-Spin Energy  =      -1.7990487963534953 [Eh]
	 SCS Correlation Energy    =      -1.9571474703292069 [Eh]
	 SCS Total Energy          =    -440.7428664690916094 [Eh]
	-----------------------------------------------------------

  Dipole Moment: [D]
     X:     0.2970      Y:     0.1635      Z:     0.7697     Total:     0.8411

*** Psi4 exiting successfully. Buy a developer a beer!
