                               Psi4 1.3.2 release

  ==> Input File <==

--------------------------------------------------------------------------
#psi4
#
memory 32 gb

molecule  {
0 1
  O       -1.2691620    -1.9635190    -0.2989340
  N       -1.5914490     0.7494560    -0.4145900
  C       -0.3130270     0.2119120    -0.1595780
  C        0.8301940     1.0305910    -0.0518670
  C       -0.1051376    -1.1967656    -0.3686404
  C        2.0898390     0.4471990     0.1357390
  C        0.6950280     2.5311170    -0.1166830
  C        1.1116310    -1.7522480     0.0999640
  C        2.2372160    -0.9348950     0.2090400
  C       -2.6427770     0.4546790     0.5677560
  H        2.9635850     1.0904280     0.2186520
  H       -1.5238420     1.7535930    -0.5485080
  H        0.3450640     2.8711750    -1.0989170
  H       -0.0074210     2.9084320     0.6355410
  H        1.6619860     3.0062270     0.0664270
  H        1.2125710    -2.8369000     0.1368280
  H        3.2163680    -1.3783700     0.3701280
  H       -2.3586210     0.7219050     1.5961240
  H       -2.8840400    -0.6056810     0.5350110
  H       -3.5330900     1.0242430     0.2900250
  H       -0.9887950    -2.8960920    -0.2836830
units angstrom
no_reorient  #important for SAPT in psi4, default
symmetry c1  #important for SAPT in psi4, default
}

set PROPERTIES_ORIGIN ["COM"]
properties('MP2/aug-cc-pvtz', properties = ['dipole'])
--------------------------------------------------------------------------

    Molecular point group: c1
  Charge       = 0
  Multiplicity = 1
  Basis Set: AUG-CC-PVTZ
    Blend: AUG-CC-PVTZ
  Basis Set: (AUG-CC-PVTZ AUX)
    Blend: AUG-CC-PVTZ-JKFIT

    Orbital Energies [Eh]
    ---------------------

    Doubly Occupied:

       1A    -20.582649     2A    -15.553764     3A    -11.297741
       4A    -11.267605     5A    -11.240817     6A    -11.239008
       7A    -11.235583     8A    -11.231269     9A    -11.229754
      10A    -11.227268    11A     -1.387428    12A     -1.222995
      13A     -1.130185    14A     -1.040003    15A     -0.991044
      16A     -0.936854    17A     -0.898526    18A     -0.817924
      19A     -0.798880    20A     -0.702292    21A     -0.689458
      22A     -0.669838    23A     -0.616526    24A     -0.606535
      25A     -0.593177    26A     -0.587289    27A     -0.573706
      28A     -0.568403    29A     -0.556528    30A     -0.534965
      31A     -0.528907    32A     -0.506493    33A     -0.481381
      34A     -0.466088    35A     -0.408172    36A     -0.317208
      37A     -0.293011

  @DF-RHF Final Energy:  -438.77754729883094

   => Energetics <=

    Nuclear Repulsion Energy =            522.9515007759470109
    One-Electron Energy =               -1633.3995464923343661
    Two-Electron Energy =                 671.6704984175562458
    Total Energy =                       -438.7775472988309957
  Basis Set: (AUG-CC-PVTZ AUX)
    Blend: AUG-CC-PVTZ-RI
    Molecular point group: c1

    Geometry (in Angstrom), charge = 0, multiplicity = 1:

       Center              X                  Y                   Z               Mass
    ------------   -----------------  -----------------  -----------------  -----------------
         O           -1.286226038535    -1.921870711951    -0.263440760186    15.994914619570
         N           -1.608513038535     0.791104288049    -0.379096760186    14.003074004430
         C           -0.330091038535     0.253560288049    -0.124084760186    12.000000000000
         C            0.813129961465     1.072239288049    -0.016373760186    12.000000000000
         C           -0.122201638535    -1.155117311951    -0.333147160186    12.000000000000
         C            2.072774961465     0.488847288049     0.171232239814    12.000000000000
         C            0.677963961465     2.572765288049    -0.081189760186    12.000000000000
         C            1.094566961465    -1.710599711951     0.135457239814    12.000000000000
         C            2.220151961465    -0.893246711951     0.244533239814    12.000000000000
         C           -2.659841038535     0.496327288049     0.603249239814    12.000000000000
         H            2.946520961465     1.132076288049     0.254145239814     1.007825032230
         H           -1.540906038535     1.795241288049    -0.513014760186     1.007825032230
         H            0.327999961465     2.912823288049    -1.063423760186     1.007825032230
         H           -0.024485038535     2.950080288049     0.671034239814     1.007825032230
         H            1.644921961465     3.047875288049     0.101920239814     1.007825032230
         H            1.195506961465    -2.795251711951     0.172321239814     1.007825032230
         H            3.199303961465    -1.336721711951     0.405621239814     1.007825032230
         H           -2.375685038535     0.763553288049     1.631617239814     1.007825032230
         H           -2.901104038535    -0.564032711951     0.570504239814     1.007825032230
         H           -3.550154038535     1.065891288049     0.325518239814     1.007825032230
         H           -1.005859038535    -2.854443711951    -0.248189760186     1.007825032230

  Basis Set: AUG-CC-PVTZ
    Blend: AUG-CC-PVTZ
  Basis Set: (AUG-CC-PVTZ AUX)
    Blend: AUG-CC-PVTZ-JKFIT
	 Reference Energy          =    -438.7775472988309389 [Eh]
	 Singles Energy            =      -0.0000000000000000 [Eh]
	 Same-Spin Energy          =      -0.4746395733760908 [Eh]
	 Opposite-Spin Energy      =      -1.5003730669692117 [Eh]
	 Correlation Energy        =      -1.9750126403453026 [Eh]
	 Total Energy              =    -440.7525599391762512 [Eh]

	 ================> DF-SCS-MP2 Energies <==================
	-----------------------------------------------------------
	 SCS Same-Spin Scale       =       0.3333333333333333 [-]
	 SCS Opposite-Spin Scale   =       1.2000000000000000 [-]
	 SCS Same-Spin Energy      =      -0.1582131911253636 [Eh]
	 SCS Opposite-Spin Energy  =      -1.8004476803630540 [Eh]
	 SCS Correlation Energy    =      -1.9586608714884175 [Eh]
	 SCS Total Energy          =    -440.7362081703193439 [Eh]
	-----------------------------------------------------------

  Dipole Moment: [D]
     X:     0.3483      Y:     0.2161      Z:     0.7745     Total:     0.8762

*** Psi4 exiting successfully. Buy a developer a beer!
