                               Psi4 1.3.2 release

  ==> Input File <==

--------------------------------------------------------------------------
#psi4
#
memory 32 gb

molecule  {
0 1
  O       -1.2691620    -1.9635190    -0.2989340
  N       -1.5914490     0.7494560    -0.4145900
  C       -0.3130270     0.2119120    -0.1595780
  C        0.8301940     1.0305910    -0.0518670
  C       -0.1431580    -1.1878580    -0.1217090
  C        2.0898390     0.4471990     0.1357390
  C        0.6636800     2.5401582     0.1311790
  C        1.1116310    -1.7522480     0.0999640
  C        2.2372160    -0.9348950     0.2090400
  C       -2.6427770     0.4546790     0.5677560
  H        2.9635850     1.0904280     0.2186520
  H       -1.5238420     1.7535930    -0.5485080
  H        0.3450640     2.8711750    -1.0989170
  H       -0.0074210     2.9084320     0.6355410
  H        1.6619860     3.0062270     0.0664270
  H        1.2125710    -2.8369000     0.1368280
  H        3.2163680    -1.3783700     0.3701280
  H       -2.3586210     0.7219050     1.5961240
  H       -2.8840400    -0.6056810     0.5350110
  H       -3.5330900     1.0242430     0.2900250
  H       -0.9887950    -2.8960920    -0.2836830
units angstrom
no_reorient  #important for SAPT in psi4, default
symmetry c1  #important for SAPT in psi4, default
}

set PROPERTIES_ORIGIN ["COM"]
properties('MP2/aug-cc-pvtz', properties = ['dipole'])
--------------------------------------------------------------------------

    Molecular point group: c1
  Charge       = 0
  Multiplicity = 1
  Basis Set: AUG-CC-PVTZ
    Blend: AUG-CC-PVTZ
  Basis Set: (AUG-CC-PVTZ AUX)
    Blend: AUG-CC-PVTZ-JKFIT

    Orbital Energies [Eh]
    ---------------------

    Doubly Occupied:

       1A    -20.587445     2A    -15.554240     3A    -11.295457
       4A    -11.263782     5A    -11.245874     6A    -11.240343
       7A    -11.238805     8A    -11.232655     9A    -11.231223
      10A    -11.225468    11A     -1.397094    12A     -1.224303
      13A     -1.131968    14A     -1.041528    15A     -0.995144
      16A     -0.944730    17A     -0.901439    18A     -0.826996
      19A     -0.802562    20A     -0.713742    21A     -0.693334
      22A     -0.672588    23A     -0.637654    24A     -0.612716
      25A     -0.602393    26A     -0.593069    27A     -0.585036
      28A     -0.564095    29A     -0.554052    30A     -0.532380
      31A     -0.509175    32A     -0.504963    33A     -0.488476
      34A     -0.452809    35A     -0.413700    36A     -0.314979
      37A     -0.290753

  @DF-RHF Final Energy:  -438.73969603941350

   => Energetics <=

    Nuclear Repulsion Energy =            523.9394035101058762
    One-Electron Energy =               -1635.1242546260625659
    Two-Electron Energy =                 672.4451550765431875
    Total Energy =                       -438.7396960394135021
  Basis Set: (AUG-CC-PVTZ AUX)
    Blend: AUG-CC-PVTZ-RI
    Molecular point group: c1

    Geometry (in Angstrom), charge = 0, multiplicity = 1:

       Center              X                  Y                   Z               Mass
    ------------   -----------------  -----------------  -----------------  -----------------
         O           -1.280153700323    -1.923441905522    -0.306753750972    15.994914619570
         N           -1.602440700323     0.789533094478    -0.422409750972    14.003074004430
         C           -0.324018700323     0.251989094478    -0.167397750972    12.000000000000
         C            0.819202299677     1.070668094478    -0.059686750972    12.000000000000
         C           -0.154149700323    -1.147780905522    -0.129528750972    12.000000000000
         C            2.078847299677     0.487276094478     0.127919249028    12.000000000000
         C            0.652688299677     2.580235294478     0.123359249028    12.000000000000
         C            1.100639299677    -1.712170905522     0.092144249028    12.000000000000
         C            2.226224299677    -0.894817905522     0.201220249028    12.000000000000
         C           -2.653768700323     0.494756094478     0.559936249028    12.000000000000
         H            2.952593299677     1.130505094478     0.210832249028     1.007825032230
         H           -1.534833700323     1.793670094478    -0.556327750972     1.007825032230
         H            0.334072299677     2.911252094478    -1.106736750972     1.007825032230
         H           -0.018412700323     2.948509094478     0.627721249028     1.007825032230
         H            1.650994299677     3.046304094478     0.058607249028     1.007825032230
         H            1.201579299677    -2.796822905522     0.129008249028     1.007825032230
         H            3.205376299677    -1.338292905522     0.362308249028     1.007825032230
         H           -2.369612700323     0.761982094478     1.588304249028     1.007825032230
         H           -2.895031700323    -0.565603905522     0.527191249028     1.007825032230
         H           -3.544081700323     1.064320094478     0.282205249028     1.007825032230
         H           -0.999786700323    -2.856014905522    -0.291502750972     1.007825032230

  Basis Set: AUG-CC-PVTZ
    Blend: AUG-CC-PVTZ
  Basis Set: (AUG-CC-PVTZ AUX)
    Blend: AUG-CC-PVTZ-JKFIT
	 Reference Energy          =    -438.7396960394135021 [Eh]
	 Singles Energy            =      -0.0000000000000000 [Eh]
	 Same-Spin Energy          =      -0.4745213758722651 [Eh]
	 Opposite-Spin Energy      =      -1.4998466518577536 [Eh]
	 Correlation Energy        =      -1.9743680277300186 [Eh]
	 Total Energy              =    -440.7140640671435108 [Eh]

	 ================> DF-SCS-MP2 Energies <==================
	-----------------------------------------------------------
	 SCS Same-Spin Scale       =       0.3333333333333333 [-]
	 SCS Opposite-Spin Scale   =       1.2000000000000000 [-]
	 SCS Same-Spin Energy      =      -0.1581737919574217 [Eh]
	 SCS Opposite-Spin Energy  =      -1.7998159822293043 [Eh]
	 SCS Correlation Energy    =      -1.9579897741867260 [Eh]
	 SCS Total Energy          =    -440.6976858136002306 [Eh]
	-----------------------------------------------------------

  Dipole Moment: [D]
     X:     0.2178      Y:     0.0064      Z:     0.9272     Total:     0.9524

*** Psi4 exiting successfully. Buy a developer a beer!
