                               Psi4 1.3.2 release

  ==> Input File <==

--------------------------------------------------------------------------
#psi4
#
memory 32 gb

molecule  {
0 1
  O       -1.2691620    -1.9635190    -0.2989340
  N       -1.5914490     0.7494560    -0.4145900
  C       -0.3130270     0.2119120    -0.1595780
  C        0.8301940     1.0305910    -0.0518670
  C       -0.1431580    -1.1878580    -0.1217090
  C        2.0898390     0.4471990     0.1357390
  C        0.6887584     2.5329252    -0.0671106
  C        1.1116310    -1.7522480     0.0999640
  C        2.2372160    -0.9348950     0.2090400
  C       -2.6427770     0.4546790     0.5677560
  H        2.9635850     1.0904280     0.2186520
  H       -1.5238420     1.7535930    -0.5485080
  H        0.3450640     2.8711750    -1.0989170
  H       -0.0074210     2.9084320     0.6355410
  H        1.6619860     3.0062270     0.0664270
  H        1.2125710    -2.8369000     0.1368280
  H        3.2163680    -1.3783700     0.3701280
  H       -2.3586210     0.7219050     1.5961240
  H       -2.8840400    -0.6056810     0.5350110
  H       -3.5330900     1.0242430     0.2900250
  H       -0.9887950    -2.8960920    -0.2836830
units angstrom
no_reorient  #important for SAPT in psi4, default
symmetry c1  #important for SAPT in psi4, default
}

set PROPERTIES_ORIGIN ["COM"]
properties('MP2/aug-cc-pvtz', properties = ['dipole'])
--------------------------------------------------------------------------

    Molecular point group: c1
  Charge       = 0
  Multiplicity = 1
  Basis Set: AUG-CC-PVTZ
    Blend: AUG-CC-PVTZ
  Basis Set: (AUG-CC-PVTZ AUX)
    Blend: AUG-CC-PVTZ-JKFIT

    Orbital Energies [Eh]
    ---------------------

    Doubly Occupied:

       1A    -20.586952     2A    -15.554014     3A    -11.294851
       4A    -11.263081     5A    -11.240744     6A    -11.239911
       7A    -11.231610     8A    -11.230356     9A    -11.229760
      10A    -11.223958    11A     -1.396604    12A     -1.223953
      13A     -1.131159    14A     -1.040831    15A     -0.994306
      16A     -0.938130    17A     -0.900718    18A     -0.822956
      19A     -0.801195    20A     -0.706651    21A     -0.693075
      22A     -0.671699    23A     -0.618551    24A     -0.607031
      25A     -0.598833    26A     -0.588492    27A     -0.580136
      28A     -0.566954    29A     -0.556962    30A     -0.535895
      31A     -0.529632    32A     -0.505076    33A     -0.484357
      34A     -0.469535    35A     -0.413132    36A     -0.317794
      37A     -0.290524

  @DF-RHF Final Energy:  -438.79860560456444

   => Energetics <=

    Nuclear Repulsion Energy =            524.1402880502565722
    One-Electron Energy =               -1635.7189515549321186
    Two-Electron Energy =                 672.7800579001112737
    Total Energy =                       -438.7986056045643863
  Basis Set: (AUG-CC-PVTZ AUX)
    Blend: AUG-CC-PVTZ-RI
    Molecular point group: c1

    Geometry (in Angstrom), charge = 0, multiplicity = 1:

       Center              X                  Y                   Z               Mass
    ------------   -----------------  -----------------  -----------------  -----------------
         O           -1.282349001449    -1.922808746587    -0.289395969688    15.994914619570
         N           -1.604636001449     0.790166253413    -0.405051969688    14.003074004430
         C           -0.326214001449     0.252622253413    -0.150039969688    12.000000000000
         C            0.817006998551     1.071301253413    -0.042328969688    12.000000000000
         C           -0.156345001449    -1.147147746587    -0.112170969688    12.000000000000
         C            2.076651998551     0.487909253413     0.145277030312    12.000000000000
         C            0.675571398551     2.573635453413    -0.057572569688    12.000000000000
         C            1.098443998551    -1.711537746587     0.109502030312    12.000000000000
         C            2.224028998551    -0.894184746587     0.218578030312    12.000000000000
         C           -2.655964001449     0.495389253413     0.577294030312    12.000000000000
         H            2.950397998551     1.131138253413     0.228190030312     1.007825032230
         H           -1.537029001449     1.794303253413    -0.538969969688     1.007825032230
         H            0.331876998551     2.911885253413    -1.089378969688     1.007825032230
         H           -0.020608001449     2.949142253413     0.645079030312     1.007825032230
         H            1.648798998551     3.046937253413     0.075965030312     1.007825032230
         H            1.199383998551    -2.796189746587     0.146366030312     1.007825032230
         H            3.203180998551    -1.337659746587     0.379666030312     1.007825032230
         H           -2.371808001449     0.762615253413     1.605662030312     1.007825032230
         H           -2.897227001449    -0.564970746587     0.544549030312     1.007825032230
         H           -3.546277001449     1.064953253413     0.299563030312     1.007825032230
         H           -1.001982001449    -2.855381746587    -0.274144969688     1.007825032230

  Basis Set: AUG-CC-PVTZ
    Blend: AUG-CC-PVTZ
  Basis Set: (AUG-CC-PVTZ AUX)
    Blend: AUG-CC-PVTZ-JKFIT
	 Reference Energy          =    -438.7986056045644432 [Eh]
	 Singles Energy            =      -0.0000000000000000 [Eh]
	 Same-Spin Energy          =      -0.4737455183671115 [Eh]
	 Opposite-Spin Energy      =      -1.4973198727528545 [Eh]
	 Correlation Energy        =      -1.9710653911199660 [Eh]
	 Total Energy              =    -440.7696709956844074 [Eh]

	 ================> DF-SCS-MP2 Energies <==================
	-----------------------------------------------------------
	 SCS Same-Spin Scale       =       0.3333333333333333 [-]
	 SCS Opposite-Spin Scale   =       1.2000000000000000 [-]
	 SCS Same-Spin Energy      =      -0.1579151727890372 [Eh]
	 SCS Opposite-Spin Energy  =      -1.7967838473034254 [Eh]
	 SCS Correlation Energy    =      -1.9546990200924625 [Eh]
	 SCS Total Energy          =    -440.7533046246568915 [Eh]
	-----------------------------------------------------------

  Dipole Moment: [D]
     X:     0.1861      Y:     0.0946      Z:     0.8080     Total:     0.8345

*** Psi4 exiting successfully. Buy a developer a beer!
