                               Psi4 1.3.2 release

  ==> Input File <==

--------------------------------------------------------------------------
#psi4
#
memory 32 gb

molecule  {
0 1
  O       -1.2691620    -1.9635190    -0.2989340
  N       -1.5914490     0.7494560    -0.4145900
  C       -0.3130270     0.2119120    -0.1595780
  C        0.8301940     1.0305910    -0.0518670
  C       -0.1355539    -1.1896395    -0.1710953
  C        2.0898390     0.4471990     0.1357390
  C        0.6950280     2.5311170    -0.1166830
  C        1.1116310    -1.7522480     0.0999640
  C        2.2372160    -0.9348950     0.2090400
  C       -2.6427770     0.4546790     0.5677560
  H        2.9635850     1.0904280     0.2186520
  H       -1.5238420     1.7535930    -0.5485080
  H        0.3450640     2.8711750    -1.0989170
  H       -0.0074210     2.9084320     0.6355410
  H        1.6619860     3.0062270     0.0664270
  H        1.2125710    -2.8369000     0.1368280
  H        3.2163680    -1.3783700     0.3701280
  H       -2.3586210     0.7219050     1.5961240
  H       -2.8840400    -0.6056810     0.5350110
  H       -3.5330900     1.0242430     0.2900250
  H       -0.9887950    -2.8960920    -0.2836830
units angstrom
no_reorient  #important for SAPT in psi4, default
symmetry c1  #important for SAPT in psi4, default
}

set PROPERTIES_ORIGIN ["COM"]
properties('MP2/aug-cc-pvtz', properties = ['dipole'])
--------------------------------------------------------------------------

    Molecular point group: c1
  Charge       = 0
  Multiplicity = 1
  Basis Set: AUG-CC-PVTZ
    Blend: AUG-CC-PVTZ
  Basis Set: (AUG-CC-PVTZ AUX)
    Blend: AUG-CC-PVTZ-JKFIT

    Orbital Energies [Eh]
    ---------------------

    Doubly Occupied:

       1A    -20.587033     2A    -15.553626     3A    -11.295203
       4A    -11.262971     5A    -11.240623     6A    -11.239526
       7A    -11.231677     8A    -11.230402     9A    -11.229365
      10A    -11.223838    11A     -1.396808    12A     -1.223590
      13A     -1.131024    14A     -1.040761    15A     -0.994000
      16A     -0.937760    17A     -0.900200    18A     -0.822511
      19A     -0.800957    20A     -0.706122    21A     -0.692889
      22A     -0.671551    23A     -0.617582    24A     -0.607670
      25A     -0.597792    26A     -0.587879    27A     -0.575585
      28A     -0.570103    29A     -0.559489    30A     -0.536282
      31A     -0.528260    32A     -0.505416    33A     -0.483962
      34A     -0.469810    35A     -0.412224    36A     -0.318014
      37A     -0.290871

  @DF-RHF Final Energy:  -438.79986781139201

   => Energetics <=

    Nuclear Repulsion Energy =            524.0472885948031490
    One-Electron Energy =               -1635.5475551735542012
    Two-Electron Energy =                 672.7003987673590473
    Total Energy =                       -438.7998678113920050
  Basis Set: (AUG-CC-PVTZ AUX)
    Blend: AUG-CC-PVTZ-RI
    Molecular point group: c1

    Geometry (in Angstrom), charge = 0, multiplicity = 1:

       Center              X                  Y                   Z               Mass
    ------------   -----------------  -----------------  -----------------  -----------------
         O           -1.283563470842    -1.922494513125    -0.280733369780    15.994914619570
         N           -1.605850470842     0.790480486875    -0.396389369780    14.003074004430
         C           -0.327428470842     0.252936486875    -0.141377369780    12.000000000000
         C            0.815792529158     1.071615486875    -0.033666369780    12.000000000000
         C           -0.149955370842    -1.148615013125    -0.152894669780    12.000000000000
         C            2.075437529158     0.488223486875     0.153939630220    12.000000000000
         C            0.680626529158     2.572141486875    -0.098482369780    12.000000000000
         C            1.097229529158    -1.711223513125     0.118164630220    12.000000000000
         C            2.222814529158    -0.893870513125     0.227240630220    12.000000000000
         C           -2.657178470842     0.495703486875     0.585956630220    12.000000000000
         H            2.949183529158     1.131452486875     0.236852630220     1.007825032230
         H           -1.538243470842     1.794617486875    -0.530307369780     1.007825032230
         H            0.330662529158     2.912199486875    -1.080716369780     1.007825032230
         H           -0.021822470842     2.949456486875     0.653741630220     1.007825032230
         H            1.647584529158     3.047251486875     0.084627630220     1.007825032230
         H            1.198169529158    -2.795875513125     0.155028630220     1.007825032230
         H            3.201966529158    -1.337345513125     0.388328630220     1.007825032230
         H           -2.373022470842     0.762929486875     1.614324630220     1.007825032230
         H           -2.898441470842    -0.564656513125     0.553211630220     1.007825032230
         H           -3.547491470842     1.065267486875     0.308225630220     1.007825032230
         H           -1.003196470842    -2.855067513125    -0.265482369780     1.007825032230

  Basis Set: AUG-CC-PVTZ
    Blend: AUG-CC-PVTZ
  Basis Set: (AUG-CC-PVTZ AUX)
    Blend: AUG-CC-PVTZ-JKFIT
	 Reference Energy          =    -438.7998678113920050 [Eh]
	 Singles Energy            =      -0.0000000000000000 [Eh]
	 Same-Spin Energy          =      -0.4737382100532941 [Eh]
	 Opposite-Spin Energy      =      -1.4973365736406401 [Eh]
	 Correlation Energy        =      -1.9710747836939342 [Eh]
	 Total Energy              =    -440.7709425950859554 [Eh]

	 ================> DF-SCS-MP2 Energies <==================
	-----------------------------------------------------------
	 SCS Same-Spin Scale       =       0.3333333333333333 [-]
	 SCS Opposite-Spin Scale   =       1.2000000000000000 [-]
	 SCS Same-Spin Energy      =      -0.1579127366844313 [Eh]
	 SCS Opposite-Spin Energy  =      -1.7968038883687680 [Eh]
	 SCS Correlation Energy    =      -1.9547166250531993 [Eh]
	 SCS Total Energy          =    -440.7545844364452137 [Eh]
	-----------------------------------------------------------

  Dipole Moment: [D]
     X:     0.1993      Y:     0.0925      Z:     0.7728     Total:     0.8035

*** Psi4 exiting successfully. Buy a developer a beer!
