                               Psi4 1.3.2 release

  ==> Input File <==

--------------------------------------------------------------------------
#psi4
#
memory 32 gb

molecule  {
0 1
  O       -1.2691620    -1.9635190    -0.2989340
  N       -1.5914490     0.7494560    -0.4145900
  C       -0.3130270     0.2119120    -0.1595780
  C        0.8301940     1.0305910    -0.0518670
  C       -0.1203457    -1.1932026    -0.2698678
  C        2.0898390     0.4471990     0.1357390
  C        0.6950280     2.5311170    -0.1166830
  C        1.1116310    -1.7522480     0.0999640
  C        2.2372160    -0.9348950     0.2090400
  C       -2.6427770     0.4546790     0.5677560
  H        2.9635850     1.0904280     0.2186520
  H       -1.5238420     1.7535930    -0.5485080
  H        0.3450640     2.8711750    -1.0989170
  H       -0.0074210     2.9084320     0.6355410
  H        1.6619860     3.0062270     0.0664270
  H        1.2125710    -2.8369000     0.1368280
  H        3.2163680    -1.3783700     0.3701280
  H       -2.3586210     0.7219050     1.5961240
  H       -2.8840400    -0.6056810     0.5350110
  H       -3.5330900     1.0242430     0.2900250
  H       -0.9887950    -2.8960920    -0.2836830
units angstrom
no_reorient  #important for SAPT in psi4, default
symmetry c1  #important for SAPT in psi4, default
}

set PROPERTIES_ORIGIN ["COM"]
properties('MP2/aug-cc-pvtz', properties = ['dipole'])
--------------------------------------------------------------------------

    Molecular point group: c1
  Charge       = 0
  Multiplicity = 1
  Basis Set: AUG-CC-PVTZ
    Blend: AUG-CC-PVTZ
  Basis Set: (AUG-CC-PVTZ AUX)
    Blend: AUG-CC-PVTZ-JKFIT

    Orbital Energies [Eh]
    ---------------------

    Doubly Occupied:

       1A    -20.585821     2A    -15.553396     3A    -11.296308
       4A    -11.264301     5A    -11.240779     6A    -11.239125
       7A    -11.232592     8A    -11.231098     9A    -11.229486
      10A    -11.224823    11A     -1.394153    12A     -1.223150
      13A     -1.130674    14A     -1.040483    15A     -0.992912
      16A     -0.937413    17A     -0.899327    18A     -0.820851
      19A     -0.800229    20A     -0.704481    21A     -0.691998
      22A     -0.671006    23A     -0.617445    24A     -0.607190
      25A     -0.596059    26A     -0.587633    27A     -0.575092
      28A     -0.569398    29A     -0.558410    30A     -0.535836
      31A     -0.528470    32A     -0.505972    33A     -0.482875
      34A     -0.468384    35A     -0.410349    36A     -0.317717
      37A     -0.291768

  @DF-RHF Final Energy:  -438.79216900580042

   => Energetics <=

    Nuclear Repulsion Energy =            523.6447832446957591
    One-Electron Energy =               -1634.7598989673174401
    Two-Electron Energy =                 672.3229467168214342
    Total Energy =                       -438.7921690058003605
  Basis Set: (AUG-CC-PVTZ AUX)
    Blend: AUG-CC-PVTZ-RI
    Molecular point group: c1

    Geometry (in Angstrom), charge = 0, multiplicity = 1:

       Center              X                  Y                   Z               Mass
    ------------   -----------------  -----------------  -----------------  -----------------
         O           -1.284894759066    -1.922182608161    -0.272087069360    15.994914619570
         N           -1.607181759066     0.790792391839    -0.387743069360    14.003074004430
         C           -0.328759759066     0.253248391839    -0.132731069360    12.000000000000
         C            0.814461240934     1.071927391839    -0.025020069360    12.000000000000
         C           -0.136078459066    -1.151866208161    -0.243020869360    12.000000000000
         C            2.074106240934     0.488535391839     0.162585930640    12.000000000000
         C            0.679295240934     2.572453391839    -0.089836069360    12.000000000000
         C            1.095898240934    -1.710911608161     0.126810930640    12.000000000000
         C            2.221483240934    -0.893558608161     0.235886930640    12.000000000000
         C           -2.658509759066     0.496015391839     0.594602930640    12.000000000000
         H            2.947852240934     1.131764391839     0.245498930640     1.007825032230
         H           -1.539574759066     1.794929391839    -0.521661069360     1.007825032230
         H            0.329331240934     2.912511391839    -1.072070069360     1.007825032230
         H           -0.023153759066     2.949768391839     0.662387930640     1.007825032230
         H            1.646253240934     3.047563391839     0.093273930640     1.007825032230
         H            1.196838240934    -2.795563608161     0.163674930640     1.007825032230
         H            3.200635240934    -1.337033608161     0.396974930640     1.007825032230
         H           -2.374353759066     0.763241391839     1.622970930640     1.007825032230
         H           -2.899772759066    -0.564344608161     0.561857930640     1.007825032230
         H           -3.548822759066     1.065579391839     0.316871930640     1.007825032230
         H           -1.004527759066    -2.854755608161    -0.256836069360     1.007825032230

  Basis Set: AUG-CC-PVTZ
    Blend: AUG-CC-PVTZ
  Basis Set: (AUG-CC-PVTZ AUX)
    Blend: AUG-CC-PVTZ-JKFIT
	 Reference Energy          =    -438.7921690058004174 [Eh]
	 Singles Energy            =      -0.0000000000000000 [Eh]
	 Same-Spin Energy          =      -0.4740274006362567 [Eh]
	 Opposite-Spin Energy      =      -1.4983170895568259 [Eh]
	 Correlation Energy        =      -1.9723444901930827 [Eh]
	 Total Energy              =    -440.7645134959935262 [Eh]

	 ================> DF-SCS-MP2 Energies <==================
	-----------------------------------------------------------
	 SCS Same-Spin Scale       =       0.3333333333333333 [-]
	 SCS Opposite-Spin Scale   =       1.2000000000000000 [-]
	 SCS Same-Spin Energy      =      -0.1580091335454189 [Eh]
	 SCS Opposite-Spin Energy  =      -1.7979805074681909 [Eh]
	 SCS Correlation Energy    =      -1.9559896410136099 [Eh]
	 SCS Total Energy          =    -440.7481586468140335 [Eh]
	-----------------------------------------------------------

  Dipole Moment: [D]
     X:     0.2547      Y:     0.1253      Z:     0.7681     Total:     0.8188

*** Psi4 exiting successfully. Buy a developer a beer!
