                               Psi4 1.3.2 release

  ==> Input File <==

--------------------------------------------------------------------------
#psi4
#
memory 32 gb

molecule  {
0 1
  O       -1.2691620    -1.9635190    -0.2989340
  N       -1.5914490     0.7494560    -0.4145900
  C       -0.3130270     0.2119120    -0.1595780
  C        0.8301940     1.0305910    -0.0518670
  C       -0.1431580    -1.1878580    -0.1217090
  C        2.0898390     0.4471990     0.1357390
  C        0.6950280     2.5311170    -0.1166830
  C        1.1282396    -1.7532311     0.0013578
  C        2.2372160    -0.9348950     0.2090400
  C       -2.6427770     0.4546790     0.5677560
  H        2.9635850     1.0904280     0.2186520
  H       -1.5238420     1.7535930    -0.5485080
  H        0.3450640     2.8711750    -1.0989170
  H       -0.0074210     2.9084320     0.6355410
  H        1.6619860     3.0062270     0.0664270
  H        1.2125710    -2.8369000     0.1368280
  H        3.2163680    -1.3783700     0.3701280
  H       -2.3586210     0.7219050     1.5961240
  H       -2.8840400    -0.6056810     0.5350110
  H       -3.5330900     1.0242430     0.2900250
  H       -0.9887950    -2.8960920    -0.2836830
units angstrom
no_reorient  #important for SAPT in psi4, default
symmetry c1  #important for SAPT in psi4, default
}

set PROPERTIES_ORIGIN ["COM"]
properties('MP2/aug-cc-pvtz', properties = ['dipole'])
--------------------------------------------------------------------------

    Molecular point group: c1
  Charge       = 0
  Multiplicity = 1
  Basis Set: AUG-CC-PVTZ
    Blend: AUG-CC-PVTZ
  Basis Set: (AUG-CC-PVTZ AUX)
    Blend: AUG-CC-PVTZ-JKFIT

    Orbital Energies [Eh]
    ---------------------

    Doubly Occupied:

       1A    -20.587014     2A    -15.554006     3A    -11.295283
       4A    -11.263011     5A    -11.240934     6A    -11.239876
       7A    -11.231832     8A    -11.230621     9A    -11.229542
      10A    -11.223827    11A     -1.396576    12A     -1.223986
      13A     -1.131230    14A     -1.040774    15A     -0.994280
      16A     -0.937620    17A     -0.900743    18A     -0.822708
      19A     -0.800976    20A     -0.705784    21A     -0.692885
      22A     -0.671567    23A     -0.616938    24A     -0.607797
      25A     -0.598725    26A     -0.587371    27A     -0.574058
      28A     -0.570754    29A     -0.560260    30A     -0.536763
      31A     -0.528239    32A     -0.505162    33A     -0.483721
      34A     -0.470462    35A     -0.412786    36A     -0.318215
      37A     -0.290375

  @DF-RHF Final Energy:  -438.79914387085131

   => Energetics <=

    Nuclear Repulsion Energy =            524.0614221549864169
    One-Electron Energy =               -1635.5677253316082442
    Two-Electron Energy =                 672.7071593057703467
    Total Energy =                       -438.7991438708513670
  Basis Set: (AUG-CC-PVTZ AUX)
    Blend: AUG-CC-PVTZ-RI
    Molecular point group: c1

    Geometry (in Angstrom), charge = 0, multiplicity = 1:

       Center              X                  Y                   Z               Mass
    ------------   -----------------  -----------------  -----------------  -----------------
         O           -1.284351702507    -1.922564403087    -0.276424781438    15.994914619570
         N           -1.606638702507     0.790410596913    -0.392080781438    14.003074004430
         C           -0.328216702507     0.252866596913    -0.137068781438    12.000000000000
         C            0.815004297493     1.071545596913    -0.029357781438    12.000000000000
         C           -0.158347702507    -1.146903403087    -0.099199781438    12.000000000000
         C            2.074649297493     0.488153596913     0.158248218562    12.000000000000
         C            0.679838297493     2.572071596913    -0.094173781438    12.000000000000
         C            1.113049897493    -1.712276503087     0.023867018562    12.000000000000
         C            2.222026297493    -0.893940403087     0.231549218562    12.000000000000
         C           -2.657966702507     0.495633596913     0.590265218562    12.000000000000
         H            2.948395297493     1.131382596913     0.241161218562     1.007825032230
         H           -1.539031702507     1.794547596913    -0.525998781438     1.007825032230
         H            0.329874297493     2.912129596913    -1.076407781438     1.007825032230
         H           -0.022610702507     2.949386596913     0.658050218562     1.007825032230
         H            1.646796297493     3.047181596913     0.088936218562     1.007825032230
         H            1.197381297493    -2.795945403087     0.159337218562     1.007825032230
         H            3.201178297493    -1.337415403087     0.392637218562     1.007825032230
         H           -2.373810702507     0.762859596913     1.618633218562     1.007825032230
         H           -2.899229702507    -0.564726403087     0.557520218562     1.007825032230
         H           -3.548279702507     1.065197596913     0.312534218562     1.007825032230
         H           -1.003984702507    -2.855137403087    -0.261173781438     1.007825032230

  Basis Set: AUG-CC-PVTZ
    Blend: AUG-CC-PVTZ
  Basis Set: (AUG-CC-PVTZ AUX)
    Blend: AUG-CC-PVTZ-JKFIT
	 Reference Energy          =    -438.7991438708513101 [Eh]
	 Singles Energy            =      -0.0000000000000000 [Eh]
	 Same-Spin Energy          =      -0.4738275426859070 [Eh]
	 Opposite-Spin Energy      =      -1.4974837398791685 [Eh]
	 Correlation Energy        =      -1.9713112825650754 [Eh]
	 Total Energy              =    -440.7704551534163784 [Eh]

	 ================> DF-SCS-MP2 Energies <==================
	-----------------------------------------------------------
	 SCS Same-Spin Scale       =       0.3333333333333333 [-]
	 SCS Opposite-Spin Scale   =       1.2000000000000000 [-]
	 SCS Same-Spin Energy      =      -0.1579425142286356 [Eh]
	 SCS Opposite-Spin Energy  =      -1.7969804878550022 [Eh]
	 SCS Correlation Energy    =      -1.9549230020836379 [Eh]
	 SCS Total Energy          =    -440.7540668729349704 [Eh]
	-----------------------------------------------------------

  Dipole Moment: [D]
     X:     0.1737      Y:     0.1216      Z:     0.8541     Total:     0.8801

*** Psi4 exiting successfully. Buy a developer a beer!
