                               Psi4 1.3.2 release

  ==> Input File <==

--------------------------------------------------------------------------
#psi4
#
memory 32 gb

molecule  {
0 1
  O       -1.2691620    -1.9635190    -0.2989340
  N       -1.5914490     0.7494560    -0.4145900
  C       -0.3130270     0.2119120    -0.1595780
  C        0.8301940     1.0305910    -0.0518670
  C       -0.1431580    -1.1878580    -0.1217090
  C        2.0898390     0.4471990     0.1357390
  C        0.6950280     2.5311170    -0.1166830
  C        1.1365438    -1.7537226    -0.0479454
  C        2.2372160    -0.9348950     0.2090400
  C       -2.6427770     0.4546790     0.5677560
  H        2.9635850     1.0904280     0.2186520
  H       -1.5238420     1.7535930    -0.5485080
  H        0.3450640     2.8711750    -1.0989170
  H       -0.0074210     2.9084320     0.6355410
  H        1.6619860     3.0062270     0.0664270
  H        1.2125710    -2.8369000     0.1368280
  H        3.2163680    -1.3783700     0.3701280
  H       -2.3586210     0.7219050     1.5961240
  H       -2.8840400    -0.6056810     0.5350110
  H       -3.5330900     1.0242430     0.2900250
  H       -0.9887950    -2.8960920    -0.2836830
units angstrom
no_reorient  #important for SAPT in psi4, default
symmetry c1  #important for SAPT in psi4, default
}

set PROPERTIES_ORIGIN ["COM"]
properties('MP2/aug-cc-pvtz', properties = ['dipole'])
--------------------------------------------------------------------------

    Molecular point group: c1
  Charge       = 0
  Multiplicity = 1
  Basis Set: AUG-CC-PVTZ
    Blend: AUG-CC-PVTZ
  Basis Set: (AUG-CC-PVTZ AUX)
    Blend: AUG-CC-PVTZ-JKFIT

    Orbital Energies [Eh]
    ---------------------

    Doubly Occupied:

       1A    -20.587226     2A    -15.554066     3A    -11.296160
       4A    -11.262966     5A    -11.241574     6A    -11.239940
       7A    -11.232566     8A    -11.231366     9A    -11.229824
      10A    -11.223799    11A     -1.396698    12A     -1.224085
      13A     -1.131092    14A     -1.040562    15A     -0.994287
      16A     -0.937422    17A     -0.900762    18A     -0.822719
      19A     -0.800573    20A     -0.705021    21A     -0.692801
      22A     -0.671242    23A     -0.616833    24A     -0.607839
      25A     -0.598968    26A     -0.586996    27A     -0.573804
      28A     -0.569839    29A     -0.560492    30A     -0.536825
      31A     -0.528353    32A     -0.505040    33A     -0.483166
      34A     -0.470277    35A     -0.412617    36A     -0.318413
      37A     -0.290192

  @DF-RHF Final Energy:  -438.79598298512127

   => Energetics <=

    Nuclear Repulsion Energy =            523.9372215423152284
    One-Electron Energy =               -1635.3135986092981966
    Two-Electron Energy =                 672.5803940818616411
    Total Energy =                       -438.7959829851213271
  Basis Set: (AUG-CC-PVTZ AUX)
    Blend: AUG-CC-PVTZ-RI
    Molecular point group: c1

    Geometry (in Angstrom), charge = 0, multiplicity = 1:

       Center              X                  Y                   Z               Mass
    ------------   -----------------  -----------------  -----------------  -----------------
         O           -1.285078631642    -1.922521378392    -0.272108901219    15.994914619570
         N           -1.607365631642     0.790453621608    -0.387764901219    14.003074004430
         C           -0.328943631642     0.252909621608    -0.132752901219    12.000000000000
         C            0.814277368358     1.071588621608    -0.025041901219    12.000000000000
         C           -0.159074631642    -1.146860378392    -0.094883901219    12.000000000000
         C            2.073922368358     0.488196621608     0.162564098781    12.000000000000
         C            0.679111368358     2.572114621608    -0.089857901219    12.000000000000
         C            1.120627168358    -1.712724978392    -0.021120301219    12.000000000000
         C            2.221299368358    -0.893897378392     0.235865098781    12.000000000000
         C           -2.658693631642     0.495676621608     0.594581098781    12.000000000000
         H            2.947668368358     1.131425621608     0.245477098781     1.007825032230
         H           -1.539758631642     1.794590621608    -0.521682901219     1.007825032230
         H            0.329147368358     2.912172621608    -1.072091901219     1.007825032230
         H           -0.023337631642     2.949429621608     0.662366098781     1.007825032230
         H            1.646069368358     3.047224621608     0.093252098781     1.007825032230
         H            1.196654368358    -2.795902378392     0.163653098781     1.007825032230
         H            3.200451368358    -1.337372378392     0.396953098781     1.007825032230
         H           -2.374537631642     0.762902621608     1.622949098781     1.007825032230
         H           -2.899956631642    -0.564683378392     0.561836098781     1.007825032230
         H           -3.549006631642     1.065240621608     0.316850098781     1.007825032230
         H           -1.004711631642    -2.855094378392    -0.256857901219     1.007825032230

  Basis Set: AUG-CC-PVTZ
    Blend: AUG-CC-PVTZ
  Basis Set: (AUG-CC-PVTZ AUX)
    Blend: AUG-CC-PVTZ-JKFIT
	 Reference Energy          =    -438.7959829851212703 [Eh]
	 Singles Energy            =      -0.0000000000000000 [Eh]
	 Same-Spin Energy          =      -0.4739916795215602 [Eh]
	 Opposite-Spin Energy      =      -1.4979267129852318 [Eh]
	 Correlation Energy        =      -1.9719183925067920 [Eh]
	 Total Energy              =    -440.7679013776280499 [Eh]

	 ================> DF-SCS-MP2 Energies <==================
	-----------------------------------------------------------
	 SCS Same-Spin Scale       =       0.3333333333333333 [-]
	 SCS Opposite-Spin Scale   =       1.2000000000000000 [-]
	 SCS Same-Spin Energy      =      -0.1579972265071867 [Eh]
	 SCS Opposite-Spin Energy  =      -1.7975120555822781 [Eh]
	 SCS Correlation Energy    =      -1.9555092820894648 [Eh]
	 SCS Total Energy          =    -440.7514922672107218 [Eh]
	-----------------------------------------------------------

  Dipole Moment: [D]
     X:     0.1601      Y:     0.1537      Z:     0.8914     Total:     0.9186

*** Psi4 exiting successfully. Buy a developer a beer!
