                               Psi4 1.3.2 release

  ==> Input File <==

--------------------------------------------------------------------------
#psi4
#
memory 32 gb

molecule  {
0 1
  O       -1.2691620    -1.9635190    -0.2989340
  N       -1.5914490     0.7494560    -0.4145900
  C       -0.3130270     0.2119120    -0.1595780
  C        0.8301940     1.0305910    -0.0518670
  C       -0.1431580    -1.1878580    -0.1217090
  C        2.0898390     0.4471990     0.1357390
  C        0.6950280     2.5311170    -0.1166830
  C        1.1199353    -1.7527395     0.0506609
  C        2.2372160    -0.9348950     0.2090400
  C       -2.6427770     0.4546790     0.5677560
  H        2.9635850     1.0904280     0.2186520
  H       -1.5238420     1.7535930    -0.5485080
  H        0.3450640     2.8711750    -1.0989170
  H       -0.0074210     2.9084320     0.6355410
  H        1.6619860     3.0062270     0.0664270
  H        1.2125710    -2.8369000     0.1368280
  H        3.2163680    -1.3783700     0.3701280
  H       -2.3586210     0.7219050     1.5961240
  H       -2.8840400    -0.6056810     0.5350110
  H       -3.5330900     1.0242430     0.2900250
  H       -0.9887950    -2.8960920    -0.2836830
units angstrom
no_reorient  #important for SAPT in psi4, default
symmetry c1  #important for SAPT in psi4, default
}

set PROPERTIES_ORIGIN ["COM"]
properties('MP2/aug-cc-pvtz', properties = ['dipole'])
--------------------------------------------------------------------------

    Molecular point group: c1
  Charge       = 0
  Multiplicity = 1
  Basis Set: AUG-CC-PVTZ
    Blend: AUG-CC-PVTZ
  Basis Set: (AUG-CC-PVTZ AUX)
    Blend: AUG-CC-PVTZ-JKFIT

    Orbital Energies [Eh]
    ---------------------

    Doubly Occupied:

       1A    -20.586917     2A    -15.553970     3A    -11.294847
       4A    -11.263052     5A    -11.240572     6A    -11.239836
       7A    -11.231493     8A    -11.230272     9A    -11.229386
      10A    -11.223851    11A     -1.396539    12A     -1.223926
      13A     -1.131240    14A     -1.040855    15A     -0.994271
      16A     -0.937752    17A     -0.900709    18A     -0.822730
      19A     -0.801149    20A     -0.706251    21A     -0.692951
      22A     -0.671677    23A     -0.617125    24A     -0.607811
      25A     -0.598445    26A     -0.587653    27A     -0.574830
      28A     -0.570720    29A     -0.560037    30A     -0.536610
      31A     -0.528196    32A     -0.505198    33A     -0.484122
      34A     -0.470429    35A     -0.412926    36A     -0.318102
      37A     -0.290490

  @DF-RHF Final Energy:  -438.80085105451747

   => Energetics <=

    Nuclear Repulsion Energy =            524.1276391560894581
    One-Electron Energy =               -1635.7031062143864801
    Two-Electron Energy =                 672.7746160037794425
    Total Energy =                       -438.8008510545174659
  Basis Set: (AUG-CC-PVTZ AUX)
    Blend: AUG-CC-PVTZ-RI
    Molecular point group: c1

    Geometry (in Angstrom), charge = 0, multiplicity = 1:

       Center              X                  Y                   Z               Mass
    ------------   -----------------  -----------------  -----------------  -----------------
         O           -1.283624764619    -1.922607436535    -0.280740652903    15.994914619570
         N           -1.605911764619     0.790367563465    -0.396396652903    14.003074004430
         C           -0.327489764619     0.252823563465    -0.141384652903    12.000000000000
         C            0.815731235381     1.071502563465    -0.033673652903    12.000000000000
         C           -0.157620764619    -1.146946436535    -0.103515652903    12.000000000000
         C            2.075376235381     0.488110563465     0.153932347097    12.000000000000
         C            0.680565235381     2.572028563465    -0.098489652903    12.000000000000
         C            1.105472535381    -1.711827936535     0.068854247097    12.000000000000
         C            2.222753235381    -0.893983436535     0.227233347097    12.000000000000
         C           -2.657239764619     0.495590563465     0.585949347097    12.000000000000
         H            2.949122235381     1.131339563465     0.236845347097     1.007825032230
         H           -1.538304764619     1.794504563465    -0.530314652903     1.007825032230
         H            0.330601235381     2.912086563465    -1.080723652903     1.007825032230
         H           -0.021883764619     2.949343563465     0.653734347097     1.007825032230
         H            1.647523235381     3.047138563465     0.084620347097     1.007825032230
         H            1.198108235381    -2.795988436535     0.155021347097     1.007825032230
         H            3.201905235381    -1.337458436535     0.388321347097     1.007825032230
         H           -2.373083764619     0.762816563465     1.614317347097     1.007825032230
         H           -2.898502764619    -0.564769436535     0.553204347097     1.007825032230
         H           -3.547552764619     1.065154563465     0.308218347097     1.007825032230
         H           -1.003257764619    -2.855180436535    -0.265489652903     1.007825032230

  Basis Set: AUG-CC-PVTZ
    Blend: AUG-CC-PVTZ
  Basis Set: (AUG-CC-PVTZ AUX)
    Blend: AUG-CC-PVTZ-JKFIT
	 Reference Energy          =    -438.8008510545174659 [Eh]
	 Singles Energy            =      -0.0000000000000000 [Eh]
	 Same-Spin Energy          =      -0.4737371311574143 [Eh]
	 Opposite-Spin Energy      =      -1.4972722348401004 [Eh]
	 Correlation Energy        =      -1.9710093659975148 [Eh]
	 Total Energy              =    -440.7718604205149973 [Eh]

	 ================> DF-SCS-MP2 Energies <==================
	-----------------------------------------------------------
	 SCS Same-Spin Scale       =       0.3333333333333333 [-]
	 SCS Opposite-Spin Scale   =       1.2000000000000000 [-]
	 SCS Same-Spin Energy      =      -0.1579123770524714 [Eh]
	 SCS Opposite-Spin Energy  =      -1.7967266818081205 [Eh]
	 SCS Correlation Energy    =      -1.9546390588605920 [Eh]
	 SCS Total Energy          =    -440.7554901133780731 [Eh]
	-----------------------------------------------------------

  Dipole Moment: [D]
     X:     0.1826      Y:     0.1029      Z:     0.8165     Total:     0.8430

*** Psi4 exiting successfully. Buy a developer a beer!
