                               Psi4 1.3.2 release

  ==> Input File <==

--------------------------------------------------------------------------
#psi4
#
memory 32 gb

molecule  {
0 1
  O       -1.2691620    -1.9635190    -0.2989340
  N       -1.5914490     0.7494560    -0.4145900
  C       -0.3130270     0.2119120    -0.1595780
  C        0.8301940     1.0305910    -0.0518670
  C       -0.1431580    -1.1878580    -0.1217090
  C        2.0898390     0.4471990     0.1357390
  C        0.6824888     2.5347335    -0.0175382
  C        1.1116310    -1.7522480     0.0999640
  C        2.2372160    -0.9348950     0.2090400
  C       -2.6427770     0.4546790     0.5677560
  H        2.9635850     1.0904280     0.2186520
  H       -1.5238420     1.7535930    -0.5485080
  H        0.3450640     2.8711750    -1.0989170
  H       -0.0074210     2.9084320     0.6355410
  H        1.6619860     3.0062270     0.0664270
  H        1.2125710    -2.8369000     0.1368280
  H        3.2163680    -1.3783700     0.3701280
  H       -2.3586210     0.7219050     1.5961240
  H       -2.8840400    -0.6056810     0.5350110
  H       -3.5330900     1.0242430     0.2900250
  H       -0.9887950    -2.8960920    -0.2836830
units angstrom
no_reorient  #important for SAPT in psi4, default
symmetry c1  #important for SAPT in psi4, default
}

set PROPERTIES_ORIGIN ["COM"]
properties('MP2/aug-cc-pvtz', properties = ['dipole'])
--------------------------------------------------------------------------

    Molecular point group: c1
  Charge       = 0
  Multiplicity = 1
  Basis Set: AUG-CC-PVTZ
    Blend: AUG-CC-PVTZ
  Basis Set: (AUG-CC-PVTZ AUX)
    Blend: AUG-CC-PVTZ-JKFIT

    Orbital Energies [Eh]
    ---------------------

    Doubly Occupied:

       1A    -20.587015     2A    -15.554072     3A    -11.294911
       4A    -11.263155     5A    -11.241429     6A    -11.240011
       7A    -11.231751     8A    -11.230915     9A    -11.230472
      10A    -11.224171    11A     -1.396665    12A     -1.224021
      13A     -1.131271    14A     -1.040913    15A     -0.994423
      16A     -0.938961    17A     -0.900831    18A     -0.823473
      19A     -0.801411    20A     -0.707514    21A     -0.693153
      22A     -0.671875    23A     -0.620828    24A     -0.607624
      25A     -0.600155    26A     -0.590042    27A     -0.583116
      28A     -0.565825    29A     -0.554688    30A     -0.531742
      31A     -0.530008    32A     -0.505043    33A     -0.485011
      34A     -0.467227    35A     -0.413245    36A     -0.317352
      37A     -0.290551

  @DF-RHF Final Energy:  -438.79115603121085

   => Energetics <=

    Nuclear Repulsion Energy =            524.1234193832616484
    One-Electron Energy =               -1635.6594108524707281
    Two-Electron Energy =                 672.7448354379980628
    Total Energy =                       -438.7911560312109032
  Basis Set: (AUG-CC-PVTZ AUX)
    Blend: AUG-CC-PVTZ-RI
    Molecular point group: c1

    Geometry (in Angstrom), charge = 0, multiplicity = 1:

       Center              X                  Y                   Z               Mass
    ------------   -----------------  -----------------  -----------------  -----------------
         O           -1.281800176168    -1.922967040698    -0.293735415009    15.994914619570
         N           -1.604087176168     0.790007959302    -0.409391415009    14.003074004430
         C           -0.325665176168     0.252463959302    -0.154379415009    12.000000000000
         C            0.817555823832     1.071142959302    -0.046668415009    12.000000000000
         C           -0.155796176168    -1.147306040698    -0.116510415009    12.000000000000
         C            2.077200823832     0.487750959302     0.140937584991    12.000000000000
         C            0.669850623832     2.575285459302    -0.012339615009    12.000000000000
         C            1.098992823832    -1.711696040698     0.105162584991    12.000000000000
         C            2.224577823832    -0.894343040698     0.214238584991    12.000000000000
         C           -2.655415176168     0.495230959302     0.572954584991    12.000000000000
         H            2.950946823832     1.130979959302     0.223850584991     1.007825032230
         H           -1.536480176168     1.794144959302    -0.543309415009     1.007825032230
         H            0.332425823832     2.911726959302    -1.093718415009     1.007825032230
         H           -0.020059176168     2.948983959302     0.640739584991     1.007825032230
         H            1.649347823832     3.046778959302     0.071625584991     1.007825032230
         H            1.199932823832    -2.796348040698     0.142026584991     1.007825032230
         H            3.203729823832    -1.337818040698     0.375326584991     1.007825032230
         H           -2.371259176168     0.762456959302     1.601322584991     1.007825032230
         H           -2.896678176168    -0.565129040698     0.540209584991     1.007825032230
         H           -3.545728176168     1.064794959302     0.295223584991     1.007825032230
         H           -1.001433176168    -2.855540040698    -0.278484415009     1.007825032230

  Basis Set: AUG-CC-PVTZ
    Blend: AUG-CC-PVTZ
  Basis Set: (AUG-CC-PVTZ AUX)
    Blend: AUG-CC-PVTZ-JKFIT
	 Reference Energy          =    -438.7911560312108463 [Eh]
	 Singles Energy            =      -0.0000000000000000 [Eh]
	 Same-Spin Energy          =      -0.4738367564910386 [Eh]
	 Opposite-Spin Energy      =      -1.4976127449588188 [Eh]
	 Correlation Energy        =      -1.9714495014498574 [Eh]
	 Total Energy              =    -440.7626055326607002 [Eh]

	 ================> DF-SCS-MP2 Energies <==================
	-----------------------------------------------------------
	 SCS Same-Spin Scale       =       0.3333333333333333 [-]
	 SCS Opposite-Spin Scale   =       1.2000000000000000 [-]
	 SCS Same-Spin Energy      =      -0.1579455854970129 [Eh]
	 SCS Opposite-Spin Energy  =      -1.7971352939505825 [Eh]
	 SCS Correlation Energy    =      -1.9550808794475953 [Eh]
	 SCS Total Energy          =    -440.7462369106584674 [Eh]
	-----------------------------------------------------------

  Dipole Moment: [D]
     X:     0.1895      Y:     0.0831      Z:     0.8388     Total:     0.8639

*** Psi4 exiting successfully. Buy a developer a beer!
