                               Psi4 1.3.2 release

  ==> Input File <==

--------------------------------------------------------------------------
#psi4
#
memory 32 gb

molecule  {
0 1
  O       -1.2691620    -1.9635190    -0.2989340
  N       -1.5914490     0.7494560    -0.4145900
  C       -0.3130270     0.2119120    -0.1595780
  C        0.8301940     1.0305910    -0.0518670
  C       -0.1431580    -1.1878580    -0.1217090
  C        2.0898390     0.4471990     0.1357390
  C        0.6699496     2.5383500     0.0816066
  C        1.1116310    -1.7522480     0.0999640
  C        2.2372160    -0.9348950     0.2090400
  C       -2.6427770     0.4546790     0.5677560
  H        2.9635850     1.0904280     0.2186520
  H       -1.5238420     1.7535930    -0.5485080
  H        0.3450640     2.8711750    -1.0989170
  H       -0.0074210     2.9084320     0.6355410
  H        1.6619860     3.0062270     0.0664270
  H        1.2125710    -2.8369000     0.1368280
  H        3.2163680    -1.3783700     0.3701280
  H       -2.3586210     0.7219050     1.5961240
  H       -2.8840400    -0.6056810     0.5350110
  H       -3.5330900     1.0242430     0.2900250
  H       -0.9887950    -2.8960920    -0.2836830
units angstrom
no_reorient  #important for SAPT in psi4, default
symmetry c1  #important for SAPT in psi4, default
}

set PROPERTIES_ORIGIN ["COM"]
properties('MP2/aug-cc-pvtz', properties = ['dipole'])
--------------------------------------------------------------------------

    Molecular point group: c1
  Charge       = 0
  Multiplicity = 1
  Basis Set: AUG-CC-PVTZ
    Blend: AUG-CC-PVTZ
  Basis Set: (AUG-CC-PVTZ AUX)
    Blend: AUG-CC-PVTZ-JKFIT

    Orbital Energies [Eh]
    ---------------------

    Doubly Occupied:

       1A    -20.587264     2A    -15.554182     3A    -11.295218
       4A    -11.263510     5A    -11.244018     6A    -11.240226
       7A    -11.235453     8A    -11.232278     9A    -11.230912
      10A    -11.224935    11A     -1.396913    12A     -1.224196
      13A     -1.131681    14A     -1.041253    15A     -0.994847
      16A     -0.942234    17A     -0.901197    18A     -0.825502
      19A     -0.802111    20A     -0.711061    21A     -0.693288
      22A     -0.672331    23A     -0.630932    24A     -0.611328
      25A     -0.602062    26A     -0.592487    27A     -0.584789
      28A     -0.564715    29A     -0.553978    30A     -0.531893
      31A     -0.516032    32A     -0.505104    33A     -0.487255
      34A     -0.458625    35A     -0.413529    36A     -0.315945
      37A     -0.290676

  @DF-RHF Final Energy:  -438.76167413592952

   => Energetics <=

    Nuclear Repulsion Energy =            524.0231292882002663
    One-Electron Energy =               -1635.3616881876007483
    Two-Electron Energy =                 672.5768847634710710
    Total Energy =                       -438.7616741359295247
  Basis Set: (AUG-CC-PVTZ AUX)
    Blend: AUG-CC-PVTZ-RI
    Molecular point group: c1

    Geometry (in Angstrom), charge = 0, multiplicity = 1:

       Center              X                  Y                   Z               Mass
    ------------   -----------------  -----------------  -----------------  -----------------
         O           -1.280702525605    -1.923283620165    -0.302414305651    15.994914619570
         N           -1.602989525605     0.789691379835    -0.418070305651    14.003074004430
         C           -0.324567525605     0.252147379835    -0.163058305651    12.000000000000
         C            0.818653474395     1.070826379835    -0.055347305651    12.000000000000
         C           -0.154698525605    -1.147622620165    -0.125189305651    12.000000000000
         C            2.078298474395     0.487434379835     0.132258694349    12.000000000000
         C            0.658409074395     2.578585379835     0.078126294349    12.000000000000
         C            1.100090474395    -1.712012620165     0.096483694349    12.000000000000
         C            2.225675474395    -0.894659620165     0.205559694349    12.000000000000
         C           -2.654317525605     0.494914379835     0.564275694349    12.000000000000
         H            2.952044474395     1.130663379835     0.215171694349     1.007825032230
         H           -1.535382525605     1.793828379835    -0.551988305651     1.007825032230
         H            0.333523474395     2.911410379835    -1.102397305651     1.007825032230
         H           -0.018961525605     2.948667379835     0.632060694349     1.007825032230
         H            1.650445474395     3.046462379835     0.062946694349     1.007825032230
         H            1.201030474395    -2.796664620165     0.133347694349     1.007825032230
         H            3.204827474395    -1.338134620165     0.366647694349     1.007825032230
         H           -2.370161525605     0.762140379835     1.592643694349     1.007825032230
         H           -2.895580525605    -0.565445620165     0.531530694349     1.007825032230
         H           -3.544630525605     1.064478379835     0.286544694349     1.007825032230
         H           -1.000335525605    -2.855856620165    -0.287163305651     1.007825032230

  Basis Set: AUG-CC-PVTZ
    Blend: AUG-CC-PVTZ
  Basis Set: (AUG-CC-PVTZ AUX)
    Blend: AUG-CC-PVTZ-JKFIT
	 Reference Energy          =    -438.7616741359295247 [Eh]
	 Singles Energy            =      -0.0000000000000000 [Eh]
	 Same-Spin Energy          =      -0.4742237132530370 [Eh]
	 Opposite-Spin Energy      =      -1.4988645119002810 [Eh]
	 Correlation Energy        =      -1.9730882251533179 [Eh]
	 Total Energy              =    -440.7347623610828578 [Eh]

	 ================> DF-SCS-MP2 Energies <==================
	-----------------------------------------------------------
	 SCS Same-Spin Scale       =       0.3333333333333333 [-]
	 SCS Opposite-Spin Scale   =       1.2000000000000000 [-]
	 SCS Same-Spin Energy      =      -0.1580745710843456 [Eh]
	 SCS Opposite-Spin Energy  =      -1.7986374142803372 [Eh]
	 SCS Correlation Energy    =      -1.9567119853646828 [Eh]
	 SCS Total Energy          =    -440.7183861212942020 [Eh]
	-----------------------------------------------------------

  Dipole Moment: [D]
     X:     0.2061      Y:     0.0381      Z:     0.8996     Total:     0.9237

*** Psi4 exiting successfully. Buy a developer a beer!
