                               Psi4 1.3.2 release

  ==> Input File <==

--------------------------------------------------------------------------
#psi4
#
memory 32 gb

molecule  {
0 1
  O       -1.2691620    -1.9635190    -0.2989340
  N       -1.5914490     0.7494560    -0.4145900
  C       -0.3130270     0.2119120    -0.1595780
  C        0.8301940     1.0305910    -0.0518670
  C       -0.1279498    -1.1914210    -0.2204815
  C        2.0898390     0.4471990     0.1357390
  C        0.6950280     2.5311170    -0.1166830
  C        1.1116310    -1.7522480     0.0999640
  C        2.2372160    -0.9348950     0.2090400
  C       -2.6427770     0.4546790     0.5677560
  H        2.9635850     1.0904280     0.2186520
  H       -1.5238420     1.7535930    -0.5485080
  H        0.3450640     2.8711750    -1.0989170
  H       -0.0074210     2.9084320     0.6355410
  H        1.6619860     3.0062270     0.0664270
  H        1.2125710    -2.8369000     0.1368280
  H        3.2163680    -1.3783700     0.3701280
  H       -2.3586210     0.7219050     1.5961240
  H       -2.8840400    -0.6056810     0.5350110
  H       -3.5330900     1.0242430     0.2900250
  H       -0.9887950    -2.8960920    -0.2836830
units angstrom
no_reorient  #important for SAPT in psi4, default
symmetry c1  #important for SAPT in psi4, default
}

set PROPERTIES_ORIGIN ["COM"]
properties('MP2/aug-cc-pvtz', properties = ['dipole'])
--------------------------------------------------------------------------

    Molecular point group: c1
  Charge       = 0
  Multiplicity = 1
  Basis Set: AUG-CC-PVTZ
    Blend: AUG-CC-PVTZ
  Basis Set: (AUG-CC-PVTZ AUX)
    Blend: AUG-CC-PVTZ-JKFIT

    Orbital Energies [Eh]
    ---------------------

    Doubly Occupied:

       1A    -20.586666     2A    -15.553440     3A    -11.295694
       4A    -11.263380     5A    -11.240719     6A    -11.239294
       7A    -11.231945     8A    -11.230742     9A    -11.229409
      10A    -11.224154    11A     -1.395996    12A     -1.223339
      13A     -1.130875    14A     -1.040652    15A     -0.993552
      16A     -0.937622    17A     -0.899756    18A     -0.821861
      19A     -0.800672    20A     -0.705463    21A     -0.692577
      22A     -0.671363    23A     -0.617609    24A     -0.607448
      25A     -0.597089    26A     -0.587791    27A     -0.575430
      28A     -0.569810    29A     -0.559029    30A     -0.536108
      31A     -0.528341    32A     -0.505691    33A     -0.483463
      34A     -0.469210    35A     -0.411327    36A     -0.317897
      37A     -0.291282

  @DF-RHF Final Energy:  -438.79688586301040

   => Energetics <=

    Nuclear Repulsion Energy =            523.8833888745328977
    One-Electron Energy =               -1635.2271614948674596
    Two-Electron Energy =                 672.5468867573242733
    Total Energy =                       -438.7968858630104023
  Basis Set: (AUG-CC-PVTZ AUX)
    Blend: AUG-CC-PVTZ-RI
    Molecular point group: c1

    Geometry (in Angstrom), charge = 0, multiplicity = 1:

       Center              X                  Y                   Z               Mass
    ------------   -----------------  -----------------  -----------------  -----------------
         O           -1.284229114954    -1.922338565020    -0.276410223947    15.994914619570
         N           -1.606516114954     0.790636434980    -0.392066223947    14.003074004430
         C           -0.328094114954     0.253092434980    -0.137054223947    12.000000000000
         C            0.815126885046     1.071771434980    -0.029343223947    12.000000000000
         C           -0.143016914954    -1.150240565020    -0.197957723947    12.000000000000
         C            2.074771885046     0.488379434980     0.158262776053    12.000000000000
         C            0.679960885046     2.572297434980    -0.094159223947    12.000000000000
         C            1.096563885046    -1.711067565020     0.122487776053    12.000000000000
         C            2.222148885046    -0.893714565020     0.231563776053    12.000000000000
         C           -2.657844114954     0.495859434980     0.590279776053    12.000000000000
         H            2.948517885046     1.131608434980     0.241175776053     1.007825032230
         H           -1.538909114954     1.794773434980    -0.525984223947     1.007825032230
         H            0.329996885046     2.912355434980    -1.076393223947     1.007825032230
         H           -0.022488114954     2.949612434980     0.658064776053     1.007825032230
         H            1.646918885046     3.047407434980     0.088950776053     1.007825032230
         H            1.197503885046    -2.795719565020     0.159351776053     1.007825032230
         H            3.201300885046    -1.337189565020     0.392651776053     1.007825032230
         H           -2.373688114954     0.763085434980     1.618647776053     1.007825032230
         H           -2.899107114954    -0.564500565020     0.557534776053     1.007825032230
         H           -3.548157114954     1.065423434980     0.312548776053     1.007825032230
         H           -1.003862114954    -2.854911565020    -0.261159223947     1.007825032230

  Basis Set: AUG-CC-PVTZ
    Blend: AUG-CC-PVTZ
  Basis Set: (AUG-CC-PVTZ AUX)
    Blend: AUG-CC-PVTZ-JKFIT
	 Reference Energy          =    -438.7968858630104023 [Eh]
	 Singles Energy            =      -0.0000000000000000 [Eh]
	 Same-Spin Energy          =      -0.4738402869719757 [Eh]
	 Opposite-Spin Energy      =      -1.4976953236199178 [Eh]
	 Correlation Energy        =      -1.9715356105918933 [Eh]
	 Total Energy              =    -440.7684214736023023 [Eh]

	 ================> DF-SCS-MP2 Energies <==================
	-----------------------------------------------------------
	 SCS Same-Spin Scale       =       0.3333333333333333 [-]
	 SCS Opposite-Spin Scale   =       1.2000000000000000 [-]
	 SCS Same-Spin Energy      =      -0.1579467623239919 [Eh]
	 SCS Opposite-Spin Energy  =      -1.7972343883439013 [Eh]
	 SCS Correlation Energy    =      -1.9551811506678931 [Eh]
	 SCS Total Energy          =    -440.7520670136782996 [Eh]
	-----------------------------------------------------------

  Dipole Moment: [D]
     X:     0.2221      Y:     0.1017      Z:     0.7692     Total:     0.8071

*** Psi4 exiting successfully. Buy a developer a beer!
