                               Psi4 1.3.2 release

  ==> Input File <==

--------------------------------------------------------------------------
#psi4
#
memory 32 gb

molecule  {
0 1
  O       -1.2691620    -1.9635190    -0.2989340
  N       -1.5914490     0.7494560    -0.4145900
  C       -0.3130270     0.2119120    -0.1595780
  C        0.8301940     1.0305910    -0.0518670
  C       -0.1431580    -1.1878580    -0.1217090
  C        2.0898390     0.4471990     0.1357390
  C        0.6950280     2.5311170    -0.1166830
  C        1.1531524    -1.7547057    -0.1465516
  C        2.2372160    -0.9348950     0.2090400
  C       -2.6427770     0.4546790     0.5677560
  H        2.9635850     1.0904280     0.2186520
  H       -1.5238420     1.7535930    -0.5485080
  H        0.3450640     2.8711750    -1.0989170
  H       -0.0074210     2.9084320     0.6355410
  H        1.6619860     3.0062270     0.0664270
  H        1.2125710    -2.8369000     0.1368280
  H        3.2163680    -1.3783700     0.3701280
  H       -2.3586210     0.7219050     1.5961240
  H       -2.8840400    -0.6056810     0.5350110
  H       -3.5330900     1.0242430     0.2900250
  H       -0.9887950    -2.8960920    -0.2836830
units angstrom
no_reorient  #important for SAPT in psi4, default
symmetry c1  #important for SAPT in psi4, default
}

set PROPERTIES_ORIGIN ["COM"]
properties('MP2/aug-cc-pvtz', properties = ['dipole'])
--------------------------------------------------------------------------

    Molecular point group: c1
  Charge       = 0
  Multiplicity = 1
  Basis Set: AUG-CC-PVTZ
    Blend: AUG-CC-PVTZ
  Basis Set: (AUG-CC-PVTZ AUX)
    Blend: AUG-CC-PVTZ-JKFIT

    Orbital Energies [Eh]
    ---------------------

    Doubly Occupied:

       1A    -20.587992     2A    -15.554271     3A    -11.299161
       4A    -11.262891     5A    -11.243699     6A    -11.240152
       7A    -11.235153     8A    -11.234002     9A    -11.230770
      10A    -11.223761    11A     -1.397192    12A     -1.224411
      13A     -1.130473    14A     -1.039743    15A     -0.994328
      16A     -0.936814    17A     -0.900786    18A     -0.822862
      19A     -0.799149    20A     -0.702930    21A     -0.692551
      22A     -0.669985    23A     -0.616931    24A     -0.608230
      25A     -0.599217    26A     -0.585965    27A     -0.574665
      28A     -0.565519    29A     -0.560954    30A     -0.536697
      31A     -0.528811    32A     -0.504447    33A     -0.481500
      34A     -0.469253    35A     -0.412190    36A     -0.319115
      37A     -0.289646

  @DF-RHF Final Energy:  -438.78520037735632

   => Energetics <=

    Nuclear Repulsion Energy =            523.5197537483335282
    One-Electron Energy =               -1634.4574786697353375
    Two-Electron Energy =                 672.1525245440453773
    Total Energy =                       -438.7852003773563183
  Basis Set: (AUG-CC-PVTZ AUX)
    Blend: AUG-CC-PVTZ-RI
    Molecular point group: c1

    Geometry (in Angstrom), charge = 0, multiplicity = 1:

       Center              X                  Y                   Z               Mass
    ------------   -----------------  -----------------  -----------------  -----------------
         O           -1.286532507419    -1.922435320249    -0.263477158290    15.994914619570
         N           -1.608819507419     0.790539679751    -0.379133158290    14.003074004430
         C           -0.330397507419     0.252995679751    -0.124121158290    12.000000000000
         C            0.812823492581     1.071674679751    -0.016410158290    12.000000000000
         C           -0.160528507419    -1.146774320249    -0.086252158290    12.000000000000
         C            2.072468492581     0.488282679751     0.171195841710    12.000000000000
         C            0.677657492581     2.572200679751    -0.081226158290    12.000000000000
         C            1.135781892581    -1.713622020249    -0.111094758290    12.000000000000
         C            2.219845492581    -0.893811320249     0.244496841710    12.000000000000
         C           -2.660147507419     0.495762679751     0.603212841710    12.000000000000
         H            2.946214492581     1.131511679751     0.254108841710     1.007825032230
         H           -1.541212507419     1.794676679751    -0.513051158290     1.007825032230
         H            0.327693492581     2.912258679751    -1.063460158290     1.007825032230
         H           -0.024791507419     2.949515679751     0.670997841710     1.007825032230
         H            1.644615492581     3.047310679751     0.101883841710     1.007825032230
         H            1.195200492581    -2.795816320249     0.172284841710     1.007825032230
         H            3.198997492581    -1.337286320249     0.405584841710     1.007825032230
         H           -2.375991507419     0.762988679751     1.631580841710     1.007825032230
         H           -2.901410507419    -0.564597320249     0.570467841710     1.007825032230
         H           -3.550460507419     1.065326679751     0.325481841710     1.007825032230
         H           -1.006165507419    -2.855008320249    -0.248226158290     1.007825032230

  Basis Set: AUG-CC-PVTZ
    Blend: AUG-CC-PVTZ
  Basis Set: (AUG-CC-PVTZ AUX)
    Blend: AUG-CC-PVTZ-JKFIT
	 Reference Energy          =    -438.7852003773563183 [Eh]
	 Singles Energy            =      -0.0000000000000000 [Eh]
	 Same-Spin Energy          =      -0.4745256204895330 [Eh]
	 Opposite-Spin Energy      =      -1.4995136009737293 [Eh]
	 Correlation Energy        =      -1.9740392214632623 [Eh]
	 Total Energy              =    -440.7592395988195904 [Eh]

	 ================> DF-SCS-MP2 Energies <==================
	-----------------------------------------------------------
	 SCS Same-Spin Scale       =       0.3333333333333333 [-]
	 SCS Opposite-Spin Scale   =       1.2000000000000000 [-]
	 SCS Same-Spin Energy      =      -0.1581752068298443 [Eh]
	 SCS Opposite-Spin Energy  =      -1.7994163211684751 [Eh]
	 SCS Correlation Energy    =      -1.9575915279983194 [Eh]
	 SCS Total Energy          =    -440.7427919053546361 [Eh]
	-----------------------------------------------------------

  Dipole Moment: [D]
     X:     0.1180      Y:     0.2568      Z:     0.9661     Total:     1.0066

*** Psi4 exiting successfully. Buy a developer a beer!
