                               Psi4 1.3.2 release

  ==> Input File <==

--------------------------------------------------------------------------
#psi4
#
memory 32 gb

molecule  {
-1 1
  O        1.5553730    -1.4489990    -0.0078940
  O       -2.4744110     1.3948030    -0.0154550
  O       -3.5371250    -0.6067510    -0.0268560
  N       -0.0146490     0.2143920     0.0158120
  C        2.3272120     0.8379530     0.0018960
  C        1.2455030    -0.2240550     0.0044360
  C       -1.1489000    -0.6463140     0.0180560
  C        3.7164760     0.2336920    -0.0114620
  C       -2.4261086     0.1868639     0.0369847
  H        2.1647820     1.4966320    -0.8622200
  H        2.1776990     1.4878210     0.8748480
  H       -1.1517560    -1.3070500    -0.8570610
  H       -1.1395970    -1.3178250     0.8849180
  H       -0.2830670     1.1965190     0.0239890
  H        3.8663740    -0.3931470     0.8680960
  H        3.8530680    -0.3842560    -0.8995260
  H        4.4669480     1.0276640    -0.0135300
units angstrom
no_reorient  #important for SAPT in psi4, default
symmetry c1  #important for SAPT in psi4, default
}

set PROPERTIES_ORIGIN ["COM"]
properties('MP2/aug-cc-pvtz', properties = ['dipole'])
--------------------------------------------------------------------------

    Molecular point group: c1
  Charge       = -1
  Multiplicity = 1
  Basis Set: AUG-CC-PVTZ
    Blend: AUG-CC-PVTZ
  Basis Set: (AUG-CC-PVTZ AUX)
    Blend: AUG-CC-PVTZ-JKFIT

    Orbital Energies [Eh]
    ---------------------

    Doubly Occupied:

       1A    -20.395229     2A    -20.341985     3A    -20.288165
       4A    -15.455173     5A    -11.231001     6A    -11.164377
       7A    -11.140318     8A    -11.126251     9A    -11.113882
      10A     -1.239387    11A     -1.208764    12A     -1.106856
      13A     -1.041230    14A     -0.955554    15A     -0.844609
      16A     -0.763069    17A     -0.666098    18A     -0.595957
      19A     -0.547998    20A     -0.538413    21A     -0.515134
      22A     -0.489731    23A     -0.480269    24A     -0.432921
      25A     -0.426172    26A     -0.420140    27A     -0.413232
      28A     -0.393751    29A     -0.383047    30A     -0.348333
      31A     -0.306133    32A     -0.262811    33A     -0.236662
      34A     -0.207301    35A     -0.196677

  @DF-RHF Final Energy:  -473.26363038690783

   => Energetics <=

    Nuclear Repulsion Energy =            433.8812288342167562
    One-Electron Energy =               -1519.7364598993378877
    Two-Electron Energy =                 612.5916006782133536
    Total Energy =                       -473.2636303869078347
  Basis Set: (AUG-CC-PVTZ AUX)
    Blend: AUG-CC-PVTZ-RI
    Molecular point group: c1

    Geometry (in Angstrom), charge = -1, multiplicity = 1:

       Center              X                  Y                   Z               Mass
    ------------   -----------------  -----------------  -----------------  -----------------
         O            1.654159640626    -1.440606315091    -0.008178405201    15.994914619570
         O           -2.375624359374     1.403195684909    -0.015739405201    15.994914619570
         O           -3.438338359374    -0.598358315091    -0.027140405201    15.994914619570
         N            0.084137640626     0.222784684909     0.015527594799    14.003074004430
         C            2.425998640626     0.846345684909     0.001611594799    12.000000000000
         C            1.344289640626    -0.215662315091     0.004151594799    12.000000000000
         C           -1.050113359374    -0.637921315091     0.017771594799    12.000000000000
         C            3.815262640626     0.242084684909    -0.011746405201    12.000000000000
         C           -2.327321959374     0.195256584909     0.036700294799    12.000000000000
         H            2.263568640626     1.505024684909    -0.862504405201     1.007825032230
         H            2.276485640626     1.496213684909     0.874563594799     1.007825032230
         H           -1.052969359374    -1.298657315091    -0.857345405201     1.007825032230
         H           -1.040810359374    -1.309432315091     0.884633594799     1.007825032230
         H           -0.184280359374     1.204911684909     0.023704594799     1.007825032230
         H            3.965160640626    -0.384754315091     0.867811594799     1.007825032230
         H            3.951854640626    -0.375863315091    -0.899810405201     1.007825032230
         H            4.565734640626     1.036056684909    -0.013814405201     1.007825032230

  Basis Set: AUG-CC-PVTZ
    Blend: AUG-CC-PVTZ
  Basis Set: (AUG-CC-PVTZ AUX)
    Blend: AUG-CC-PVTZ-JKFIT
	 Reference Energy          =    -473.2636303869078347 [Eh]
	 Singles Energy            =      -0.0000000000000000 [Eh]
	 Same-Spin Energy          =      -0.4769553022742650 [Eh]
	 Opposite-Spin Energy      =      -1.4673570563792304 [Eh]
	 Correlation Energy        =      -1.9443123586534954 [Eh]
	 Total Energy              =    -475.2079427455613541 [Eh]

	 ================> DF-SCS-MP2 Energies <==================
	-----------------------------------------------------------
	 SCS Same-Spin Scale       =       0.3333333333333333 [-]
	 SCS Opposite-Spin Scale   =       1.2000000000000000 [-]
	 SCS Same-Spin Energy      =      -0.1589851007580883 [Eh]
	 SCS Opposite-Spin Energy  =      -1.7608284676550765 [Eh]
	 SCS Correlation Energy    =      -1.9198135684131648 [Eh]
	 SCS Total Energy          =    -475.1834439553210245 [Eh]
	-----------------------------------------------------------

  Dipole Moment: [D]
     X:    10.6987      Y:     2.2232      Z:     0.1423     Total:    10.9281

*** Psi4 exiting successfully. Buy a developer a beer!
