                               Psi4 1.3.2 release

  ==> Input File <==

--------------------------------------------------------------------------
#psi4
#
memory 32 gb

molecule  {
-1 1
  O        1.5979341    -1.4374351    -0.0082232
  O       -2.4744110     1.3948030    -0.0154550
  O       -3.5371250    -0.6067510    -0.0268560
  N       -0.0146490     0.2143920     0.0158120
  C        2.3636131     0.7995570     0.0012480
  C        1.2455030    -0.2240550     0.0044360
  C       -1.1489000    -0.6463140     0.0180560
  C        3.7164760     0.2336920    -0.0114620
  C       -2.5073920     0.1288020     0.0323140
  H        2.1647820     1.4966320    -0.8622200
  H        2.1776990     1.4878210     0.8748480
  H       -1.1517560    -1.3070500    -0.8570610
  H       -1.1395970    -1.3178250     0.8849180
  H       -0.2830670     1.1965190     0.0239890
  H        3.8663740    -0.3931470     0.8680960
  H        3.8530680    -0.3842560    -0.8995260
  H        4.4669480     1.0276640    -0.0135300
units angstrom
no_reorient  #important for SAPT in psi4, default
symmetry c1  #important for SAPT in psi4, default
}

set PROPERTIES_ORIGIN ["COM"]
properties('MP2/aug-cc-pvtz', properties = ['dipole'])
--------------------------------------------------------------------------

    Molecular point group: c1
  Charge       = -1
  Multiplicity = 1
  Basis Set: AUG-CC-PVTZ
    Blend: AUG-CC-PVTZ
  Basis Set: (AUG-CC-PVTZ AUX)
    Blend: AUG-CC-PVTZ-JKFIT

    Orbital Energies [Eh]
    ---------------------

    Doubly Occupied:

       1A    -20.391030     2A    -20.323590     3A    -20.311857
       4A    -15.453756     5A    -11.228036     6A    -11.165999
       7A    -11.138613     8A    -11.120713     9A    -11.110785
      10A     -1.235405    11A     -1.188116    12A     -1.104849
      13A     -1.083545    14A     -0.958071    15A     -0.837979
      16A     -0.755929    17A     -0.660740    18A     -0.588460
      19A     -0.547419    20A     -0.532172    21A     -0.508293
      22A     -0.485374    23A     -0.477555    24A     -0.439363
      25A     -0.426435    26A     -0.413197    27A     -0.410294
      28A     -0.397403    29A     -0.372002    30A     -0.344528
      31A     -0.300801    32A     -0.259491    33A     -0.236424
      34A     -0.225964    35A     -0.214210

  @DF-RHF Final Energy:  -473.27651057355575

   => Energetics <=

    Nuclear Repulsion Energy =            433.5268815678833789
    One-Electron Energy =               -1519.1099823514246054
    Two-Electron Energy =                 612.3065902099856430
    Total Energy =                       -473.2765105735556972
  Basis Set: (AUG-CC-PVTZ AUX)
    Blend: AUG-CC-PVTZ-RI
    Molecular point group: c1

    Geometry (in Angstrom), charge = -1, multiplicity = 1:

       Center              X                  Y                   Z               Mass
    ------------   -----------------  -----------------  -----------------  -----------------
         O            1.695627521837    -1.421564306056    -0.007976350271    15.994914619570
         O           -2.376717578163     1.410673793944    -0.015208150271    15.994914619570
         O           -3.439431578163    -0.590880206056    -0.026609150271    15.994914619570
         N            0.083044421837     0.230262793944     0.016058849729    14.003074004430
         C            2.461306521837     0.815427793944     0.001494849729    12.000000000000
         C            1.343196421837    -0.208184206056     0.004682849729    12.000000000000
         C           -1.051206578163    -0.630443206056     0.018302849729    12.000000000000
         C            3.814169421837     0.249562793944    -0.011215150271    12.000000000000
         C           -2.409698578163     0.144672793944     0.032560849729    12.000000000000
         H            2.262475421837     1.512502793944    -0.861973150271     1.007825032230
         H            2.275392421837     1.503691793944     0.875094849729     1.007825032230
         H           -1.054062578163    -1.291179206056    -0.856814150271     1.007825032230
         H           -1.041903578163    -1.301954206056     0.885164849729     1.007825032230
         H           -0.185373578163     1.212389793944     0.024235849729     1.007825032230
         H            3.964067421837    -0.377276206056     0.868342849729     1.007825032230
         H            3.950761421837    -0.368385206056    -0.899279150271     1.007825032230
         H            4.564641421837     1.043534793944    -0.013283150271     1.007825032230

  Basis Set: AUG-CC-PVTZ
    Blend: AUG-CC-PVTZ
  Basis Set: (AUG-CC-PVTZ AUX)
    Blend: AUG-CC-PVTZ-JKFIT
	 Reference Energy          =    -473.2765105735557540 [Eh]
	 Singles Energy            =      -0.0000000000000000 [Eh]
	 Same-Spin Energy          =      -0.4765585241127623 [Eh]
	 Opposite-Spin Energy      =      -1.4658255259326096 [Eh]
	 Correlation Energy        =      -1.9423840500453720 [Eh]
	 Total Energy              =    -475.2188946236011020 [Eh]

	 ================> DF-SCS-MP2 Energies <==================
	-----------------------------------------------------------
	 SCS Same-Spin Scale       =       0.3333333333333333 [-]
	 SCS Opposite-Spin Scale   =       1.2000000000000000 [-]
	 SCS Same-Spin Energy      =      -0.1588528413709208 [Eh]
	 SCS Opposite-Spin Energy  =      -1.7589906311191315 [Eh]
	 SCS Correlation Energy    =      -1.9178434724900522 [Eh]
	 SCS Total Energy          =    -475.1943540460458166 [Eh]
	-----------------------------------------------------------

  Dipole Moment: [D]
     X:     9.8153      Y:     1.4922      Z:     0.1362     Total:     9.9290

*** Psi4 exiting successfully. Buy a developer a beer!
