                               Psi4 1.3.2 release

  ==> Input File <==

--------------------------------------------------------------------------
#psi4
#
memory 32 gb

molecule  {
-1 1
  O        1.5553730    -1.4489990    -0.0078940
  O       -2.4083954     1.3915637    -0.0096472
  O       -3.4975132    -0.6596594    -0.0213339
  N       -0.0146490     0.2143920     0.0158120
  C        2.3272120     0.8379530     0.0018960
  C        1.2455030    -0.2240550     0.0044360
  C       -1.1489000    -0.6463140     0.0180560
  C        3.7164760     0.2336920    -0.0114620
  C       -2.5073920     0.1288020     0.0323140
  H        2.1647820     1.4966320    -0.8622200
  H        2.1776990     1.4878210     0.8748480
  H       -1.1517560    -1.3070500    -0.8570610
  H       -1.1395970    -1.3178250     0.8849180
  H       -0.2830670     1.1965190     0.0239890
  H        3.8663740    -0.3931470     0.8680960
  H        3.8530680    -0.3842560    -0.8995260
  H        4.4669480     1.0276640    -0.0135300
units angstrom
no_reorient  #important for SAPT in psi4, default
symmetry c1  #important for SAPT in psi4, default
}

set PROPERTIES_ORIGIN ["COM"]
properties('MP2/aug-cc-pvtz', properties = ['dipole'])
--------------------------------------------------------------------------

    Molecular point group: c1
  Charge       = -1
  Multiplicity = 1
  Basis Set: AUG-CC-PVTZ
    Blend: AUG-CC-PVTZ
  Basis Set: (AUG-CC-PVTZ AUX)
    Blend: AUG-CC-PVTZ-JKFIT

    Orbital Energies [Eh]
    ---------------------

    Doubly Occupied:

       1A    -20.387973     2A    -20.328590     3A    -20.316864
       4A    -15.446280     5A    -11.223878     6A    -11.168194
       7A    -11.135209     8A    -11.122287     9A    -11.101115
      10A     -1.231779    11A     -1.188782    12A     -1.101490
      13A     -1.089961    14A     -0.950129    15A     -0.831635
      16A     -0.755265    17A     -0.656234    18A     -0.587099
      19A     -0.543746    20A     -0.532819    21A     -0.505791
      22A     -0.480640    23A     -0.474195    24A     -0.426862
      25A     -0.423562    26A     -0.415314    27A     -0.413904
      28A     -0.396471    29A     -0.379093    30A     -0.343669
      31A     -0.300478    32A     -0.254713    33A     -0.244371
      34A     -0.221163    35A     -0.219845

  @DF-RHF Final Energy:  -473.28167776676173

   => Energetics <=

    Nuclear Repulsion Energy =            434.3059276204924686
    One-Electron Energy =               -1520.7764107749703726
    Two-Electron Energy =                 613.1888053877162292
    Total Energy =                       -473.2816777667617316
  Basis Set: (AUG-CC-PVTZ AUX)
    Blend: AUG-CC-PVTZ-RI
    Molecular point group: c1

    Geometry (in Angstrom), charge = -1, multiplicity = 1:

       Center              X                  Y                   Z               Mass
    ------------   -----------------  -----------------  -----------------  -----------------
         O            1.648668689848    -1.428343221357    -0.009140896403    15.994914619570
         O           -2.315099710152     1.412219478643    -0.010894096403    15.994914619570
         O           -3.404217510152    -0.639003621357    -0.022580796403    15.994914619570
         N            0.078646689848     0.235047778643     0.014565103597    14.003074004430
         C            2.420507689848     0.858608778643     0.000649103597    12.000000000000
         C            1.338798689848    -0.203399221357     0.003189103597    12.000000000000
         C           -1.055604310152    -0.625658221357     0.016809103597    12.000000000000
         C            3.809771689848     0.254347778643    -0.012708896403    12.000000000000
         C           -2.414096310152     0.149457778643     0.031067103597    12.000000000000
         H            2.258077689848     1.517287778643    -0.863466896403     1.007825032230
         H            2.270994689848     1.508476778643     0.873601103597     1.007825032230
         H           -1.058460310152    -1.286394221357    -0.858307896403     1.007825032230
         H           -1.046301310152    -1.297169221357     0.883671103597     1.007825032230
         H           -0.189771310152     1.217174778643     0.022742103597     1.007825032230
         H            3.959669689848    -0.372491221357     0.866849103597     1.007825032230
         H            3.946363689848    -0.363600221357    -0.900772896403     1.007825032230
         H            4.560243689848     1.048319778643    -0.014776896403     1.007825032230

  Basis Set: AUG-CC-PVTZ
    Blend: AUG-CC-PVTZ
  Basis Set: (AUG-CC-PVTZ AUX)
    Blend: AUG-CC-PVTZ-JKFIT
	 Reference Energy          =    -473.2816777667617316 [Eh]
	 Singles Energy            =      -0.0000000000000000 [Eh]
	 Same-Spin Energy          =      -0.4764924409530367 [Eh]
	 Opposite-Spin Energy      =      -1.4657871716059412 [Eh]
	 Correlation Energy        =      -1.9422796125589779 [Eh]
	 Total Energy              =    -475.2239573793207228 [Eh]

	 ================> DF-SCS-MP2 Energies <==================
	-----------------------------------------------------------
	 SCS Same-Spin Scale       =       0.3333333333333333 [-]
	 SCS Opposite-Spin Scale   =       1.2000000000000000 [-]
	 SCS Same-Spin Energy      =      -0.1588308136510122 [Eh]
	 SCS Opposite-Spin Energy  =      -1.7589446059271294 [Eh]
	 SCS Correlation Energy    =      -1.9177754195781416 [Eh]
	 SCS Total Energy          =    -475.1994531863398947 [Eh]
	-----------------------------------------------------------

  Dipole Moment: [D]
     X:     9.4869      Y:     1.7272      Z:     0.1177     Total:     9.6436

*** Psi4 exiting successfully. Buy a developer a beer!
