                               Psi4 1.3.2 release

  ==> Input File <==

--------------------------------------------------------------------------
#psi4
#
memory 32 gb

molecule  {
-1 1
  O        1.5553730    -1.4489990    -0.0078940
  O       -2.4744110     1.3948030    -0.0154550
  O       -3.5371250    -0.6067510    -0.0268560
  N       -0.0146490     0.2143920     0.0158120
  C        2.3272120     0.8379530     0.0018960
  C        1.2667254    -0.1575017     0.0047231
  C       -1.1489000    -0.6463140     0.0180560
  C        3.7164760     0.2336920    -0.0114620
  C       -2.5073920     0.1288020     0.0323140
  H        2.1647820     1.4966320    -0.8622200
  H        2.1776990     1.4878210     0.8748480
  H       -1.1517560    -1.3070500    -0.8570610
  H       -1.1395970    -1.3178250     0.8849180
  H       -0.2312981     1.2092232     0.0237205
  H        3.8663740    -0.3931470     0.8680960
  H        3.8530680    -0.3842560    -0.8995260
  H        4.4669480     1.0276640    -0.0135300
units angstrom
no_reorient  #important for SAPT in psi4, default
symmetry c1  #important for SAPT in psi4, default
}

set PROPERTIES_ORIGIN ["COM"]
properties('MP2/aug-cc-pvtz', properties = ['dipole'])
--------------------------------------------------------------------------

    Molecular point group: c1
  Charge       = -1
  Multiplicity = 1
  Basis Set: AUG-CC-PVTZ
    Blend: AUG-CC-PVTZ
  Basis Set: (AUG-CC-PVTZ AUX)
    Blend: AUG-CC-PVTZ-JKFIT

    Orbital Energies [Eh]
    ---------------------

    Doubly Occupied:

       1A    -20.382361     2A    -20.321590     3A    -20.311071
       4A    -15.457720     5A    -11.229515     6A    -11.165073
       7A    -11.141362     8A    -11.127215     9A    -11.111856
      10A     -1.209113    11A     -1.185174    12A     -1.094971
      13A     -1.081383    14A     -0.964525    15A     -0.843434
      16A     -0.769020    17A     -0.654384    18A     -0.593388
      19A     -0.549937    20A     -0.541596    21A     -0.505803
      22A     -0.483776    23A     -0.464126    24A     -0.433719
      25A     -0.426095    26A     -0.419657    27A     -0.408695
      28A     -0.395466    29A     -0.372825    30A     -0.337087
      31A     -0.299036    32A     -0.254391    33A     -0.234379
      34A     -0.225456    35A     -0.212892

  @DF-RHF Final Energy:  -473.26740258092593

   => Energetics <=

    Nuclear Repulsion Energy =            433.0173800136535078
    One-Electron Energy =               -1518.1533749231209640
    Two-Electron Energy =                 611.8685923285414674
    Total Energy =                       -473.2674025809259319
  Basis Set: (AUG-CC-PVTZ AUX)
    Blend: AUG-CC-PVTZ-RI
    Molecular point group: c1

    Geometry (in Angstrom), charge = -1, multiplicity = 1:

       Center              X                  Y                   Z               Mass
    ------------   -----------------  -----------------  -----------------  -----------------
         O            1.659300400774    -1.441488283888    -0.007771841333    15.994914619570
         O           -2.370483599226     1.402313716112    -0.015332841333    15.994914619570
         O           -3.433197599226    -0.599240283888    -0.026733841333    15.994914619570
         N            0.089278400774     0.221902716112     0.015934158667    14.003074004430
         C            2.431139400774     0.845463716112     0.002018158667    12.000000000000
         C            1.370652800774    -0.149990983888     0.004845258667    12.000000000000
         C           -1.044972599226    -0.638803283888     0.018178158667    12.000000000000
         C            3.820403400774     0.241202716112    -0.011339841333    12.000000000000
         C           -2.403464599226     0.136312716112     0.032436158667    12.000000000000
         H            2.268709400774     1.504142716112    -0.862097841333     1.007825032230
         H            2.281626400774     1.495331716112     0.874970158667     1.007825032230
         H           -1.047828599226    -1.299539283888    -0.856938841333     1.007825032230
         H           -1.035669599226    -1.310314283888     0.885040158667     1.007825032230
         H           -0.127370699226     1.216733916112     0.023842658667     1.007825032230
         H            3.970301400774    -0.385636283888     0.868218158667     1.007825032230
         H            3.956995400774    -0.376745283888    -0.899403841333     1.007825032230
         H            4.570875400774     1.035174716112    -0.013407841333     1.007825032230

  Basis Set: AUG-CC-PVTZ
    Blend: AUG-CC-PVTZ
  Basis Set: (AUG-CC-PVTZ AUX)
    Blend: AUG-CC-PVTZ-JKFIT
	 Reference Energy          =    -473.2674025809259319 [Eh]
	 Singles Energy            =      -0.0000000000000000 [Eh]
	 Same-Spin Energy          =      -0.4776012896375052 [Eh]
	 Opposite-Spin Energy      =      -1.4683419175176486 [Eh]
	 Correlation Energy        =      -1.9459432071551539 [Eh]
	 Total Energy              =    -475.2133457880810852 [Eh]

	 ================> DF-SCS-MP2 Energies <==================
	-----------------------------------------------------------
	 SCS Same-Spin Scale       =       0.3333333333333333 [-]
	 SCS Opposite-Spin Scale   =       1.2000000000000000 [-]
	 SCS Same-Spin Energy      =      -0.1592004298791684 [Eh]
	 SCS Opposite-Spin Energy  =      -1.7620103010211783 [Eh]
	 SCS Correlation Energy    =      -1.9212107309003468 [Eh]
	 SCS Total Energy          =    -475.1886133118262592 [Eh]
	-----------------------------------------------------------

  Dipole Moment: [D]
     X:     9.9748      Y:     1.9121      Z:     0.1387     Total:    10.1573

*** Psi4 exiting successfully. Buy a developer a beer!
