                               Psi4 1.3.2 release

  ==> Input File <==

--------------------------------------------------------------------------
#psi4
#
memory 32 gb

molecule  {
-1 1
  O        1.5553730    -1.4489990    -0.0078940
  O       -2.4744110     1.3948030    -0.0154550
  O       -3.5743120    -0.5518756    -0.0246856
  N       -0.0146490     0.2143920     0.0158120
  C        2.3272120     0.8379530     0.0018960
  C        1.2455030    -0.2240550     0.0044360
  C       -1.1102204    -0.5742814     0.0226271
  C        3.7164760     0.2336920    -0.0114620
  C       -2.5073920     0.1288020     0.0323140
  H        2.1647820     1.4966320    -0.8622200
  H        2.1776990     1.4878210     0.8748480
  H       -1.1517560    -1.3070500    -0.8570610
  H       -1.1395970    -1.3178250     0.8849180
  H       -0.2830670     1.1965190     0.0239890
  H        3.8663740    -0.3931470     0.8680960
  H        3.8530680    -0.3842560    -0.8995260
  H        4.4669480     1.0276640    -0.0135300
units angstrom
no_reorient  #important for SAPT in psi4, default
symmetry c1  #important for SAPT in psi4, default
}

set PROPERTIES_ORIGIN ["COM"]
properties('MP2/aug-cc-pvtz', properties = ['dipole'])
--------------------------------------------------------------------------

    Molecular point group: c1
  Charge       = -1
  Multiplicity = 1
  Basis Set: AUG-CC-PVTZ
    Blend: AUG-CC-PVTZ
  Basis Set: (AUG-CC-PVTZ AUX)
    Blend: AUG-CC-PVTZ-JKFIT

    Orbital Energies [Eh]
    ---------------------

    Doubly Occupied:

       1A    -20.396634     2A    -20.316639     3A    -20.309654
       4A    -15.455633     5A    -11.232692     6A    -11.163611
       7A    -11.140809     8A    -11.126420     9A    -11.114157
      10A     -1.242288    11A     -1.186960    12A     -1.121738
      13A     -1.076670    14A     -0.956834    15A     -0.841995
      16A     -0.758043    17A     -0.668487    18A     -0.599685
      19A     -0.556677    20A     -0.539007    21A     -0.505562
      22A     -0.484474    23A     -0.478889    24A     -0.429471
      25A     -0.423571    26A     -0.415550    27A     -0.415356
      28A     -0.392976    29A     -0.380631    30A     -0.340261
      31A     -0.308097    32A     -0.251042    33A     -0.230283
      34A     -0.224724    35A     -0.209562

  @DF-RHF Final Energy:  -473.26657565459220

   => Energetics <=

    Nuclear Repulsion Energy =            434.2468617304675149
    One-Electron Energy =               -1520.4367055851773785
    Two-Electron Energy =                 612.9232682001176045
    Total Energy =                       -473.2665756545922022
  Basis Set: (AUG-CC-PVTZ AUX)
    Blend: AUG-CC-PVTZ-RI
    Molecular point group: c1

    Geometry (in Angstrom), charge = -1, multiplicity = 1:

       Center              X                  Y                   Z               Mass
    ------------   -----------------  -----------------  -----------------  -----------------
         O            1.662664407515    -1.448644549438    -0.008436152644    15.994914619570
         O           -2.367119592485     1.395157450562    -0.015997152644    15.994914619570
         O           -3.467020592485    -0.551521149438    -0.025227752644    15.994914619570
         N            0.092642407515     0.214746450562     0.015269847356    14.003074004430
         C            2.434503407515     0.838307450562     0.001353847356    12.000000000000
         C            1.352794407515    -0.223700549438     0.003893847356    12.000000000000
         C           -1.002928992485    -0.573926949438     0.022084947356    12.000000000000
         C            3.823767407515     0.234046450562    -0.012004152644    12.000000000000
         C           -2.400100592485     0.129156450562     0.031771847356    12.000000000000
         H            2.272073407515     1.496986450562    -0.862762152644     1.007825032230
         H            2.284990407515     1.488175450562     0.874305847356     1.007825032230
         H           -1.044464592485    -1.306695549438    -0.857603152644     1.007825032230
         H           -1.032305592485    -1.317470549438     0.884375847356     1.007825032230
         H           -0.175775592485     1.196873450562     0.023446847356     1.007825032230
         H            3.973665407515    -0.392792549438     0.867553847356     1.007825032230
         H            3.960359407515    -0.383901549438    -0.900068152644     1.007825032230
         H            4.574239407515     1.028018450562    -0.014072152644     1.007825032230

  Basis Set: AUG-CC-PVTZ
    Blend: AUG-CC-PVTZ
  Basis Set: (AUG-CC-PVTZ AUX)
    Blend: AUG-CC-PVTZ-JKFIT
	 Reference Energy          =    -473.2665756545922022 [Eh]
	 Singles Energy            =      -0.0000000000000000 [Eh]
	 Same-Spin Energy          =      -0.4772060104654273 [Eh]
	 Opposite-Spin Energy      =      -1.4663751007704164 [Eh]
	 Correlation Energy        =      -1.9435811112358437 [Eh]
	 Total Energy              =    -475.2101567658280601 [Eh]

	 ================> DF-SCS-MP2 Energies <==================
	-----------------------------------------------------------
	 SCS Same-Spin Scale       =       0.3333333333333333 [-]
	 SCS Opposite-Spin Scale   =       1.2000000000000000 [-]
	 SCS Same-Spin Energy      =      -0.1590686701551424 [Eh]
	 SCS Opposite-Spin Energy  =      -1.7596501209244997 [Eh]
	 SCS Correlation Energy    =      -1.9187187910796422 [Eh]
	 SCS Total Energy          =    -475.1852944456718433 [Eh]
	-----------------------------------------------------------

  Dipole Moment: [D]
     X:    10.2481      Y:     1.5687      Z:     0.1391     Total:    10.3684

*** Psi4 exiting successfully. Buy a developer a beer!
