                               Psi4 1.4a3.dev225

  ==> Input File <==

--------------------------------------------------------------------------
#psi4
#
memory 32 gb

molecule  {
-1 1
  O       -1.5186010     1.5599430    -0.1433510
  O        2.2638970    -1.4295650    -0.0456660
  O        3.5317420     0.4486470     0.1950180
  N        0.0040180    -0.1295860    -0.1151350
  C       -2.3384940    -0.6954940    -0.4149760
  C       -1.2508570     0.3439190    -0.2101810
  C        1.1754880     0.7048690     0.0403840
  C       -3.5055210    -0.4701880     0.5431350
  C        2.4293450    -0.1892842     0.0634875
  H       -2.6873130    -0.6028840    -1.4504550
  H       -1.9319890    -1.7056860    -0.3020050
  H        1.2516430     1.4279040    -0.7806770
  H        1.1211640     1.2868180     0.9683990
  H        0.2309340    -1.1197490    -0.1755670
  H       -3.1861080    -0.6022700     1.5809140
  H       -3.8905480     0.5449040     0.4307430
  H       -4.3152940    -1.1768540     0.3431720
units angstrom
no_reorient  #important for SAPT in psi4, default
symmetry c1  #important for SAPT in psi4, default
}

set PROPERTIES_ORIGIN ["COM"]
properties('MP2/aug-cc-pvtz', properties = ['dipole'])
--------------------------------------------------------------------------

    Molecular point group: c1
  Charge       = -1
  Multiplicity = 1
  Basis Set: AUG-CC-PVTZ
    Blend: AUG-CC-PVTZ
  Basis Set: (AUG-CC-PVTZ AUX)
    Blend: AUG-CC-PVTZ-JKFIT

    Orbital Energies [Eh]
    ---------------------

    Doubly Occupied:

       1A    -20.387912     2A    -20.326534     3A    -20.309126
       4A    -15.445857     5A    -11.222757     6A    -11.163897
       7A    -11.135916     8A    -11.128318     9A    -11.109921
      10A     -1.239198    11A     -1.190942    12A     -1.093469
      13A     -1.081253    14A     -0.950230    15A     -0.833160
      16A     -0.760887    17A     -0.653837    18A     -0.586759
      19A     -0.545710    20A     -0.527764    21A     -0.503312
      22A     -0.486560    23A     -0.476042    24A     -0.437851
      25A     -0.427477    26A     -0.418277    27A     -0.408115
      28A     -0.395105    29A     -0.381018    30A     -0.345059
      31A     -0.299077    32A     -0.257338    33A     -0.239879
      34A     -0.224271    35A     -0.213742

  @DF-RHF Final Energy:  -473.28655200421957

   => Energetics <=

    Nuclear Repulsion Energy =            435.3325853215919778
    One-Electron Energy =               -1522.8251355385300485
    Two-Electron Energy =                 614.2059982127184412
    Total Energy =                       -473.2865520042196295
  Basis Set: (AUG-CC-PVTZ AUX)
    Blend: AUG-CC-PVTZ-RI
    Molecular point group: c1

    Geometry (in Angstrom), charge = -1, multiplicity = 1:

       Center              X                  Y                   Z               Mass
    ------------   -----------------  -----------------  -----------------  -----------------
         O           -1.619133001121     1.546027966238    -0.138470340776    15.994914619570
         O            2.163364998879    -1.443480033762    -0.040785340776    15.994914619570
         O            3.431209998879     0.434731966238     0.199898659224    15.994914619570
         N           -0.096514001121    -0.143501033762    -0.110254340776    14.003074004430
         C           -2.439026001121    -0.709409033762    -0.410095340776    12.000000000000
         C           -1.351389001121     0.330003966238    -0.205300340776    12.000000000000
         C            1.074955998879     0.690953966238     0.045264659224    12.000000000000
         C           -3.606053001121    -0.484103033762     0.548015659224    12.000000000000
         C            2.328812998879    -0.203199233762     0.068368159224    12.000000000000
         H           -2.787845001121    -0.616799033762    -1.445574340776     1.007825032230
         H           -2.032521001121    -1.719601033762    -0.297124340776     1.007825032230
         H            1.151110998879     1.413988966238    -0.775796340776     1.007825032230
         H            1.020631998879     1.272902966238     0.973279659224     1.007825032230
         H            0.130401998879    -1.133664033762    -0.170686340776     1.007825032230
         H           -3.286640001121    -0.616185033762     1.585794659224     1.007825032230
         H           -3.991080001121     0.530988966238     0.435623659224     1.007825032230
         H           -4.415826001121    -1.190769033762     0.348052659224     1.007825032230

  Basis Set: AUG-CC-PVTZ
    Blend: AUG-CC-PVTZ
  Basis Set: (AUG-CC-PVTZ AUX)
    Blend: AUG-CC-PVTZ-JKFIT
	 Reference Energy          =    -473.2865520042195726 [Eh]
	 Singles Energy            =      -0.0000000000000000 [Eh]
	 Same-Spin Energy          =      -0.4759875926861171 [Eh]
	 Opposite-Spin Energy      =      -1.4651298902673204 [Eh]
	 Correlation Energy        =      -1.9411174829534374 [Eh]
	 Total Energy              =    -475.2276694871729887 [Eh]

	 ================> DF-SCS-MP2 Energies <==================
	-----------------------------------------------------------
	 SCS Same-Spin Scale       =       0.3333333333333333 [-]
	 SCS Opposite-Spin Scale   =       1.2000000000000000 [-]
	 SCS Same-Spin Energy      =      -0.1586625308953724 [Eh]
	 SCS Opposite-Spin Energy  =      -1.7581558683207845 [Eh]
	 SCS Correlation Energy    =      -1.9168183992161569 [Eh]
	 SCS Total Energy          =    -475.2033704034357129 [Eh]
	-----------------------------------------------------------

  Dipole Moment: [D]
     X:    -9.5548      Y:    -1.2588      Z:    -0.4335     Total:     9.6471

*** Psi4 exiting successfully. Buy a developer a beer!
