                               Psi4 1.3.2 release

  ==> Input File <==

--------------------------------------------------------------------------
#psi4
#
memory 32 gb

molecule  {
-1 1
  O        1.6190569    -1.4310978    -0.0083821
  O       -2.4744110     1.3948030    -0.0154550
  O       -3.5371250    -0.6067510    -0.0268560
  N       -0.0146490     0.2143920     0.0158120
  C        2.3813055     0.7798883     0.0009255
  C        1.2455030    -0.2240550     0.0044360
  C       -1.1489000    -0.6463140     0.0180560
  C        3.7164760     0.2336920    -0.0114620
  C       -2.5073920     0.1288020     0.0323140
  H        2.1647820     1.4966320    -0.8622200
  H        2.1776990     1.4878210     0.8748480
  H       -1.1517560    -1.3070500    -0.8570610
  H       -1.1395970    -1.3178250     0.8849180
  H       -0.2830670     1.1965190     0.0239890
  H        3.8663740    -0.3931470     0.8680960
  H        3.8530680    -0.3842560    -0.8995260
  H        4.4669480     1.0276640    -0.0135300
units angstrom
no_reorient  #important for SAPT in psi4, default
symmetry c1  #important for SAPT in psi4, default
}

set PROPERTIES_ORIGIN ["COM"]
properties('MP2/aug-cc-pvtz', properties = ['dipole'])
--------------------------------------------------------------------------

    Molecular point group: c1
  Charge       = -1
  Multiplicity = 1
  Basis Set: AUG-CC-PVTZ
    Blend: AUG-CC-PVTZ
  Basis Set: (AUG-CC-PVTZ AUX)
    Blend: AUG-CC-PVTZ-JKFIT

    Orbital Energies [Eh]
    ---------------------

    Doubly Occupied:

       1A    -20.390847     2A    -20.324130     3A    -20.312376
       4A    -15.455038     5A    -11.228426     6A    -11.166628
       7A    -11.139443     8A    -11.119012     9A    -11.111736
      10A     -1.235693    11A     -1.188681    12A     -1.106133
      13A     -1.084117    14A     -0.961382    15A     -0.838781
      16A     -0.754616    17A     -0.661069    18A     -0.587737
      19A     -0.548718    20A     -0.531233    21A     -0.508986
      22A     -0.486090    23A     -0.479261    24A     -0.446022
      25A     -0.426990    26A     -0.411876    27A     -0.408750
      28A     -0.396992    29A     -0.367170    30A     -0.344425
      31A     -0.299187    32A     -0.260351    33A     -0.236998
      34A     -0.226529    35A     -0.214707

  @DF-RHF Final Energy:  -473.27091653064696

   => Energetics <=

    Nuclear Repulsion Energy =            433.6267443128508035
    One-Electron Energy =               -1519.2750592809634327
    Two-Electron Energy =                 612.3773984374656720
    Total Energy =                       -473.2709165306469004
  Basis Set: (AUG-CC-PVTZ AUX)
    Blend: AUG-CC-PVTZ-RI
    Molecular point group: c1

    Geometry (in Angstrom), charge = -1, multiplicity = 1:

       Center              X                  Y                   Z               Mass
    ------------   -----------------  -----------------  -----------------  -----------------
         O            1.712519914965    -1.414191562806    -0.008085949453    15.994914619570
         O           -2.380947985035     1.411709237194    -0.015158849453    15.994914619570
         O           -3.443661985035    -0.589844762806    -0.026559849453    15.994914619570
         N            0.078814014965     0.231298237194     0.016108150547    14.003074004430
         C            2.474768514965     0.796794537194     0.001221650547    12.000000000000
         C            1.338966014965    -0.207148762806     0.004732150547    12.000000000000
         C           -1.055436985035    -0.629407762806     0.018352150547    12.000000000000
         C            3.809939014965     0.250598237194    -0.011165849453    12.000000000000
         C           -2.413928985035     0.145708237194     0.032610150547    12.000000000000
         H            2.258245014965     1.513538237194    -0.861923849453     1.007825032230
         H            2.271162014965     1.504727237194     0.875144150547     1.007825032230
         H           -1.058292985035    -1.290143762806    -0.856764849453     1.007825032230
         H           -1.046133985035    -1.300918762806     0.885214150547     1.007825032230
         H           -0.189603985035     1.213425237194     0.024285150547     1.007825032230
         H            3.959837014965    -0.376240762806     0.868392150547     1.007825032230
         H            3.946531014965    -0.367349762806    -0.899229849453     1.007825032230
         H            4.560411014965     1.044570237194    -0.013233849453     1.007825032230

  Basis Set: AUG-CC-PVTZ
    Blend: AUG-CC-PVTZ
  Basis Set: (AUG-CC-PVTZ AUX)
    Blend: AUG-CC-PVTZ-JKFIT
	 Reference Energy          =    -473.2709165306469572 [Eh]
	 Singles Energy            =      -0.0000000000000000 [Eh]
	 Same-Spin Energy          =      -0.4768585133612547 [Eh]
	 Opposite-Spin Energy      =      -1.4662406873052214 [Eh]
	 Correlation Energy        =      -1.9430992006664760 [Eh]
	 Total Energy              =    -475.2140157313134523 [Eh]

	 ================> DF-SCS-MP2 Energies <==================
	-----------------------------------------------------------
	 SCS Same-Spin Scale       =       0.3333333333333333 [-]
	 SCS Opposite-Spin Scale   =       1.2000000000000000 [-]
	 SCS Same-Spin Energy      =      -0.1589528377870849 [Eh]
	 SCS Opposite-Spin Energy  =      -1.7594888247662657 [Eh]
	 SCS Correlation Energy    =      -1.9184416625533505 [Eh]
	 SCS Total Energy          =    -475.1893581932002917 [Eh]
	-----------------------------------------------------------

  Dipole Moment: [D]
     X:     9.7759      Y:     1.4504      Z:     0.1359     Total:     9.8838

*** Psi4 exiting successfully. Buy a developer a beer!
