                               Psi4 1.3.2 release

  ==> Input File <==

--------------------------------------------------------------------------
#psi4
#
memory 32 gb

molecule  {
-1 1
  O        1.5124343    -1.4590705    -0.0075497
  O       -2.4744110     1.3948030    -0.0154550
  O       -3.5371250    -0.6067510    -0.0268560
  N       -0.0146490     0.2143920     0.0158120
  C        2.2894930     0.8750551     0.0025471
  C        1.2455030    -0.2240550     0.0044360
  C       -1.1489000    -0.6463140     0.0180560
  C        3.7164760     0.2336920    -0.0114620
  C       -2.5073920     0.1288020     0.0323140
  H        2.1647820     1.4966320    -0.8622200
  H        2.1776990     1.4878210     0.8748480
  H       -1.1517560    -1.3070500    -0.8570610
  H       -1.1395970    -1.3178250     0.8849180
  H       -0.2830670     1.1965190     0.0239890
  H        3.8663740    -0.3931470     0.8680960
  H        3.8530680    -0.3842560    -0.8995260
  H        4.4669480     1.0276640    -0.0135300
units angstrom
no_reorient  #important for SAPT in psi4, default
symmetry c1  #important for SAPT in psi4, default
}

set PROPERTIES_ORIGIN ["COM"]
properties('MP2/aug-cc-pvtz', properties = ['dipole'])
--------------------------------------------------------------------------

    Molecular point group: c1
  Charge       = -1
  Multiplicity = 1
  Basis Set: AUG-CC-PVTZ
    Blend: AUG-CC-PVTZ
  Basis Set: (AUG-CC-PVTZ AUX)
    Blend: AUG-CC-PVTZ-JKFIT

    Orbital Energies [Eh]
    ---------------------

    Doubly Occupied:

       1A    -20.391841     2A    -20.321429     3A    -20.309804
       4A    -15.448767     5A    -11.227399     6A    -11.163496
       7A    -11.137305     8A    -11.127360     9A    -11.107027
      10A     -1.235512    11A     -1.185893    12A     -1.100059
      13A     -1.081258    14A     -0.948319    15A     -0.834678
      16A     -0.761113    17A     -0.659868    18A     -0.591367
      19A     -0.542107    20A     -0.540145    21A     -0.506387
      22A     -0.483195    23A     -0.472822    24A     -0.425449
      25A     -0.422569    26A     -0.418188    27A     -0.410652
      28A     -0.394074    29A     -0.385687    30A     -0.343181
      31A     -0.304968    32A     -0.256217    33A     -0.234120
      34A     -0.223674    35A     -0.212232

  @DF-RHF Final Energy:  -473.27964967574781

   => Energetics <=

    Nuclear Repulsion Energy =            433.3175814327250919
    One-Electron Energy =               -1518.7781350029331406
    Two-Electron Energy =                 612.1809038944602435
    Total Energy =                       -473.2796496757478053
  Basis Set: (AUG-CC-PVTZ AUX)
    Blend: AUG-CC-PVTZ-RI
    Molecular point group: c1

    Geometry (in Angstrom), charge = -1, multiplicity = 1:

       Center              X                  Y                   Z               Mass
    ------------   -----------------  -----------------  -----------------  -----------------
         O            1.627482554167    -1.447505119543    -0.007505554540    15.994914619570
         O           -2.359362745833     1.406368380457    -0.015410854540    15.994914619570
         O           -3.422076745833    -0.595185619543    -0.026811854540    15.994914619570
         N            0.100399254167     0.225957380457     0.015856145460    14.003074004430
         C            2.404541254167     0.886620480457     0.002591245460    12.000000000000
         C            1.360551254167    -0.212489619543     0.004480145460    12.000000000000
         C           -1.033851745833    -0.634748619543     0.018100145460    12.000000000000
         C            3.831524254167     0.245257380457    -0.011417854540    12.000000000000
         C           -2.392343745833     0.140367380457     0.032358145460    12.000000000000
         H            2.279830254167     1.508197380457    -0.862175854540     1.007825032230
         H            2.292747254167     1.499386380457     0.874892145460     1.007825032230
         H           -1.036707745833    -1.295484619543    -0.857016854540     1.007825032230
         H           -1.024548745833    -1.306259619543     0.884962145460     1.007825032230
         H           -0.168018745833     1.208084380457     0.024033145460     1.007825032230
         H            3.981422254167    -0.381581619543     0.868140145460     1.007825032230
         H            3.968116254167    -0.372690619543    -0.899481854540     1.007825032230
         H            4.581996254167     1.039229380457    -0.013485854540     1.007825032230

  Basis Set: AUG-CC-PVTZ
    Blend: AUG-CC-PVTZ
  Basis Set: (AUG-CC-PVTZ AUX)
    Blend: AUG-CC-PVTZ-JKFIT
	 Reference Energy          =    -473.2796496757478053 [Eh]
	 Singles Energy            =      -0.0000000000000000 [Eh]
	 Same-Spin Energy          =      -0.4760237572007068 [Eh]
	 Opposite-Spin Energy      =      -1.4654827745683965 [Eh]
	 Correlation Energy        =      -1.9415065317691034 [Eh]
	 Total Energy              =    -475.2211562075169127 [Eh]

	 ================> DF-SCS-MP2 Energies <==================
	-----------------------------------------------------------
	 SCS Same-Spin Scale       =       0.3333333333333333 [-]
	 SCS Opposite-Spin Scale   =       1.2000000000000000 [-]
	 SCS Same-Spin Energy      =      -0.1586745857335689 [Eh]
	 SCS Opposite-Spin Energy  =      -1.7585793294820757 [Eh]
	 SCS Correlation Energy    =      -1.9172539152156447 [Eh]
	 SCS Total Energy          =    -475.1969035909634727 [Eh]
	-----------------------------------------------------------

  Dipole Moment: [D]
     X:     9.9759      Y:     1.6207      Z:     0.1369     Total:    10.1076

*** Psi4 exiting successfully. Buy a developer a beer!
