                               Psi4 1.3.2 release

  ==> Input File <==

--------------------------------------------------------------------------
#psi4
#
memory 32 gb

molecule  {
-1 1
  O        1.5553730    -1.4489990    -0.0078940
  O       -2.4744110     1.3948030    -0.0154550
  O       -3.5371250    -0.6067510    -0.0268560
  N       -0.0401305     0.2445790    -0.0474039
  C        2.3272120     0.8379530     0.0018960
  C        1.2455030    -0.2240550     0.0044360
  C       -1.1489000    -0.6463140     0.0180560
  C        3.7164760     0.2336920    -0.0114620
  C       -2.5073920     0.1288020     0.0323140
  H        2.1647820     1.4966320    -0.8622200
  H        2.1776990     1.4878210     0.8748480
  H       -1.1517560    -1.3070500    -0.8570610
  H       -1.1888988    -1.3403985     0.8660596
  H       -0.2830670     1.1965190     0.0239890
  H        3.8663740    -0.3931470     0.8680960
  H        3.8530680    -0.3842560    -0.8995260
  H        4.4669480     1.0276640    -0.0135300
units angstrom
no_reorient  #important for SAPT in psi4, default
symmetry c1  #important for SAPT in psi4, default
}

set PROPERTIES_ORIGIN ["COM"]
properties('MP2/aug-cc-pvtz', properties = ['dipole'])
--------------------------------------------------------------------------

    Molecular point group: c1
  Charge       = -1
  Multiplicity = 1
  Basis Set: AUG-CC-PVTZ
    Blend: AUG-CC-PVTZ
  Basis Set: (AUG-CC-PVTZ AUX)
    Blend: AUG-CC-PVTZ-JKFIT

    Orbital Energies [Eh]
    ---------------------

    Doubly Occupied:

       1A    -20.399488     2A    -20.319597     3A    -20.308065
       4A    -15.448762     5A    -11.234375     6A    -11.161338
       7A    -11.139020     8A    -11.125491     9A    -11.106613
      10A     -1.236311    11A     -1.184740    12A     -1.099713
      13A     -1.079477    14A     -0.953928    15A     -0.831731
      16A     -0.759644    17A     -0.663486    18A     -0.589914
      19A     -0.541079    20A     -0.535305    21A     -0.509608
      22A     -0.482347    23A     -0.475923    24A     -0.428156
      25A     -0.422850    26A     -0.416660    27A     -0.415965
      28A     -0.398797    29A     -0.379694    30A     -0.342204
      31A     -0.307327    32A     -0.258100    33A     -0.232687
      34A     -0.221338    35A     -0.210626

  @DF-RHF Final Energy:  -473.27807231291592

   => Energetics <=

    Nuclear Repulsion Energy =            432.9433022530090511
    One-Electron Energy =               -1518.0020319630918948
    Two-Electron Energy =                 611.7806573971669195
    Total Energy =                       -473.2780723129159242
  Basis Set: (AUG-CC-PVTZ AUX)
    Blend: AUG-CC-PVTZ-RI
    Molecular point group: c1

    Geometry (in Angstrom), charge = -1, multiplicity = 1:

       Center              X                  Y                   Z               Mass
    ------------   -----------------  -----------------  -----------------  -----------------
         O            1.664785578923    -1.438324260580    -0.000794566630    15.994914619570
         O           -2.364998421077     1.405477739420    -0.008355566630    15.994914619570
         O           -3.427712421077    -0.596076260580    -0.019756566630    15.994914619570
         N            0.069282078923     0.255253739420    -0.040304466630    14.003074004430
         C            2.436624578923     0.848627739420     0.008995433370    12.000000000000
         C            1.354915578923    -0.213380260580     0.011535433370    12.000000000000
         C           -1.039487421077    -0.635639260580     0.025155433370    12.000000000000
         C            3.825888578923     0.244366739420    -0.004362566630    12.000000000000
         C           -2.397979421077     0.139476739420     0.039413433370    12.000000000000
         H            2.274194578923     1.507306739420    -0.855120566630     1.007825032230
         H            2.287111578923     1.498495739420     0.881947433370     1.007825032230
         H           -1.042343421077    -1.296375260580    -0.849961566630     1.007825032230
         H           -1.079486221077    -1.329723760580     0.873159033370     1.007825032230
         H           -0.173654421077     1.207193739420     0.031088433370     1.007825032230
         H            3.975786578923    -0.382472260580     0.875195433370     1.007825032230
         H            3.962480578923    -0.373581260580    -0.892426566630     1.007825032230
         H            4.576360578923     1.038338739420    -0.006430566630     1.007825032230

  Basis Set: AUG-CC-PVTZ
    Blend: AUG-CC-PVTZ
  Basis Set: (AUG-CC-PVTZ AUX)
    Blend: AUG-CC-PVTZ-JKFIT
	 Reference Energy          =    -473.2780723129159242 [Eh]
	 Singles Energy            =      -0.0000000000000000 [Eh]
	 Same-Spin Energy          =      -0.4760964601631032 [Eh]
	 Opposite-Spin Energy      =      -1.4655034372241376 [Eh]
	 Correlation Energy        =      -1.9415998973872408 [Eh]
	 Total Energy              =    -475.2196722103031448 [Eh]

	 ================> DF-SCS-MP2 Energies <==================
	-----------------------------------------------------------
	 SCS Same-Spin Scale       =       0.3333333333333333 [-]
	 SCS Opposite-Spin Scale   =       1.2000000000000000 [-]
	 SCS Same-Spin Energy      =      -0.1586988200543677 [Eh]
	 SCS Opposite-Spin Energy  =      -1.7586041246689650 [Eh]
	 SCS Correlation Energy    =      -1.9173029447233327 [Eh]
	 SCS Total Energy          =    -475.1953752576392844 [Eh]
	-----------------------------------------------------------

  Dipole Moment: [D]
     X:    10.1596      Y:     1.4620      Z:     0.1993     Total:    10.2662

*** Psi4 exiting successfully. Buy a developer a beer!
