                               Psi4 1.3.2 release

  ==> Input File <==

--------------------------------------------------------------------------
#psi4
#
memory 32 gb

molecule  {
-1 1
  O        1.5553730    -1.4489990    -0.0078940
  O       -2.4744110     1.3948030    -0.0154550
  O       -3.5622364    -0.5703823    -0.0254267
  N       -0.0146490     0.2143920     0.0158120
  C        2.3272120     0.8379530     0.0018960
  C        1.2455030    -0.2240550     0.0044360
  C       -1.1226931    -0.5985162     0.0210998
  C        3.7164760     0.2336920    -0.0114620
  C       -2.5073920     0.1288020     0.0323140
  H        2.1647820     1.4966320    -0.8622200
  H        2.1776990     1.4878210     0.8748480
  H       -1.1517560    -1.3070500    -0.8570610
  H       -1.1395970    -1.3178250     0.8849180
  H       -0.2830670     1.1965190     0.0239890
  H        3.8663740    -0.3931470     0.8680960
  H        3.8530680    -0.3842560    -0.8995260
  H        4.4669480     1.0276640    -0.0135300
units angstrom
no_reorient  #important for SAPT in psi4, default
symmetry c1  #important for SAPT in psi4, default
}

set PROPERTIES_ORIGIN ["COM"]
properties('MP2/aug-cc-pvtz', properties = ['dipole'])
--------------------------------------------------------------------------

    Molecular point group: c1
  Charge       = -1
  Multiplicity = 1
  Basis Set: AUG-CC-PVTZ
    Blend: AUG-CC-PVTZ
  Basis Set: (AUG-CC-PVTZ AUX)
    Blend: AUG-CC-PVTZ-JKFIT

    Orbital Energies [Eh]
    ---------------------

    Doubly Occupied:

       1A    -20.394889     2A    -20.318553     3A    -20.309963
       4A    -15.454294     5A    -11.230998     6A    -11.163853
       7A    -11.139743     8A    -11.125661     9A    -11.112122
      10A     -1.239831    11A     -1.186799    12A     -1.114951
      13A     -1.078579    14A     -0.955406    15A     -0.839923
      16A     -0.758217    17A     -0.665719    18A     -0.596072
      19A     -0.552450    20A     -0.537740    21A     -0.506521
      22A     -0.483836    23A     -0.477665    24A     -0.428071
      25A     -0.424076    26A     -0.415901    27A     -0.414958
      28A     -0.394829    29A     -0.380576    30A     -0.341206
      31A     -0.306496    32A     -0.253966    33A     -0.231583
      34A     -0.225259    35A     -0.210723

  @DF-RHF Final Energy:  -473.27382179820563

   => Energetics <=

    Nuclear Repulsion Energy =            433.9463947132848034
    One-Electron Energy =               -1519.8975761879778474
    Two-Electron Energy =                 612.6773596764872991
    Total Energy =                       -473.2738217982056312
  Basis Set: (AUG-CC-PVTZ AUX)
    Blend: AUG-CC-PVTZ-RI
    Molecular point group: c1

    Geometry (in Angstrom), charge = -1, multiplicity = 1:

       Center              X                  Y                   Z               Mass
    ------------   -----------------  -----------------  -----------------  -----------------
         O            1.662330108006    -1.444132217260    -0.008204077795    15.994914619570
         O           -2.367453891994     1.399669782740    -0.015765077795    15.994914619570
         O           -3.455279291994    -0.565515517260    -0.025736777795    15.994914619570
         N            0.092308108006     0.219258782740     0.015501922205    14.003074004430
         C            2.434169108006     0.842819782740     0.001585922205    12.000000000000
         C            1.352460108006    -0.219188217260     0.004125922205    12.000000000000
         C           -1.015735991994    -0.593649417260     0.020789722205    12.000000000000
         C            3.823433108006     0.238558782740    -0.011772077795    12.000000000000
         C           -2.400434891994     0.133668782740     0.032003922205    12.000000000000
         H            2.271739108006     1.501498782740    -0.862530077795     1.007825032230
         H            2.284656108006     1.492687782740     0.874537922205     1.007825032230
         H           -1.044798891994    -1.302183217260    -0.857371077795     1.007825032230
         H           -1.032639891994    -1.312958217260     0.884607922205     1.007825032230
         H           -0.176109891994     1.201385782740     0.023678922205     1.007825032230
         H            3.973331108006    -0.388280217260     0.867785922205     1.007825032230
         H            3.960025108006    -0.379389217260    -0.899836077795     1.007825032230
         H            4.573905108006     1.032530782740    -0.013840077795     1.007825032230

  Basis Set: AUG-CC-PVTZ
    Blend: AUG-CC-PVTZ
  Basis Set: (AUG-CC-PVTZ AUX)
    Blend: AUG-CC-PVTZ-JKFIT
	 Reference Energy          =    -473.2738217982056312 [Eh]
	 Singles Energy            =      -0.0000000000000000 [Eh]
	 Same-Spin Energy          =      -0.4767807561039300 [Eh]
	 Opposite-Spin Energy      =      -1.4659044418474900 [Eh]
	 Correlation Energy        =      -1.9426851979514201 [Eh]
	 Total Energy              =    -475.2165069961570794 [Eh]

	 ================> DF-SCS-MP2 Energies <==================
	-----------------------------------------------------------
	 SCS Same-Spin Scale       =       0.3333333333333333 [-]
	 SCS Opposite-Spin Scale   =       1.2000000000000000 [-]
	 SCS Same-Spin Energy      =      -0.1589269187013100 [Eh]
	 SCS Opposite-Spin Energy  =      -1.7590853302169880 [Eh]
	 SCS Correlation Energy    =      -1.9180122489182980 [Eh]
	 SCS Total Energy          =    -475.1918340471239048 [Eh]
	-----------------------------------------------------------

  Dipole Moment: [D]
     X:    10.1356      Y:     1.5655      Z:     0.1383     Total:    10.2567

*** Psi4 exiting successfully. Buy a developer a beer!
