                               Psi4 1.3.2 release

  ==> Input File <==

--------------------------------------------------------------------------
#psi4
#
memory 32 gb

molecule  {
-1 1
  O        1.5553730    -1.4489990    -0.0078940
  O       -2.4744110     1.3948030    -0.0154550
  O       -3.5371250    -0.6067510    -0.0268560
  N       -0.0146490     0.2143920     0.0158120
  C        2.3272120     0.8379530     0.0018960
  C        1.2455030    -0.2240550     0.0044360
  C       -1.1489000    -0.6463140     0.0180560
  C        3.7164760     0.2336920    -0.0114620
  C       -2.4919420     0.1547936    -0.0131440
  H        2.1647820     1.4966320    -0.8622200
  H        2.1776990     1.4878210     0.8748480
  H       -1.1517560    -1.3070500    -0.8570610
  H       -1.1048209    -1.3298522     0.8743830
  H       -0.2830670     1.1965190     0.0239890
  H        3.8663740    -0.3931470     0.8680960
  H        3.8530680    -0.3842560    -0.8995260
  H        4.4669480     1.0276640    -0.0135300
units angstrom
no_reorient  #important for SAPT in psi4, default
symmetry c1  #important for SAPT in psi4, default
}

set PROPERTIES_ORIGIN ["COM"]
properties('MP2/aug-cc-pvtz', properties = ['dipole'])
--------------------------------------------------------------------------

    Molecular point group: c1
  Charge       = -1
  Multiplicity = 1
  Basis Set: AUG-CC-PVTZ
    Blend: AUG-CC-PVTZ
  Basis Set: (AUG-CC-PVTZ AUX)
    Blend: AUG-CC-PVTZ-JKFIT

    Orbital Energies [Eh]
    ---------------------

    Doubly Occupied:

       1A    -20.391986     2A    -20.329788     3A    -20.303728
       4A    -15.451457     5A    -11.227854     6A    -11.164793
       7A    -11.137949     8A    -11.124420     9A    -11.108833
      10A     -1.235839    11A     -1.193902    12A     -1.101852
      13A     -1.078218    14A     -0.952982    15A     -0.836616
      16A     -0.758276    17A     -0.661319    18A     -0.590520
      19A     -0.544806    20A     -0.535662    21A     -0.509091
      22A     -0.483832    23A     -0.476166    24A     -0.427548
      25A     -0.425117    26A     -0.417038    27A     -0.413211
      28A     -0.398672    29A     -0.380734    30A     -0.346052
      31A     -0.303612    32A     -0.258165    33A     -0.237860
      34A     -0.220864    35A     -0.210935

  @DF-RHF Final Energy:  -473.28029978754870

   => Energetics <=

    Nuclear Repulsion Energy =            433.5435410184472858
    One-Electron Energy =               -1519.1682843622431847
    Two-Electron Energy =                 612.3444435562472563
    Total Energy =                       -473.2802997875486426
  Basis Set: (AUG-CC-PVTZ AUX)
    Blend: AUG-CC-PVTZ-RI
    Molecular point group: c1

    Geometry (in Angstrom), charge = -1, multiplicity = 1:

       Center              X                  Y                   Z               Mass
    ------------   -----------------  -----------------  -----------------  -----------------
         O            1.659964716740    -1.437553922650    -0.003471293563    15.994914619570
         O           -2.369819283260     1.406248077350    -0.011032293563    15.994914619570
         O           -3.432533283260    -0.595305922650    -0.022433293563    15.994914619570
         N            0.089942716740     0.225837077350     0.020234706437    14.003074004430
         C            2.431803716740     0.849398077350     0.006318706437    12.000000000000
         C            1.350094716740    -0.212609922650     0.008858706437    12.000000000000
         C           -1.044308283260    -0.634868922650     0.022478706437    12.000000000000
         C            3.821067716740     0.245137077350    -0.007039293563    12.000000000000
         C           -2.387350283260     0.166238677350    -0.008721293563    12.000000000000
         H            2.269373716740     1.508077077350    -0.857797293563     1.007825032230
         H            2.282290716740     1.499266077350     0.879270706437     1.007825032230
         H           -1.047164283260    -1.295604922650    -0.852638293563     1.007825032230
         H           -1.000229183260    -1.318407122650     0.878805706437     1.007825032230
         H           -0.178475283260     1.207964077350     0.028411706437     1.007825032230
         H            3.970965716740    -0.381701922650     0.872518706437     1.007825032230
         H            3.957659716740    -0.372810922650    -0.895103293563     1.007825032230
         H            4.571539716740     1.039109077350    -0.009107293563     1.007825032230

  Basis Set: AUG-CC-PVTZ
    Blend: AUG-CC-PVTZ
  Basis Set: (AUG-CC-PVTZ AUX)
    Blend: AUG-CC-PVTZ-JKFIT
	 Reference Energy          =    -473.2802997875486994 [Eh]
	 Singles Energy            =      -0.0000000000000000 [Eh]
	 Same-Spin Energy          =      -0.4761406066064091 [Eh]
	 Opposite-Spin Energy      =      -1.4653414309111241 [Eh]
	 Correlation Energy        =      -1.9414820375175332 [Eh]
	 Total Energy              =    -475.2217818250662162 [Eh]

	 ================> DF-SCS-MP2 Energies <==================
	-----------------------------------------------------------
	 SCS Same-Spin Scale       =       0.3333333333333333 [-]
	 SCS Opposite-Spin Scale   =       1.2000000000000000 [-]
	 SCS Same-Spin Energy      =      -0.1587135355354697 [Eh]
	 SCS Opposite-Spin Energy  =      -1.7584097170933488 [Eh]
	 SCS Correlation Energy    =      -1.9171232526288184 [Eh]
	 SCS Total Energy          =    -475.1974230401775117 [Eh]
	-----------------------------------------------------------

  Dipole Moment: [D]
     X:    10.0718      Y:     1.8278      Z:     0.1083     Total:    10.2369

*** Psi4 exiting successfully. Buy a developer a beer!
