                               Psi4 1.3.2 release

  ==> Input File <==

--------------------------------------------------------------------------
#psi4
#
memory 32 gb

molecule  {
-1 1
  O        1.5553730    -1.4489990    -0.0078940
  O       -2.5184828     1.3950349    -0.0192551
  O       -3.5619713    -0.5703495    -0.0304482
  N       -0.0146490     0.2143920     0.0158120
  C        2.3272120     0.8379530     0.0018960
  C        1.2455030    -0.2240550     0.0044360
  C       -1.1489000    -0.6463140     0.0180560
  C        3.7164760     0.2336920    -0.0114620
  C       -2.5073920     0.1288020     0.0323140
  H        2.1647820     1.4966320    -0.8622200
  H        2.1776990     1.4878210     0.8748480
  H       -1.1517560    -1.3070500    -0.8570610
  H       -1.1395970    -1.3178250     0.8849180
  H       -0.2830670     1.1965190     0.0239890
  H        3.8663740    -0.3931470     0.8680960
  H        3.8530680    -0.3842560    -0.8995260
  H        4.4669480     1.0276640    -0.0135300
units angstrom
no_reorient  #important for SAPT in psi4, default
symmetry c1  #important for SAPT in psi4, default
}

set PROPERTIES_ORIGIN ["COM"]
properties('MP2/aug-cc-pvtz', properties = ['dipole'])
--------------------------------------------------------------------------

    Molecular point group: c1
  Charge       = -1
  Multiplicity = 1
  Basis Set: AUG-CC-PVTZ
    Blend: AUG-CC-PVTZ
  Basis Set: (AUG-CC-PVTZ AUX)
    Blend: AUG-CC-PVTZ-JKFIT

    Orbital Energies [Eh]
    ---------------------

    Doubly Occupied:

       1A    -20.393634     2A    -20.318185     3A    -20.306558
       4A    -15.454371     5A    -11.229868     6A    -11.162527
       7A    -11.139052     8A    -11.125248     9A    -11.113906
      10A     -1.237444    11A     -1.186225    12A     -1.104774
      13A     -1.074848    14A     -0.954084    15A     -0.839387
      16A     -0.760648    17A     -0.662845    18A     -0.591809
      19A     -0.545699    20A     -0.536924    21A     -0.508056
      22A     -0.486505    23A     -0.475236    24A     -0.426343
      25A     -0.425943    26A     -0.418375    27A     -0.413870
      28A     -0.395240    29A     -0.381016    30A     -0.343938
      31A     -0.305193    32A     -0.260090    33A     -0.233106
      34A     -0.221916    35A     -0.208126

  @DF-RHF Final Energy:  -473.27875148132966

   => Energetics <=

    Nuclear Repulsion Energy =            432.8494424418653352
    One-Electron Energy =               -1517.7744147368327958
    Two-Electron Energy =                 611.6462208136379104
    Total Energy =                       -473.2787514813296639
  Basis Set: (AUG-CC-PVTZ AUX)
    Blend: AUG-CC-PVTZ-RI
    Molecular point group: c1

    Geometry (in Angstrom), charge = -1, multiplicity = 1:

       Center              X                  Y                   Z               Mass
    ------------   -----------------  -----------------  -----------------  -----------------
         O            1.670136059274    -1.439754378616    -0.006838251053    15.994914619570
         O           -2.403719740726     1.404279521384    -0.018199351053    15.994914619570
         O           -3.447208240726    -0.561104878616    -0.029392451053    15.994914619570
         N            0.100114059274     0.223636621384     0.016867748947    14.003074004430
         C            2.441975059274     0.847197621384     0.002951748947    12.000000000000
         C            1.360266059274    -0.214810378616     0.005491748947    12.000000000000
         C           -1.034136940726    -0.637069378616     0.019111748947    12.000000000000
         C            3.831239059274     0.242936621384    -0.010406251053    12.000000000000
         C           -2.392628940726     0.138046621384     0.033369748947    12.000000000000
         H            2.279545059274     1.505876621384    -0.861164251053     1.007825032230
         H            2.292462059274     1.497065621384     0.875903748947     1.007825032230
         H           -1.036992940726    -1.297805378616    -0.856005251053     1.007825032230
         H           -1.024833940726    -1.308580378616     0.885973748947     1.007825032230
         H           -0.168303940726     1.205763621384     0.025044748947     1.007825032230
         H            3.981137059274    -0.383902378616     0.869151748947     1.007825032230
         H            3.967831059274    -0.375011378616    -0.898470251053     1.007825032230
         H            4.581711059274     1.036908621384    -0.012474251053     1.007825032230

  Basis Set: AUG-CC-PVTZ
    Blend: AUG-CC-PVTZ
  Basis Set: (AUG-CC-PVTZ AUX)
    Blend: AUG-CC-PVTZ-JKFIT
	 Reference Energy          =    -473.2787514813296639 [Eh]
	 Singles Energy            =      -0.0000000000000000 [Eh]
	 Same-Spin Energy          =      -0.4760697300938435 [Eh]
	 Opposite-Spin Energy      =      -1.4653655669658598 [Eh]
	 Correlation Energy        =      -1.9414352970597033 [Eh]
	 Total Energy              =    -475.2201867783893476 [Eh]

	 ================> DF-SCS-MP2 Energies <==================
	-----------------------------------------------------------
	 SCS Same-Spin Scale       =       0.3333333333333333 [-]
	 SCS Opposite-Spin Scale   =       1.2000000000000000 [-]
	 SCS Same-Spin Energy      =      -0.1586899100312812 [Eh]
	 SCS Opposite-Spin Energy  =      -1.7584386803590317 [Eh]
	 SCS Correlation Energy    =      -1.9171285903903128 [Eh]
	 SCS Total Energy          =    -475.1958800717199551 [Eh]
	-----------------------------------------------------------

  Dipole Moment: [D]
     X:    10.1580      Y:     1.4563      Z:     0.1490     Total:    10.2629

*** Psi4 exiting successfully. Buy a developer a beer!
