                               Psi4 1.3.2 release

  ==> Input File <==

--------------------------------------------------------------------------
#psi4
#
memory 32 gb

molecule  {
-1 1
  O        1.5553730    -1.4489990    -0.0078940
  O       -2.4744110     1.3948030    -0.0154550
  O       -3.5371250    -0.6067510    -0.0268560
  N       -0.0228007     0.2247207    -0.0052692
  C        2.3272120     0.8379530     0.0018960
  C        1.2455030    -0.2240550     0.0044360
  C       -1.1489000    -0.6463140     0.0180560
  C        3.7164760     0.2336920    -0.0114620
  C       -2.5073920     0.1288020     0.0323140
  H        2.1647820     1.4966320    -0.8622200
  H        2.1776990     1.4878210     0.8748480
  H       -1.1517560    -1.3070500    -0.8570610
  H       -1.1560348    -1.3255572     0.8788934
  H       -0.2830670     1.1965190     0.0239890
  H        3.8663740    -0.3931470     0.8680960
  H        3.8530680    -0.3842560    -0.8995260
  H        4.4669480     1.0276640    -0.0135300
units angstrom
no_reorient  #important for SAPT in psi4, default
symmetry c1  #important for SAPT in psi4, default
}

set PROPERTIES_ORIGIN ["COM"]
properties('MP2/aug-cc-pvtz', properties = ['dipole'])
--------------------------------------------------------------------------

    Molecular point group: c1
  Charge       = -1
  Multiplicity = 1
  Basis Set: AUG-CC-PVTZ
    Blend: AUG-CC-PVTZ
  Basis Set: (AUG-CC-PVTZ AUX)
    Blend: AUG-CC-PVTZ-JKFIT

    Orbital Energies [Eh]
    ---------------------

    Doubly Occupied:

       1A    -20.393998     2A    -20.321563     3A    -20.309925
       4A    -15.450416     5A    -11.229772     6A    -11.163638
       7A    -11.137989     8A    -11.124525     9A    -11.108155
      10A     -1.235433    11A     -1.186265    12A     -1.101611
      13A     -1.081464    14A     -0.952957    15A     -0.834784
      16A     -0.758833    17A     -0.661726    18A     -0.589867
      19A     -0.543567    20A     -0.535255    21A     -0.507969
      22A     -0.482843    23A     -0.475972    24A     -0.426442
      25A     -0.424427    26A     -0.417055    27A     -0.414438
      28A     -0.397862    29A     -0.379977    30A     -0.343464
      31A     -0.304605    32A     -0.257924    33A     -0.234443
      34A     -0.223703    35A     -0.212379

  @DF-RHF Final Energy:  -473.28141237656621

   => Energetics <=

    Nuclear Repulsion Energy =            433.2449559235705010
    One-Electron Energy =               -1518.6022449681336184
    Two-Electron Energy =                 612.0758766679967948
    Total Energy =                       -473.2814123765662089
  Basis Set: (AUG-CC-PVTZ AUX)
    Blend: AUG-CC-PVTZ-RI
    Molecular point group: c1

    Geometry (in Angstrom), charge = -1, multiplicity = 1:

       Center              X                  Y                   Z               Mass
    ------------   -----------------  -----------------  -----------------  -----------------
         O            1.662664927273    -1.436301046701    -0.005430841975    15.994914619570
         O           -2.367119072727     1.407500953299    -0.012991841975    15.994914619570
         O           -3.429833072727    -0.594053046701    -0.024392841975    15.994914619570
         N            0.084491227273     0.237418653299    -0.002806041975    14.003074004430
         C            2.434503927273     0.850650953299     0.004359158025    12.000000000000
         C            1.352794927273    -0.211357046701     0.006899158025    12.000000000000
         C           -1.041608072727    -0.633616046701     0.020519158025    12.000000000000
         C            3.823767927273     0.246389953299    -0.008998841975    12.000000000000
         C           -2.400100072727     0.141499953299     0.034777158025    12.000000000000
         H            2.272073927273     1.509329953299    -0.859756841975     1.007825032230
         H            2.284990927273     1.500518953299     0.877311158025     1.007825032230
         H           -1.044464072727    -1.294352046701    -0.854597841975     1.007825032230
         H           -1.048742872727    -1.312859246701     0.881356558025     1.007825032230
         H           -0.175775072727     1.209216953299     0.026452158025     1.007825032230
         H            3.973665927273    -0.380449046701     0.870559158025     1.007825032230
         H            3.960359927273    -0.371558046701    -0.897062841975     1.007825032230
         H            4.574239927273     1.040361953299    -0.011066841975     1.007825032230

  Basis Set: AUG-CC-PVTZ
    Blend: AUG-CC-PVTZ
  Basis Set: (AUG-CC-PVTZ AUX)
    Blend: AUG-CC-PVTZ-JKFIT
	 Reference Energy          =    -473.2814123765662089 [Eh]
	 Singles Energy            =      -0.0000000000000000 [Eh]
	 Same-Spin Energy          =      -0.4761130018383181 [Eh]
	 Opposite-Spin Energy      =      -1.4653651386474196 [Eh]
	 Correlation Energy        =      -1.9414781404857377 [Eh]
	 Total Energy              =    -475.2228905170519511 [Eh]

	 ================> DF-SCS-MP2 Energies <==================
	-----------------------------------------------------------
	 SCS Same-Spin Scale       =       0.3333333333333333 [-]
	 SCS Opposite-Spin Scale   =       1.2000000000000000 [-]
	 SCS Same-Spin Energy      =      -0.1587043339461060 [Eh]
	 SCS Opposite-Spin Energy  =      -1.7584381663769035 [Eh]
	 SCS Correlation Energy    =      -1.9171425003230096 [Eh]
	 SCS Total Energy          =    -475.1985548768892045 [Eh]
	-----------------------------------------------------------

  Dipole Moment: [D]
     X:     9.9787      Y:     1.5315      Z:     0.1565     Total:    10.0968

*** Psi4 exiting successfully. Buy a developer a beer!
