                               Psi4 1.3.2 release

  ==> Input File <==

--------------------------------------------------------------------------
#psi4
#
memory 32 gb

molecule  {
-1 1
  O        1.5553730    -1.4489990    -0.0078940
  O       -2.4744110     1.3948030    -0.0154550
  O       -3.5371250    -0.6067510    -0.0268560
  N       -0.0221097     0.1923320     0.0157555
  C        2.3455809     0.8189132     0.0016666
  C        1.2455030    -0.2240550     0.0044360
  C       -1.1489000    -0.6463140     0.0180560
  C        3.7164760     0.2336920    -0.0114620
  C       -2.5073920     0.1288020     0.0323140
  H        2.1647820     1.4966320    -0.8622200
  H        2.1776990     1.4878210     0.8748480
  H       -1.1517560    -1.3070500    -0.8570610
  H       -1.1395970    -1.3178250     0.8849180
  H       -0.2830670     1.1965190     0.0239890
  H        3.8663740    -0.3931470     0.8680960
  H        3.8530680    -0.3842560    -0.8995260
  H        4.4669480     1.0276640    -0.0135300
units angstrom
no_reorient  #important for SAPT in psi4, default
symmetry c1  #important for SAPT in psi4, default
}

set PROPERTIES_ORIGIN ["COM"]
properties('MP2/aug-cc-pvtz', properties = ['dipole'])
--------------------------------------------------------------------------

    Molecular point group: c1
  Charge       = -1
  Multiplicity = 1
  Basis Set: AUG-CC-PVTZ
    Blend: AUG-CC-PVTZ
  Basis Set: (AUG-CC-PVTZ AUX)
    Blend: AUG-CC-PVTZ-JKFIT

    Orbital Energies [Eh]
    ---------------------

    Doubly Occupied:

       1A    -20.389726     2A    -20.322715     3A    -20.310795
       4A    -15.452010     5A    -11.227121     6A    -11.164883
       7A    -11.140261     8A    -11.123872     9A    -11.107476
      10A     -1.235539    11A     -1.187100    12A     -1.102864
      13A     -1.082485    14A     -0.957125    15A     -0.838787
      16A     -0.757764    17A     -0.654165    18A     -0.590683
      19A     -0.548230    20A     -0.534639    21A     -0.507100
      22A     -0.486422    23A     -0.475405    24A     -0.434740
      25A     -0.424215    26A     -0.415136    27A     -0.412317
      28A     -0.396055    29A     -0.376721    30A     -0.343823
      31A     -0.302281    32A     -0.255431    33A     -0.235373
      34A     -0.225019    35A     -0.213085

  @DF-RHF Final Energy:  -473.27857035747257

   => Energetics <=

    Nuclear Repulsion Energy =            433.7041097476230220
    One-Electron Energy =               -1519.5026342836249569
    Two-Electron Energy =                 612.5199541785293604
    Total Energy =                       -473.2785703574725176
  Basis Set: (AUG-CC-PVTZ AUX)
    Blend: AUG-CC-PVTZ-RI
    Molecular point group: c1

    Geometry (in Angstrom), charge = -1, multiplicity = 1:

       Center              X                  Y                   Z               Mass
    ------------   -----------------  -----------------  -----------------  -----------------
         O            1.660768206339    -1.431116701522    -0.007720180041    15.994914619570
         O           -2.369015793661     1.412685298478    -0.015281180041    15.994914619570
         O           -3.431729793661    -0.588868701522    -0.026682180041    15.994914619570
         N            0.083285506339     0.210214298478     0.015929319959    14.003074004430
         C            2.450976106339     0.836795498478     0.001840419959    12.000000000000
         C            1.350898206339    -0.206172701522     0.004609819959    12.000000000000
         C           -1.043504793661    -0.628431701522     0.018229819959    12.000000000000
         C            3.821871206339     0.251574298478    -0.011288180041    12.000000000000
         C           -2.401996793661     0.146684298478     0.032487819959    12.000000000000
         H            2.270177206339     1.514514298478    -0.862046180041     1.007825032230
         H            2.283094206339     1.505703298478     0.875021819959     1.007825032230
         H           -1.046360793661    -1.289167701522    -0.856887180041     1.007825032230
         H           -1.034201793661    -1.299942701522     0.885091819959     1.007825032230
         H           -0.177671793661     1.214401298478     0.024162819959     1.007825032230
         H            3.971769206339    -0.375264701522     0.868269819959     1.007825032230
         H            3.958463206339    -0.366373701522    -0.899352180041     1.007825032230
         H            4.572343206339     1.045546298478    -0.013356180041     1.007825032230

  Basis Set: AUG-CC-PVTZ
    Blend: AUG-CC-PVTZ
  Basis Set: (AUG-CC-PVTZ AUX)
    Blend: AUG-CC-PVTZ-JKFIT
	 Reference Energy          =    -473.2785703574725744 [Eh]
	 Singles Energy            =      -0.0000000000000000 [Eh]
	 Same-Spin Energy          =      -0.4766079750854487 [Eh]
	 Opposite-Spin Energy      =      -1.4658407418503505 [Eh]
	 Correlation Energy        =      -1.9424487169357993 [Eh]
	 Total Energy              =    -475.2210190744083889 [Eh]

	 ================> DF-SCS-MP2 Energies <==================
	-----------------------------------------------------------
	 SCS Same-Spin Scale       =       0.3333333333333333 [-]
	 SCS Opposite-Spin Scale   =       1.2000000000000000 [-]
	 SCS Same-Spin Energy      =      -0.1588693250284829 [Eh]
	 SCS Opposite-Spin Energy  =      -1.7590088902204206 [Eh]
	 SCS Correlation Energy    =      -1.9178782152489036 [Eh]
	 SCS Total Energy          =    -475.1964485727214651 [Eh]
	-----------------------------------------------------------

  Dipole Moment: [D]
     X:     9.9311      Y:     1.5848      Z:     0.1362     Total:    10.0577

*** Psi4 exiting successfully. Buy a developer a beer!
