                               Psi4 1.3.2 release

  ==> Input File <==

--------------------------------------------------------------------------
#psi4
#
memory 32 gb

molecule  {
-1 1
  O        1.5553730    -1.4489990    -0.0078940
  O       -2.4744110     1.3948030    -0.0154550
  O       -3.5371250    -0.6067510    -0.0268560
  N       -0.0146490     0.2143920     0.0158120
  C        2.3272120     0.8379530     0.0018960
  C        1.2455030    -0.2240550     0.0044360
  C       -1.1489000    -0.6463140     0.0180560
  C        3.7263980     0.2598103    -0.0563612
  C       -2.5073920     0.1288020     0.0323140
  H        2.2004464     1.4888777    -0.8739839
  H        2.1776990     1.4878210     0.8748480
  H       -1.1517560    -1.3070500    -0.8570610
  H       -1.1395970    -1.3178250     0.8849180
  H       -0.2830670     1.1965190     0.0239890
  H        3.8663740    -0.3931470     0.8680960
  H        3.8530680    -0.3842560    -0.8995260
  H        4.4669480     1.0276640    -0.0135300
units angstrom
no_reorient  #important for SAPT in psi4, default
symmetry c1  #important for SAPT in psi4, default
}

set PROPERTIES_ORIGIN ["COM"]
properties('MP2/aug-cc-pvtz', properties = ['dipole'])
--------------------------------------------------------------------------

    Molecular point group: c1
  Charge       = -1
  Multiplicity = 1
  Basis Set: AUG-CC-PVTZ
    Blend: AUG-CC-PVTZ
  Basis Set: (AUG-CC-PVTZ AUX)
    Blend: AUG-CC-PVTZ-JKFIT

    Orbital Energies [Eh]
    ---------------------

    Doubly Occupied:

       1A    -20.391740     2A    -20.322586     3A    -20.310922
       4A    -15.451668     5A    -11.228375     6A    -11.164861
       7A    -11.137707     8A    -11.123985     9A    -11.109107
      10A     -1.235399    11A     -1.187089    12A     -1.102625
      13A     -1.082501    14A     -0.952912    15A     -0.836634
      16A     -0.758412    17A     -0.660474    18A     -0.590712
      19A     -0.545847    20A     -0.534594    21A     -0.507425
      22A     -0.484562    23A     -0.477485    24A     -0.429445
      25A     -0.427186    26A     -0.419764    27A     -0.403252
      28A     -0.397704    29A     -0.377489    30A     -0.344182
      31A     -0.303695    32A     -0.257948    33A     -0.235361
      34A     -0.224958    35A     -0.213300

  @DF-RHF Final Energy:  -473.27873466767841

   => Energetics <=

    Nuclear Repulsion Energy =            433.1901760142081343
    One-Electron Energy =               -1518.4740108894372952
    Two-Electron Energy =                 612.0051002075507540
    Total Energy =                       -473.2787346676783500
  Basis Set: (AUG-CC-PVTZ AUX)
    Blend: AUG-CC-PVTZ-RI
    Molecular point group: c1

    Geometry (in Angstrom), charge = -1, multiplicity = 1:

       Center              X                  Y                   Z               Mass
    ------------   -----------------  -----------------  -----------------  -----------------
         O            1.660467911962    -1.437598726317    -0.003513331750    15.994914619570
         O           -2.369316088038     1.406203273683    -0.011074331750    15.994914619570
         O           -3.432030088038    -0.595350726317    -0.022475331750    15.994914619570
         N            0.090445911962     0.225792273683     0.020192668250    14.003074004430
         C            2.432306911962     0.849353273683     0.006276668250    12.000000000000
         C            1.350597911962    -0.212654726317     0.008816668250    12.000000000000
         C           -1.043805088038    -0.634913726317     0.022436668250    12.000000000000
         C            3.831492911962     0.271210573683    -0.051980531750    12.000000000000
         C           -2.402297088038     0.140202273683     0.036694668250    12.000000000000
         H            2.305541311962     1.500277973683    -0.869603231750     1.007825032230
         H            2.282793911962     1.499221273683     0.879228668250     1.007825032230
         H           -1.046661088038    -1.295649726317    -0.852680331750     1.007825032230
         H           -1.034502088038    -1.306424726317     0.889298668250     1.007825032230
         H           -0.177972088038     1.207919273683     0.028369668250     1.007825032230
         H            3.971468911962    -0.381746726317     0.872476668250     1.007825032230
         H            3.958162911962    -0.372855726317    -0.895145331750     1.007825032230
         H            4.572042911962     1.039064273683    -0.009149331750     1.007825032230

  Basis Set: AUG-CC-PVTZ
    Blend: AUG-CC-PVTZ
  Basis Set: (AUG-CC-PVTZ AUX)
    Blend: AUG-CC-PVTZ-JKFIT
	 Reference Energy          =    -473.2787346676784068 [Eh]
	 Singles Energy            =      -0.0000000000000000 [Eh]
	 Same-Spin Energy          =      -0.4762114611514904 [Eh]
	 Opposite-Spin Energy      =      -1.4655771243721460 [Eh]
	 Correlation Energy        =      -1.9417885855236365 [Eh]
	 Total Energy              =    -475.2205232532020318 [Eh]

	 ================> DF-SCS-MP2 Energies <==================
	-----------------------------------------------------------
	 SCS Same-Spin Scale       =       0.3333333333333333 [-]
	 SCS Opposite-Spin Scale   =       1.2000000000000000 [-]
	 SCS Same-Spin Energy      =      -0.1587371537171635 [Eh]
	 SCS Opposite-Spin Energy  =      -1.7586925492465753 [Eh]
	 SCS Correlation Energy    =      -1.9174297029637386 [Eh]
	 SCS Total Energy          =    -475.1961643706421228 [Eh]
	-----------------------------------------------------------

  Dipole Moment: [D]
     X:     9.8960      Y:     1.5890      Z:     0.0944     Total:    10.0232

*** Psi4 exiting successfully. Buy a developer a beer!
