                               Psi4 1.3.2 release

  ==> Input File <==

--------------------------------------------------------------------------
#psi4
#
memory 32 gb

molecule  {
-1 1
  O        1.5553730    -1.4489990    -0.0078940
  O       -2.4744110     1.3948030    -0.0154550
  O       -3.5371250    -0.6067510    -0.0268560
  N       -0.0146490     0.2143920     0.0158120
  C        2.3272120     0.8379530     0.0018960
  C        1.4343893    -0.2897746     0.0027308
  C       -1.1489000    -0.6463140     0.0180560
  C        3.7164760     0.2336920    -0.0114620
  C       -2.5073920     0.1288020     0.0323140
  H        2.1647820     1.4966320    -0.8622200
  H        2.1776990     1.4878210     0.8748480
  H       -1.1517560    -1.3070500    -0.8570610
  H       -1.1395970    -1.3178250     0.8849180
  H       -0.2830670     1.1965190     0.0239890
  H        3.8663740    -0.3931470     0.8680960
  H        3.8530680    -0.3842560    -0.8995260
  H        4.4669480     1.0276640    -0.0135300
units angstrom
no_reorient  #important for SAPT in psi4, default
symmetry c1  #important for SAPT in psi4, default
}

set PROPERTIES_ORIGIN ["COM"]
properties('MP2/aug-cc-pvtz', properties = ['dipole'])
--------------------------------------------------------------------------

    Molecular point group: c1
  Charge       = -1
  Multiplicity = 1
  Basis Set: AUG-CC-PVTZ
    Blend: AUG-CC-PVTZ
  Basis Set: (AUG-CC-PVTZ AUX)
    Blend: AUG-CC-PVTZ-JKFIT

    Orbital Energies [Eh]
    ---------------------

    Doubly Occupied:

       1A    -20.430168     2A    -20.307514     3A    -20.297780
       4A    -15.409777     5A    -11.240450     6A    -11.149961
       7A    -11.145152     8A    -11.134848     9A    -11.089000
      10A     -1.312604    11A     -1.172613    12A     -1.071160
      13A     -1.040130    14A     -0.978904    15A     -0.820325
      16A     -0.746161    17A     -0.640331    18A     -0.594115
      19A     -0.551891    20A     -0.536371    21A     -0.531220
      22A     -0.470468    23A     -0.466835    24A     -0.442039
      25A     -0.429920    26A     -0.424630    27A     -0.411116
      28A     -0.403784    29A     -0.382879    30A     -0.336954
      31A     -0.315623    32A     -0.226355    33A     -0.220513
      34A     -0.209032    35A     -0.197578

  @DF-RHF Final Energy:  -473.24403456690050

   => Energetics <=

    Nuclear Repulsion Energy =            432.8665449053393672
    One-Electron Energy =               -1517.9447576009683871
    Two-Electron Energy =                 611.8341781287284675
    Total Energy =                       -473.2440345669004955
  Basis Set: (AUG-CC-PVTZ AUX)
    Blend: AUG-CC-PVTZ-RI
    Molecular point group: c1

    Geometry (in Angstrom), charge = -1, multiplicity = 1:

       Center              X                  Y                   Z               Mass
    ------------   -----------------  -----------------  -----------------  -----------------
         O            1.644230915915    -1.429184760117    -0.007590088754    15.994914619570
         O           -2.385553084085     1.414617239883    -0.015151088754    15.994914619570
         O           -3.448267084085    -0.586936760117    -0.026552088754    15.994914619570
         N            0.074208915915     0.234206239883     0.016115911246    14.003074004430
         C            2.416069915915     0.857767239883     0.002199911246    12.000000000000
         C            1.523247215915    -0.269960360117     0.003034711246    12.000000000000
         C           -1.060042084085    -0.626499760117     0.018359911246    12.000000000000
         C            3.805333915915     0.253506239883    -0.011158088754    12.000000000000
         C           -2.418534084085     0.148616239883     0.032617911246    12.000000000000
         H            2.253639915915     1.516446239883    -0.861916088754     1.007825032230
         H            2.266556915915     1.507635239883     0.875151911246     1.007825032230
         H           -1.062898084085    -1.287235760117    -0.856757088754     1.007825032230
         H           -1.050739084085    -1.298010760117     0.885221911246     1.007825032230
         H           -0.194209084085     1.216333239883     0.024292911246     1.007825032230
         H            3.955231915915    -0.373332760117     0.868399911246     1.007825032230
         H            3.941925915915    -0.364441760117    -0.899222088754     1.007825032230
         H            4.555805915915     1.047478239883    -0.013226088754     1.007825032230

  Basis Set: AUG-CC-PVTZ
    Blend: AUG-CC-PVTZ
  Basis Set: (AUG-CC-PVTZ AUX)
    Blend: AUG-CC-PVTZ-JKFIT
	 Reference Energy          =    -473.2440345669004955 [Eh]
	 Singles Energy            =      -0.0000000000000000 [Eh]
	 Same-Spin Energy          =      -0.4761595624839896 [Eh]
	 Opposite-Spin Energy      =      -1.4653068092519423 [Eh]
	 Correlation Energy        =      -1.9414663717359320 [Eh]
	 Total Energy              =    -475.1855009386364372 [Eh]

	 ================> DF-SCS-MP2 Energies <==================
	-----------------------------------------------------------
	 SCS Same-Spin Scale       =       0.3333333333333333 [-]
	 SCS Opposite-Spin Scale   =       1.2000000000000000 [-]
	 SCS Same-Spin Energy      =      -0.1587198541613299 [Eh]
	 SCS Opposite-Spin Energy  =      -1.7583681711023307 [Eh]
	 SCS Correlation Energy    =      -1.9170880252636606 [Eh]
	 SCS Total Energy          =    -475.1611225921641335 [Eh]
	-----------------------------------------------------------

  Dipole Moment: [D]
     X:    11.9013      Y:     0.9735      Z:     0.1181     Total:    11.9417

*** Psi4 exiting successfully. Buy a developer a beer!
