                               Psi4 1.3.2 release

  ==> Input File <==

--------------------------------------------------------------------------
#psi4
#
memory 32 gb

molecule  {
-1 1
  O        1.5553730    -1.4489990    -0.0078940
  O       -2.4744110     1.3948030    -0.0154550
  O       -3.5371250    -0.6067510    -0.0268560
  N       -0.0146490     0.2143920     0.0158120
  C        2.3272120     0.8379530     0.0018960
  C        1.2455030    -0.2240550     0.0044360
  C       -1.1489000    -0.6463140     0.0180560
  C        3.7164760     0.2336920    -0.0114620
  C       -2.5211869     0.1018660     0.0777546
  H        2.1647820     1.4966320    -0.8622200
  H        2.1776990     1.4878210     0.8748480
  H       -1.1517560    -1.3070500    -0.8570610
  H       -1.1743844    -1.3049797     0.8943969
  H       -0.2830670     1.1965190     0.0239890
  H        3.8663740    -0.3931470     0.8680960
  H        3.8530680    -0.3842560    -0.8995260
  H        4.4669480     1.0276640    -0.0135300
units angstrom
no_reorient  #important for SAPT in psi4, default
symmetry c1  #important for SAPT in psi4, default
}

set PROPERTIES_ORIGIN ["COM"]
properties('MP2/aug-cc-pvtz', properties = ['dipole'])
--------------------------------------------------------------------------

    Molecular point group: c1
  Charge       = -1
  Multiplicity = 1
  Basis Set: AUG-CC-PVTZ
    Blend: AUG-CC-PVTZ
  Basis Set: (AUG-CC-PVTZ AUX)
    Blend: AUG-CC-PVTZ-JKFIT

    Orbital Energies [Eh]
    ---------------------

    Doubly Occupied:

       1A    -20.390945     2A    -20.318243     3A    -20.315487
       4A    -15.451093     5A    -11.227278     6A    -11.165150
       7A    -11.137194     8A    -11.123796     9A    -11.109399
      10A     -1.234732    11A     -1.187622    12A     -1.103651
      13A     -1.077304    14A     -0.952133    15A     -0.836272
      16A     -0.758998    17A     -0.659328    18A     -0.589708
      19A     -0.545610    20A     -0.534914    21A     -0.505612
      22A     -0.484738    23A     -0.474080    24A     -0.426595
      25A     -0.424444    26A     -0.417245    27A     -0.413956
      28A     -0.394203    29A     -0.380143    30A     -0.343336
      31A     -0.303020    32A     -0.257530    33A     -0.232308
      34A     -0.225781    35A     -0.213134

  @DF-RHF Final Energy:  -473.27713440581829

   => Energetics <=

    Nuclear Repulsion Energy =            433.1939097899783633
    One-Electron Energy =               -1518.5121255528799793
    Two-Electron Energy =                 612.0410813570833852
    Total Energy =                       -473.2771344058182876
  Basis Set: (AUG-CC-PVTZ AUX)
    Blend: AUG-CC-PVTZ-RI
    Molecular point group: c1

    Geometry (in Angstrom), charge = -1, multiplicity = 1:

       Center              X                  Y                   Z               Mass
    ------------   -----------------  -----------------  -----------------  -----------------
         O            1.663202281392    -1.432862941409    -0.012013778281    15.994914619570
         O           -2.366581718608     1.410939058591    -0.019574778281    15.994914619570
         O           -3.429295718608    -0.590614941409    -0.030975778281    15.994914619570
         N            0.093180281392     0.230528058591     0.011692221719    14.003074004430
         C            2.435041281392     0.854089058591    -0.002223778281    12.000000000000
         C            1.353332281392    -0.207918941409     0.000316221719    12.000000000000
         C           -1.041070718608    -0.630177941409     0.013936221719    12.000000000000
         C            3.824305281392     0.249828058591    -0.015581778281    12.000000000000
         C           -2.413357618608     0.118002058591     0.073634821719    12.000000000000
         H            2.272611281392     1.512768058591    -0.866339778281     1.007825032230
         H            2.285528281392     1.503957058591     0.870728221719     1.007825032230
         H           -1.043926718608    -1.290913941409    -0.861180778281     1.007825032230
         H           -1.066555118608    -1.288843641409     0.890277121719     1.007825032230
         H           -0.175237718608     1.212655058591     0.019869221719     1.007825032230
         H            3.974203281392    -0.377010941409     0.863976221719     1.007825032230
         H            3.960897281392    -0.368119941409    -0.903645778281     1.007825032230
         H            4.574777281392     1.043800058591    -0.017649778281     1.007825032230

  Basis Set: AUG-CC-PVTZ
    Blend: AUG-CC-PVTZ
  Basis Set: (AUG-CC-PVTZ AUX)
    Blend: AUG-CC-PVTZ-JKFIT
	 Reference Energy          =    -473.2771344058182876 [Eh]
	 Singles Energy            =      -0.0000000000000000 [Eh]
	 Same-Spin Energy          =      -0.4764111661498958 [Eh]
	 Opposite-Spin Energy      =      -1.4659945928174811 [Eh]
	 Correlation Energy        =      -1.9424057589673769 [Eh]
	 Total Energy              =    -475.2195401647856556 [Eh]

	 ================> DF-SCS-MP2 Energies <==================
	-----------------------------------------------------------
	 SCS Same-Spin Scale       =       0.3333333333333333 [-]
	 SCS Opposite-Spin Scale   =       1.2000000000000000 [-]
	 SCS Same-Spin Energy      =      -0.1588037220499652 [Eh]
	 SCS Opposite-Spin Energy  =      -1.7591935113809773 [Eh]
	 SCS Correlation Energy    =      -1.9179972334309425 [Eh]
	 SCS Total Energy          =    -475.1951316392492117 [Eh]
	-----------------------------------------------------------

  Dipole Moment: [D]
     X:     9.7299      Y:     1.2945      Z:     0.1631     Total:     9.8170

*** Psi4 exiting successfully. Buy a developer a beer!
