                               Psi4 1.3.2 release

  ==> Input File <==

--------------------------------------------------------------------------
#psi4
#
memory 32 gb

molecule  {
-1 1
  O        1.5553730    -1.4489990    -0.0078940
  O       -2.4744110     1.3948030    -0.0154550
  O       -3.5371250    -0.6067510    -0.0268560
  N       -0.0146490     0.2143920     0.0158120
  C        2.3272120     0.8379530     0.0018960
  C        1.2455030    -0.2240550     0.0044360
  C       -1.1489000    -0.6463140     0.0180560
  C        3.7164760     0.2336920    -0.0114620
  C       -2.4205392     0.0792463     0.0314024
  H        2.1647820     1.4966320    -0.8622200
  H        2.1776990     1.4878210     0.8748480
  H       -1.1517560    -1.3070500    -0.8570610
  H       -1.1395970    -1.3178250     0.8849180
  H       -0.2830670     1.1965190     0.0239890
  H        3.8663740    -0.3931470     0.8680960
  H        3.8530680    -0.3842560    -0.8995260
  H        4.4669480     1.0276640    -0.0135300
units angstrom
no_reorient  #important for SAPT in psi4, default
symmetry c1  #important for SAPT in psi4, default
}

set PROPERTIES_ORIGIN ["COM"]
properties('MP2/aug-cc-pvtz', properties = ['dipole'])
--------------------------------------------------------------------------

    Molecular point group: c1
  Charge       = -1
  Multiplicity = 1
  Basis Set: AUG-CC-PVTZ
    Blend: AUG-CC-PVTZ
  Basis Set: (AUG-CC-PVTZ AUX)
    Blend: AUG-CC-PVTZ-JKFIT

    Orbital Energies [Eh]
    ---------------------

    Doubly Occupied:

       1A    -20.396290     2A    -20.319562     3A    -20.307993
       4A    -15.456914     5A    -11.232507     6A    -11.168464
       7A    -11.140685     8A    -11.126538     9A    -11.118434
      10A     -1.240388    11A     -1.163624    12A     -1.106375
      13A     -1.050912    14A     -0.956320    15A     -0.856551
      16A     -0.769769    17A     -0.666888    18A     -0.602814
      19A     -0.553204    20A     -0.539360    21A     -0.511990
      22A     -0.495309    23A     -0.474659    24A     -0.427795
      25A     -0.423978    26A     -0.421465    27A     -0.414532
      28A     -0.381826    29A     -0.379694    30A     -0.326508
      31A     -0.307416    32A     -0.263536    33A     -0.241761
      34A     -0.215367    35A     -0.200568

  @DF-RHF Final Energy:  -473.26141150798651

   => Energetics <=

    Nuclear Repulsion Energy =            433.6351860106308322
    One-Electron Energy =               -1519.2732036439663261
    Two-Electron Energy =                 612.3766061253489852
    Total Energy =                       -473.2614115079865087
  Basis Set: (AUG-CC-PVTZ AUX)
    Blend: AUG-CC-PVTZ-RI
    Molecular point group: c1

    Geometry (in Angstrom), charge = -1, multiplicity = 1:

       Center              X                  Y                   Z               Mass
    ------------   -----------------  -----------------  -----------------  -----------------
         O            1.653645741471    -1.430676233984    -0.007663315739    15.994914619570
         O           -2.376138258529     1.413125766016    -0.015224315739    15.994914619570
         O           -3.438852258529    -0.588428233984    -0.026625315739    15.994914619570
         N            0.083623741471     0.232714766016     0.016042684261    14.003074004430
         C            2.425484741471     0.856275766016     0.002126684261    12.000000000000
         C            1.343775741471    -0.205732233984     0.004666684261    12.000000000000
         C           -1.050627258529    -0.627991233984     0.018286684261    12.000000000000
         C            3.814748741471     0.252014766016    -0.011231315739    12.000000000000
         C           -2.322266458529     0.097569066016     0.031633084261    12.000000000000
         H            2.263054741471     1.514954766016    -0.861989315739     1.007825032230
         H            2.275971741471     1.506143766016     0.875078684261     1.007825032230
         H           -1.053483258529    -1.288727233984    -0.856830315739     1.007825032230
         H           -1.041324258529    -1.299502233984     0.885148684261     1.007825032230
         H           -0.184794258529     1.214841766016     0.024219684261     1.007825032230
         H            3.964646741471    -0.374824233984     0.868326684261     1.007825032230
         H            3.951340741471    -0.365933233984    -0.899295315739     1.007825032230
         H            4.565220741471     1.045986766016    -0.013299315739     1.007825032230

  Basis Set: AUG-CC-PVTZ
    Blend: AUG-CC-PVTZ
  Basis Set: (AUG-CC-PVTZ AUX)
    Blend: AUG-CC-PVTZ-JKFIT
	 Reference Energy          =    -473.2614115079865087 [Eh]
	 Singles Energy            =      -0.0000000000000000 [Eh]
	 Same-Spin Energy          =      -0.4783644613792412 [Eh]
	 Opposite-Spin Energy      =      -1.4701883904812032 [Eh]
	 Correlation Energy        =      -1.9485528518604442 [Eh]
	 Total Energy              =    -475.2099643598469356 [Eh]

	 ================> DF-SCS-MP2 Energies <==================
	-----------------------------------------------------------
	 SCS Same-Spin Scale       =       0.3333333333333333 [-]
	 SCS Opposite-Spin Scale   =       1.2000000000000000 [-]
	 SCS Same-Spin Energy      =      -0.1594548204597470 [Eh]
	 SCS Opposite-Spin Energy  =      -1.7642260685774438 [Eh]
	 SCS Correlation Energy    =      -1.9236808890371908 [Eh]
	 SCS Total Energy          =    -475.1850923970237091 [Eh]
	-----------------------------------------------------------

  Dipole Moment: [D]
     X:    10.4745      Y:     1.2904      Z:     0.1345     Total:    10.5545

*** Psi4 exiting successfully. Buy a developer a beer!
