                               Psi4 1.4a3.dev225

  ==> Input File <==

--------------------------------------------------------------------------
#psi4
#
memory 32 gb

molecule  {
-1 1
  O       -1.5186010     1.5599430    -0.1433510
  O        2.2638970    -1.4295650    -0.0456660
  O        3.5317420     0.4486470     0.1950180
  N        0.0040180    -0.1295860    -0.1151350
  C       -2.3384940    -0.6954940    -0.4149760
  C       -1.2508570     0.3439190    -0.2101810
  C        1.1754880     0.7048690     0.0403840
  C       -3.5055210    -0.4701880     0.5431350
  C        2.4055236    -0.1507714     0.0647297
  H       -2.6873130    -0.6028840    -1.4504550
  H       -1.9319890    -1.7056860    -0.3020050
  H        1.2516430     1.4279040    -0.7806770
  H        1.1211640     1.2868180     0.9683990
  H        0.2309340    -1.1197490    -0.1755670
  H       -3.1861080    -0.6022700     1.5809140
  H       -3.8905480     0.5449040     0.4307430
  H       -4.3152940    -1.1768540     0.3431720
units angstrom
no_reorient  #important for SAPT in psi4, default
symmetry c1  #important for SAPT in psi4, default
}

set PROPERTIES_ORIGIN ["COM"]
properties('MP2/aug-cc-pvtz', properties = ['dipole'])
--------------------------------------------------------------------------

    Molecular point group: c1
  Charge       = -1
  Multiplicity = 1
  Basis Set: AUG-CC-PVTZ
    Blend: AUG-CC-PVTZ
  Basis Set: (AUG-CC-PVTZ AUX)
    Blend: AUG-CC-PVTZ-JKFIT

    Orbital Energies [Eh]
    ---------------------

    Doubly Occupied:

       1A    -20.389516     2A    -20.320866     3A    -20.311924
       4A    -15.447751     5A    -11.224453     6A    -11.165068
       7A    -11.136859     8A    -11.129031     9A    -11.114145
      10A     -1.240879    11A     -1.178746    12A     -1.095103
      13A     -1.070405    14A     -0.951414    15A     -0.841434
      16A     -0.765222    17A     -0.655772    18A     -0.591600
      19A     -0.548521    20A     -0.528686    21A     -0.505135
      22A     -0.489857    23A     -0.476042    24A     -0.439000
      25A     -0.427242    26A     -0.417965    27A     -0.407973
      28A     -0.389759    29A     -0.381003    30A     -0.337244
      31A     -0.300511    32A     -0.259129    33A     -0.238983
      34A     -0.225573    35A     -0.209616

  @DF-RHF Final Energy:  -473.28123932916355

   => Energetics <=

    Nuclear Repulsion Energy =            435.3714672445815950
    One-Electron Energy =               -1522.8805587527988337
    Two-Electron Energy =                 614.2278521790537980
    Total Energy =                       -473.2812393291635544
  Basis Set: (AUG-CC-PVTZ AUX)
    Blend: AUG-CC-PVTZ-RI
    Molecular point group: c1

    Geometry (in Angstrom), charge = -1, multiplicity = 1:

       Center              X                  Y                   Z               Mass
    ------------   -----------------  -----------------  -----------------  -----------------
         O           -1.616934955131     1.542474316764    -0.138584960938    15.994914619570
         O            2.165563044869    -1.447033683236    -0.040899960938    15.994914619570
         O            3.433408044869     0.431178316764     0.199784039062    15.994914619570
         N           -0.094315955131    -0.147054683236    -0.110368960938    14.003074004430
         C           -2.436827955131    -0.712962683236    -0.410209960938    12.000000000000
         C           -1.349190955131     0.326450316764    -0.205414960938    12.000000000000
         C            1.077154044869     0.687400316764     0.045150039062    12.000000000000
         C           -3.603854955131    -0.487656683236     0.547901039062    12.000000000000
         C            2.307189644869    -0.168240083236     0.069495739062    12.000000000000
         H           -2.785646955131    -0.620352683236    -1.445688960938     1.007825032230
         H           -2.030322955131    -1.723154683236    -0.297238960938     1.007825032230
         H            1.153309044869     1.410435316764    -0.775910960938     1.007825032230
         H            1.022830044869     1.269349316764     0.973165039062     1.007825032230
         H            0.132600044869    -1.137217683236    -0.170800960938     1.007825032230
         H           -3.284441955131    -0.619738683236     1.585680039062     1.007825032230
         H           -3.988881955131     0.527435316764     0.435509039062     1.007825032230
         H           -4.413627955131    -1.194322683236     0.347938039062     1.007825032230

  Basis Set: AUG-CC-PVTZ
    Blend: AUG-CC-PVTZ
  Basis Set: (AUG-CC-PVTZ AUX)
    Blend: AUG-CC-PVTZ-JKFIT
	 Reference Energy          =    -473.2812393291635544 [Eh]
	 Singles Energy            =      -0.0000000000000000 [Eh]
	 Same-Spin Energy          =      -0.4767533078455400 [Eh]
	 Opposite-Spin Energy      =      -1.4668360165238035 [Eh]
	 Correlation Energy        =      -1.9435893243693436 [Eh]
	 Total Energy              =    -475.2248286535328816 [Eh]

	 ================> DF-SCS-MP2 Energies <==================
	-----------------------------------------------------------
	 SCS Same-Spin Scale       =       0.3333333333333333 [-]
	 SCS Opposite-Spin Scale   =       1.2000000000000000 [-]
	 SCS Same-Spin Energy      =      -0.1589177692818467 [Eh]
	 SCS Opposite-Spin Energy  =      -1.7602032198285642 [Eh]
	 SCS Correlation Energy    =      -1.9191209891104108 [Eh]
	 SCS Total Energy          =    -475.2003603182739653 [Eh]
	-----------------------------------------------------------

  Dipole Moment: [D]
     X:    -9.6728      Y:    -0.9836      Z:    -0.4194     Total:     9.7317

*** Psi4 exiting successfully. Buy a developer a beer!
