                               Psi4 1.3.2 release

  ==> Input File <==

--------------------------------------------------------------------------
#psi4
#
memory 32 gb

molecule  {
-1 1
  O        1.5553730    -1.4489990    -0.0078940
  O       -2.4744110     1.3948030    -0.0154550
  O       -3.5371250    -0.6067510    -0.0268560
  N       -0.0146490     0.2143920     0.0158120
  C        2.3272120     0.8379530     0.0018960
  C        1.2455030    -0.2240550     0.0044360
  C       -1.1563673    -0.6363835     0.0181713
  C        3.7164760     0.2336920    -0.0114620
  C       -2.5073920     0.1288020     0.0323140
  H        2.1647820     1.4966320    -0.8622200
  H        2.1776990     1.4878210     0.8748480
  H       -1.1517560    -1.3070500    -0.8570610
  H       -1.1395970    -1.3178250     0.8849180
  H       -0.2916274     1.1941389     0.0240325
  H        3.8663740    -0.3931470     0.8680960
  H        3.8530680    -0.3842560    -0.8995260
  H        4.4669480     1.0276640    -0.0135300
units angstrom
no_reorient  #important for SAPT in psi4, default
symmetry c1  #important for SAPT in psi4, default
}

set PROPERTIES_ORIGIN ["COM"]
properties('MP2/aug-cc-pvtz', properties = ['dipole'])
--------------------------------------------------------------------------

    Molecular point group: c1
  Charge       = -1
  Multiplicity = 1
  Basis Set: AUG-CC-PVTZ
    Blend: AUG-CC-PVTZ
  Basis Set: (AUG-CC-PVTZ AUX)
    Blend: AUG-CC-PVTZ-JKFIT

    Orbital Energies [Eh]
    ---------------------

    Doubly Occupied:

       1A    -20.391575     2A    -20.322537     3A    -20.310846
       4A    -15.451224     5A    -11.227972     6A    -11.164442
       7A    -11.137608     8A    -11.124117     9A    -11.109708
      10A     -1.235278    11A     -1.187555    12A     -1.102554
      13A     -1.082584    14A     -0.952591    15A     -0.836921
      16A     -0.758853    17A     -0.660685    18A     -0.590814
      19A     -0.546101    20A     -0.535246    21A     -0.506460
      22A     -0.483152    23A     -0.474937    24A     -0.426405
      25A     -0.425660    26A     -0.416968    27A     -0.413929
      28A     -0.395795    29A     -0.380327    30A     -0.343129
      31A     -0.303494    32A     -0.257086    33A     -0.235795
      34A     -0.225960    35A     -0.213299

  @DF-RHF Final Energy:  -473.28144710958981

   => Energetics <=

    Nuclear Repulsion Energy =            433.4814223249271663
    One-Electron Energy =               -1519.0625225070393753
    Two-Electron Energy =                 612.2996530725222328
    Total Energy =                       -473.2814471095898625
  Basis Set: (AUG-CC-PVTZ AUX)
    Blend: AUG-CC-PVTZ-RI
    Molecular point group: c1

    Geometry (in Angstrom), charge = -1, multiplicity = 1:

       Center              X                  Y                   Z               Mass
    ------------   -----------------  -----------------  -----------------  -----------------
         O            1.662415175678    -1.436146694486    -0.007758406862    15.994914619570
         O           -2.367368824322     1.407655305514    -0.015319406862    15.994914619570
         O           -3.430082824322    -0.593898694486    -0.026720406862    15.994914619570
         N            0.092393175678     0.227244305514     0.015947593138    14.003074004430
         C            2.434254175678     0.850805305514     0.002031593138    12.000000000000
         C            1.352545175678    -0.211202694486     0.004571593138    12.000000000000
         C           -1.049325124322    -0.623531194486     0.018306893138    12.000000000000
         C            3.823518175678     0.246544305514    -0.011326406862    12.000000000000
         C           -2.400349824322     0.141654305514     0.032449593138    12.000000000000
         H            2.271824175678     1.509484305514    -0.862084406862     1.007825032230
         H            2.284741175678     1.500673305514     0.874983593138     1.007825032230
         H           -1.044713824322    -1.294197694486    -0.856925406862     1.007825032230
         H           -1.032554824322    -1.304972694486     0.885053593138     1.007825032230
         H           -0.184585224322     1.206991205514     0.024168093138     1.007825032230
         H            3.973416175678    -0.380294694486     0.868231593138     1.007825032230
         H            3.960110175678    -0.371403694486    -0.899390406862     1.007825032230
         H            4.573990175678     1.040516305514    -0.013394406862     1.007825032230

  Basis Set: AUG-CC-PVTZ
    Blend: AUG-CC-PVTZ
  Basis Set: (AUG-CC-PVTZ AUX)
    Blend: AUG-CC-PVTZ-JKFIT
	 Reference Energy          =    -473.2814471095898057 [Eh]
	 Singles Energy            =      -0.0000000000000000 [Eh]
	 Same-Spin Energy          =      -0.4762246036415365 [Eh]
	 Opposite-Spin Energy      =      -1.4654845454906180 [Eh]
	 Correlation Energy        =      -1.9417091491321545 [Eh]
	 Total Energy              =    -475.2231562587219855 [Eh]

	 ================> DF-SCS-MP2 Energies <==================
	-----------------------------------------------------------
	 SCS Same-Spin Scale       =       0.3333333333333333 [-]
	 SCS Opposite-Spin Scale   =       1.2000000000000000 [-]
	 SCS Same-Spin Energy      =      -0.1587415345471788 [Eh]
	 SCS Opposite-Spin Energy  =      -1.7585814545887415 [Eh]
	 SCS Correlation Energy    =      -1.9173229891359203 [Eh]
	 SCS Total Energy          =    -475.1987700987257313 [Eh]
	-----------------------------------------------------------

  Dipole Moment: [D]
     X:     9.8923      Y:     1.5644      Z:     0.1367     Total:    10.0161

*** Psi4 exiting successfully. Buy a developer a beer!
