                               Psi4 1.3.2 release

  ==> Input File <==

--------------------------------------------------------------------------
#psi4
#
memory 32 gb

molecule  {
-1 1
  O        1.4908397    -1.4635427    -0.0073721
  O       -2.4744110     1.3948030    -0.0154550
  O       -3.5371250    -0.6067510    -0.0268560
  N       -0.0146490     0.2143920     0.0158120
  C        2.2701536     0.8931068     0.0028735
  C        1.2455030    -0.2240550     0.0044360
  C       -1.1489000    -0.6463140     0.0180560
  C        3.7164760     0.2336920    -0.0114620
  C       -2.5073920     0.1288020     0.0323140
  H        2.1647820     1.4966320    -0.8622200
  H        2.1776990     1.4878210     0.8748480
  H       -1.1517560    -1.3070500    -0.8570610
  H       -1.1395970    -1.3178250     0.8849180
  H       -0.2830670     1.1965190     0.0239890
  H        3.8663740    -0.3931470     0.8680960
  H        3.8530680    -0.3842560    -0.8995260
  H        4.4669480     1.0276640    -0.0135300
units angstrom
no_reorient  #important for SAPT in psi4, default
symmetry c1  #important for SAPT in psi4, default
}

set PROPERTIES_ORIGIN ["COM"]
properties('MP2/aug-cc-pvtz', properties = ['dipole'])
--------------------------------------------------------------------------

    Molecular point group: c1
  Charge       = -1
  Multiplicity = 1
  Basis Set: AUG-CC-PVTZ
    Blend: AUG-CC-PVTZ
  Basis Set: (AUG-CC-PVTZ AUX)
    Blend: AUG-CC-PVTZ-JKFIT

    Orbital Energies [Eh]
    ---------------------

    Doubly Occupied:

       1A    -20.392048     2A    -20.320893     3A    -20.309301
       4A    -15.447560     5A    -11.227460     6A    -11.162877
       7A    -11.137500     8A    -11.128933     9A    -11.106104
      10A     -1.235816    11A     -1.185350    12A     -1.098945
      13A     -1.080690    14A     -0.946647    15A     -0.833872
      16A     -0.762362    17A     -0.659747    18A     -0.592039
      19A     -0.543185    20A     -0.540751    21A     -0.506118
      22A     -0.482797    23A     -0.471939    24A     -0.426015
      25A     -0.425581    26A     -0.418805    27A     -0.405575
      28A     -0.391006    29A     -0.387554    30A     -0.342693
      31A     -0.305518    32A     -0.255442    33A     -0.233544
      34A     -0.223099    35A     -0.211745

  @DF-RHF Final Energy:  -473.27607774288850

   => Energetics <=

    Nuclear Repulsion Energy =            433.3108516024245205
    One-Electron Energy =               -1518.7748445280833494
    Two-Electron Energy =                 612.1879151827703254
    Total Energy =                       -473.2760777428885604
  Basis Set: (AUG-CC-PVTZ AUX)
    Blend: AUG-CC-PVTZ-RI
    Molecular point group: c1

    Geometry (in Angstrom), charge = -1, multiplicity = 1:

       Center              X                  Y                   Z               Mass
    ------------   -----------------  -----------------  -----------------  -----------------
         O            1.610328359601    -1.453092947966    -0.007379915133    15.994914619570
         O           -2.354922340399     1.405252752034    -0.015462815133    15.994914619570
         O           -3.417636340399    -0.596301247966    -0.026863815133    15.994914619570
         N            0.104839659601     0.224841752034     0.015804184867    14.003074004430
         C            2.389642259601     0.903556552034     0.002865684867    12.000000000000
         C            1.364991659601    -0.213605247966     0.004428184867    12.000000000000
         C           -1.029411340399    -0.635864247966     0.018048184867    12.000000000000
         C            3.835964659601     0.244141752034    -0.011469815133    12.000000000000
         C           -2.387903340399     0.139251752034     0.032306184867    12.000000000000
         H            2.284270659601     1.507081752034    -0.862227815133     1.007825032230
         H            2.297187659601     1.498270752034     0.874840184867     1.007825032230
         H           -1.032267340399    -1.296600247966    -0.857068815133     1.007825032230
         H           -1.020108340399    -1.307375247966     0.884910184867     1.007825032230
         H           -0.163578340399     1.206968752034     0.023981184867     1.007825032230
         H            3.985862659601    -0.382697247966     0.868088184867     1.007825032230
         H            3.972556659601    -0.373806247966    -0.899533815133     1.007825032230
         H            4.586436659601     1.038113752034    -0.013537815133     1.007825032230

  Basis Set: AUG-CC-PVTZ
    Blend: AUG-CC-PVTZ
  Basis Set: (AUG-CC-PVTZ AUX)
    Blend: AUG-CC-PVTZ-JKFIT
	 Reference Energy          =    -473.2760777428885035 [Eh]
	 Singles Energy            =      -0.0000000000000000 [Eh]
	 Same-Spin Energy          =      -0.4760509171902438 [Eh]
	 Opposite-Spin Energy      =      -1.4657241013267175 [Eh]
	 Correlation Energy        =      -1.9417750185169613 [Eh]
	 Total Energy              =    -475.2178527614054815 [Eh]

	 ================> DF-SCS-MP2 Energies <==================
	-----------------------------------------------------------
	 SCS Same-Spin Scale       =       0.3333333333333333 [-]
	 SCS Opposite-Spin Scale   =       1.2000000000000000 [-]
	 SCS Same-Spin Energy      =      -0.1586836390634146 [Eh]
	 SCS Opposite-Spin Energy  =      -1.7588689215920610 [Eh]
	 SCS Correlation Energy    =      -1.9175525606554755 [Eh]
	 SCS Total Energy          =    -475.1936303035439551 [Eh]
	-----------------------------------------------------------

  Dipole Moment: [D]
     X:    10.0159      Y:     1.6447      Z:     0.1370     Total:    10.1510

*** Psi4 exiting successfully. Buy a developer a beer!
