                               Psi4 1.3.2 release

  ==> Input File <==

--------------------------------------------------------------------------
#psi4
#
memory 32 gb

molecule  {
-1 1
  O        1.5553730    -1.4489990    -0.0078940
  O       -2.4744110     1.3948030    -0.0154550
  O       -3.5371250    -0.6067510    -0.0268560
  N       -0.0146490     0.2143920     0.0158120
  C        2.3272120     0.8379530     0.0018960
  C        1.2455030    -0.2240550     0.0044360
  C       -1.1489000    -0.6463140     0.0180560
  C        3.7191157     0.2401538    -0.0226905
  C       -2.5073920     0.1288020     0.0323140
  H        2.1736812     1.4947683    -0.8652602
  H        2.1776990     1.4878210     0.8748480
  H       -1.1517560    -1.3070500    -0.8570610
  H       -1.1395970    -1.3178250     0.8849180
  H       -0.2830670     1.1965190     0.0239890
  H        3.8663740    -0.3931470     0.8680960
  H        3.8530680    -0.3842560    -0.8995260
  H        4.4669480     1.0276640    -0.0135300
units angstrom
no_reorient  #important for SAPT in psi4, default
symmetry c1  #important for SAPT in psi4, default
}

set PROPERTIES_ORIGIN ["COM"]
properties('MP2/aug-cc-pvtz', properties = ['dipole'])
--------------------------------------------------------------------------

    Molecular point group: c1
  Charge       = -1
  Multiplicity = 1
  Basis Set: AUG-CC-PVTZ
    Blend: AUG-CC-PVTZ
  Basis Set: (AUG-CC-PVTZ AUX)
    Blend: AUG-CC-PVTZ-JKFIT

    Orbital Energies [Eh]
    ---------------------

    Doubly Occupied:

       1A    -20.391494     2A    -20.322523     3A    -20.310844
       4A    -15.451331     5A    -11.227734     6A    -11.164768
       7A    -11.137546     8A    -11.123958     9A    -11.108942
      10A     -1.235256    11A     -1.187014    12A     -1.102436
      13A     -1.082420    14A     -0.952574    15A     -0.836375
      16A     -0.758443    17A     -0.660265    18A     -0.590084
      19A     -0.544991    20A     -0.535078    21A     -0.507189
      22A     -0.484016    23A     -0.475665    24A     -0.426238
      25A     -0.425543    26A     -0.417122    27A     -0.412274
      28A     -0.397079    29A     -0.379944    30A     -0.344072
      31A     -0.303393    32A     -0.257847    33A     -0.235290
      34A     -0.224852    35A     -0.213233

  @DF-RHF Final Energy:  -473.28161890406068

   => Energetics <=

    Nuclear Repulsion Energy =            433.3348608637292614
    One-Electron Energy =               -1518.7772952544512464
    Two-Electron Energy =                 612.1608154866612495
    Total Energy =                       -473.2816189040606787
  Basis Set: (AUG-CC-PVTZ AUX)
    Blend: AUG-CC-PVTZ-RI
    Molecular point group: c1

    Geometry (in Angstrom), charge = -1, multiplicity = 1:

       Center              X                  Y                   Z               Mass
    ------------   -----------------  -----------------  -----------------  -----------------
         O            1.661347280443    -1.435830632764    -0.006687795694    15.994914619570
         O           -2.368436719557     1.407971367236    -0.014248795694    15.994914619570
         O           -3.431150719557    -0.593582632764    -0.025649795694    15.994914619570
         N            0.091325280443     0.227560367236     0.017018204306    14.003074004430
         C            2.433186280443     0.851121367236     0.003102204306    12.000000000000
         C            1.351477280443    -0.210886632764     0.005642204306    12.000000000000
         C           -1.042925719557    -0.633145632764     0.019262204306    12.000000000000
         C            3.825089980443     0.253322167236    -0.021484295694    12.000000000000
         C           -2.401417719557     0.141970367236     0.033520204306    12.000000000000
         H            2.279655480443     1.507936667236    -0.864053995694     1.007825032230
         H            2.283673280443     1.500989367236     0.876054204306     1.007825032230
         H           -1.045781719557    -1.293881632764    -0.855854795694     1.007825032230
         H           -1.033622719557    -1.304656632764     0.886124204306     1.007825032230
         H           -0.177092719557     1.209687367236     0.025195204306     1.007825032230
         H            3.972348280443    -0.379978632764     0.869302204306     1.007825032230
         H            3.959042280443    -0.371087632764    -0.898319795694     1.007825032230
         H            4.572922280443     1.040832367236    -0.012323795694     1.007825032230

  Basis Set: AUG-CC-PVTZ
    Blend: AUG-CC-PVTZ
  Basis Set: (AUG-CC-PVTZ AUX)
    Blend: AUG-CC-PVTZ-JKFIT
	 Reference Energy          =    -473.2816189040606787 [Eh]
	 Singles Energy            =      -0.0000000000000000 [Eh]
	 Same-Spin Energy          =      -0.4761609199683230 [Eh]
	 Opposite-Spin Energy      =      -1.4654074757352660 [Eh]
	 Correlation Energy        =      -1.9415683957035890 [Eh]
	 Total Energy              =    -475.2231872997642768 [Eh]

	 ================> DF-SCS-MP2 Energies <==================
	-----------------------------------------------------------
	 SCS Same-Spin Scale       =       0.3333333333333333 [-]
	 SCS Opposite-Spin Scale   =       1.2000000000000000 [-]
	 SCS Same-Spin Energy      =      -0.1587203066561077 [Eh]
	 SCS Opposite-Spin Energy  =      -1.7584889708823190 [Eh]
	 SCS Correlation Energy    =      -1.9172092775384266 [Eh]
	 SCS Total Energy          =    -475.1988281815990831 [Eh]
	-----------------------------------------------------------

  Dipole Moment: [D]
     X:     9.8968      Y:     1.5696      Z:     0.1265     Total:    10.0213

*** Psi4 exiting successfully. Buy a developer a beer!
