                               Psi4 1.3.2 release

  ==> Input File <==

--------------------------------------------------------------------------
#psi4
#
memory 32 gb

molecule  {
-1 1
  O        1.5553730    -1.4489990    -0.0078940
  O       -2.4744110     1.3948030    -0.0154550
  O       -3.5498395    -0.5886759    -0.0261503
  N       -0.0146490     0.2143920     0.0158120
  C        2.3272120     0.8379530     0.0018960
  C        1.2455030    -0.2240550     0.0044360
  C       -1.1355876    -0.6225295     0.0195760
  C        3.7164760     0.2336920    -0.0114620
  C       -2.5073920     0.1288020     0.0323140
  H        2.1647820     1.4966320    -0.8622200
  H        2.1776990     1.4878210     0.8748480
  H       -1.1517560    -1.3070500    -0.8570610
  H       -1.1395970    -1.3178250     0.8849180
  H       -0.2830670     1.1965190     0.0239890
  H        3.8663740    -0.3931470     0.8680960
  H        3.8530680    -0.3842560    -0.8995260
  H        4.4669480     1.0276640    -0.0135300
units angstrom
no_reorient  #important for SAPT in psi4, default
symmetry c1  #important for SAPT in psi4, default
}

set PROPERTIES_ORIGIN ["COM"]
properties('MP2/aug-cc-pvtz', properties = ['dipole'])
--------------------------------------------------------------------------

    Molecular point group: c1
  Charge       = -1
  Multiplicity = 1
  Basis Set: AUG-CC-PVTZ
    Blend: AUG-CC-PVTZ
  Basis Set: (AUG-CC-PVTZ AUX)
    Blend: AUG-CC-PVTZ-JKFIT

    Orbital Energies [Eh]
    ---------------------

    Doubly Occupied:

       1A    -20.393157     2A    -20.320509     3A    -20.310349
       4A    -15.452838     5A    -11.229284     6A    -11.164229
       7A    -11.138659     8A    -11.124886     9A    -11.110363
      10A     -1.237487    11A     -1.186812    12A     -1.108472
      13A     -1.080513    14A     -0.953976    15A     -0.838035
      16A     -0.758393    17A     -0.662966    18A     -0.592838
      19A     -0.548388    20A     -0.536512    21A     -0.507128
      22A     -0.483716    23A     -0.476325    24A     -0.426744
      25A     -0.424707    26A     -0.416490    27A     -0.414373
      28A     -0.396147    29A     -0.380429    30A     -0.342480
      31A     -0.304902    32A     -0.256220    33A     -0.233300
      34A     -0.225236    35A     -0.211939

  @DF-RHF Final Energy:  -473.27885094724888

   => Energetics <=

    Nuclear Repulsion Energy =            433.6590242934332764
    One-Electron Energy =               -1519.3781451544907668
    Two-Electron Energy =                 612.4402699138086064
    Total Energy =                       -473.2788509472488840
  Basis Set: (AUG-CC-PVTZ AUX)
    Blend: AUG-CC-PVTZ-RI
    Molecular point group: c1

    Geometry (in Angstrom), charge = -1, multiplicity = 1:

       Center              X                  Y                   Z               Mass
    ------------   -----------------  -----------------  -----------------  -----------------
         O            1.661995212065    -1.439666532501    -0.007974478223    15.994914619570
         O           -2.367788787935     1.404135467499    -0.015535478223    15.994914619570
         O           -3.443217287935    -0.579343432501    -0.026230778223    15.994914619570
         N            0.091973212065     0.223724467499     0.015731521777    14.003074004430
         C            2.433834212065     0.847285467499     0.001815521777    12.000000000000
         C            1.352125212065    -0.214722532501     0.004355521777    12.000000000000
         C           -1.028965387935    -0.613197032501     0.019495521777    12.000000000000
         C            3.823098212065     0.243024467499    -0.011542478223    12.000000000000
         C           -2.400769787935     0.138134467499     0.032233521777    12.000000000000
         H            2.271404212065     1.505964467499    -0.862300478223     1.007825032230
         H            2.284321212065     1.497153467499     0.874767521777     1.007825032230
         H           -1.045133787935    -1.297717532501    -0.857141478223     1.007825032230
         H           -1.032974787935    -1.308492532501     0.884837521777     1.007825032230
         H           -0.176444787935     1.205851467499     0.023908521777     1.007825032230
         H            3.972996212065    -0.383814532501     0.868015521777     1.007825032230
         H            3.959690212065    -0.374923532501    -0.899606478223     1.007825032230
         H            4.573570212065     1.036996467499    -0.013610478223     1.007825032230

  Basis Set: AUG-CC-PVTZ
    Blend: AUG-CC-PVTZ
  Basis Set: (AUG-CC-PVTZ AUX)
    Blend: AUG-CC-PVTZ-JKFIT
	 Reference Energy          =    -473.2788509472488840 [Eh]
	 Singles Energy            =      -0.0000000000000000 [Eh]
	 Same-Spin Energy          =      -0.4764323080981031 [Eh]
	 Opposite-Spin Energy      =      -1.4655771821169394 [Eh]
	 Correlation Energy        =      -1.9420094902150424 [Eh]
	 Total Energy              =    -475.2208604374638981 [Eh]

	 ================> DF-SCS-MP2 Energies <==================
	-----------------------------------------------------------
	 SCS Same-Spin Scale       =       0.3333333333333333 [-]
	 SCS Opposite-Spin Scale   =       1.2000000000000000 [-]
	 SCS Same-Spin Energy      =      -0.1588107693660344 [Eh]
	 SCS Opposite-Spin Energy  =      -1.7586926185403273 [Eh]
	 SCS Correlation Energy    =      -1.9175033879063617 [Eh]
	 SCS Total Energy          =    -475.1963543351552630 [Eh]
	-----------------------------------------------------------

  Dipole Moment: [D]
     X:    10.0183      Y:     1.5639      Z:     0.1374     Total:    10.1405

*** Psi4 exiting successfully. Buy a developer a beer!
