                               Psi4 1.3.2 release

  ==> Input File <==

--------------------------------------------------------------------------
#psi4
#
memory 32 gb

molecule  {
-1 1
  O        1.5553730    -1.4489990    -0.0078940
  O       -2.4744110     1.3948030    -0.0154550
  O       -3.5371250    -0.6067510    -0.0268560
  N       -0.0146490     0.2143920     0.0158120
  C        2.3272120     0.8379530     0.0018960
  C        1.1914072    -0.1659886     0.0051333
  C       -1.1489000    -0.6463140     0.0180560
  C        3.7461989     0.3072308    -0.0113043
  C       -2.5073920     0.1288020     0.0323140
  H        2.1647820     1.4966320    -0.8622200
  H        2.1776990     1.4878210     0.8748480
  H       -1.1517560    -1.3070500    -0.8570610
  H       -1.1395970    -1.3178250     0.8849180
  H       -0.2830670     1.1965190     0.0239890
  H        3.8663740    -0.3931470     0.8680960
  H        3.8530680    -0.3842560    -0.8995260
  H        4.4669480     1.0276640    -0.0135300
units angstrom
no_reorient  #important for SAPT in psi4, default
symmetry c1  #important for SAPT in psi4, default
}

set PROPERTIES_ORIGIN ["COM"]
properties('MP2/aug-cc-pvtz', properties = ['dipole'])
--------------------------------------------------------------------------

    Molecular point group: c1
  Charge       = -1
  Multiplicity = 1
  Basis Set: AUG-CC-PVTZ
    Blend: AUG-CC-PVTZ
  Basis Set: (AUG-CC-PVTZ AUX)
    Blend: AUG-CC-PVTZ-JKFIT

    Orbital Energies [Eh]
    ---------------------

    Doubly Occupied:

       1A    -20.373364     2A    -20.328134     3A    -20.316030
       4A    -15.466860     5A    -11.224299     6A    -11.170588
       7A    -11.138920     8A    -11.122978     9A    -11.117402
      10A     -1.216165    11A     -1.189742    12A     -1.107567
      13A     -1.088242    14A     -0.950146    15A     -0.852121
      16A     -0.765271    17A     -0.675714    18A     -0.592057
      19A     -0.549255    20A     -0.532690    21A     -0.510908
      22A     -0.488887    23A     -0.475966    24A     -0.439689
      25A     -0.426476    26A     -0.407044    27A     -0.404534
      28A     -0.388185    29A     -0.373392    30A     -0.339834
      31A     -0.288023    32A     -0.260467    33A     -0.240608
      34A     -0.230780    35A     -0.218644

  @DF-RHF Final Energy:  -473.25788190216548

   => Energetics <=

    Nuclear Repulsion Energy =            433.1033365931596677
    One-Electron Energy =               -1518.1804746641014390
    Two-Electron Energy =                 611.8192561687764055
    Total Energy =                       -473.2578819021654226
  Basis Set: (AUG-CC-PVTZ AUX)
    Blend: AUG-CC-PVTZ-RI
    Molecular point group: c1

    Geometry (in Angstrom), charge = -1, multiplicity = 1:

       Center              X                  Y                   Z               Mass
    ------------   -----------------  -----------------  -----------------  -----------------
         O            1.663908748843    -1.447392295581    -0.007826323288    15.994914619570
         O           -2.365875251157     1.396409704419    -0.015387323288    15.994914619570
         O           -3.428589251157    -0.605144295581    -0.026788323288    15.994914619570
         N            0.093886748843     0.215998704419     0.015879676712    14.003074004430
         C            2.435747748843     0.839559704419     0.001963676712    12.000000000000
         C            1.299942948843    -0.164381895581     0.005200976712    12.000000000000
         C           -1.040364251157    -0.644707295581     0.018123676712    12.000000000000
         C            3.854734648843     0.308837504419    -0.011236623288    12.000000000000
         C           -2.398856251157     0.130408704419     0.032381676712    12.000000000000
         H            2.273317748843     1.498238704419    -0.862152323288     1.007825032230
         H            2.286234748843     1.489427704419     0.874915676712     1.007825032230
         H           -1.043220251157    -1.305443295581    -0.856993323288     1.007825032230
         H           -1.031061251157    -1.316218295581     0.884985676712     1.007825032230
         H           -0.174531251157     1.198125704419     0.024056676712     1.007825032230
         H            3.974909748843    -0.391540295581     0.868163676712     1.007825032230
         H            3.961603748843    -0.382649295581    -0.899458323288     1.007825032230
         H            4.575483748843     1.029270704419    -0.013462323288     1.007825032230

  Basis Set: AUG-CC-PVTZ
    Blend: AUG-CC-PVTZ
  Basis Set: (AUG-CC-PVTZ AUX)
    Blend: AUG-CC-PVTZ-JKFIT
	 Reference Energy          =    -473.2578819021654795 [Eh]
	 Singles Energy            =      -0.0000000000000000 [Eh]
	 Same-Spin Energy          =      -0.4772180045009869 [Eh]
	 Opposite-Spin Energy      =      -1.4677077720966754 [Eh]
	 Correlation Energy        =      -1.9449257765976622 [Eh]
	 Total Energy              =    -475.2028076787631221 [Eh]

	 ================> DF-SCS-MP2 Energies <==================
	-----------------------------------------------------------
	 SCS Same-Spin Scale       =       0.3333333333333333 [-]
	 SCS Opposite-Spin Scale   =       1.2000000000000000 [-]
	 SCS Same-Spin Energy      =      -0.1590726681669956 [Eh]
	 SCS Opposite-Spin Energy  =      -1.7612493265160103 [Eh]
	 SCS Correlation Energy    =      -1.9203219946830059 [Eh]
	 SCS Total Energy          =    -475.1782038968484585 [Eh]
	-----------------------------------------------------------

  Dipole Moment: [D]
     X:     9.2738      Y:     2.0387      Z:     0.1436     Total:     9.4963

*** Psi4 exiting successfully. Buy a developer a beer!
