                               Psi4 1.3.2 release

  ==> Input File <==

--------------------------------------------------------------------------
#psi4
#
memory 32 gb

molecule  {
-1 1
  O        1.5553730    -1.4489990    -0.0078940
  O       -2.4744110     1.3948030    -0.0154550
  O       -3.5371250    -0.6067510    -0.0268560
  N       -0.0146490     0.2143920     0.0158120
  C        2.3272120     0.8379530     0.0018960
  C        1.2455030    -0.2240550     0.0044360
  C       -1.0692391    -0.5858647     0.0178984
  C        3.7164760     0.2336920    -0.0114620
  C       -2.5073920     0.1288020     0.0323140
  H        2.1647820     1.4966320    -0.8622200
  H        2.1776990     1.4878210     0.8748480
  H       -1.1517560    -1.3070500    -0.8570610
  H       -1.1395970    -1.3178250     0.8849180
  H       -0.2830670     1.1965190     0.0239890
  H        3.8663740    -0.3931470     0.8680960
  H        3.8530680    -0.3842560    -0.8995260
  H        4.4669480     1.0276640    -0.0135300
units angstrom
no_reorient  #important for SAPT in psi4, default
symmetry c1  #important for SAPT in psi4, default
}

set PROPERTIES_ORIGIN ["COM"]
properties('MP2/aug-cc-pvtz', properties = ['dipole'])
--------------------------------------------------------------------------

    Molecular point group: c1
  Charge       = -1
  Multiplicity = 1
  Basis Set: AUG-CC-PVTZ
    Blend: AUG-CC-PVTZ
  Basis Set: (AUG-CC-PVTZ AUX)
    Blend: AUG-CC-PVTZ-JKFIT

    Orbital Energies [Eh]
    ---------------------

    Doubly Occupied:

       1A    -20.396347     2A    -20.320999     3A    -20.312280
       4A    -15.453898     5A    -11.231369     6A    -11.166487
       7A    -11.140196     8A    -11.125995     9A    -11.107308
      10A     -1.243151    11A     -1.186092    12A     -1.126214
      13A     -1.082154    14A     -0.956696    15A     -0.839418
      16A     -0.753990    17A     -0.669061    18A     -0.597928
      19A     -0.556085    20A     -0.539029    21A     -0.506562
      22A     -0.485655    23A     -0.480121    24A     -0.429569
      25A     -0.419881    26A     -0.415162    27A     -0.414296
      28A     -0.395291    29A     -0.379781    30A     -0.341863
      31A     -0.307662    32A     -0.249542    33A     -0.232607
      34A     -0.220074    35A     -0.212843

  @DF-RHF Final Energy:  -473.26283601167484

   => Energetics <=

    Nuclear Repulsion Energy =            434.5480883648172039
    One-Electron Energy =               -1521.0306424684595186
    Two-Electron Energy =                 613.2197180919674793
    Total Energy =                       -473.2628360116748354
  Basis Set: (AUG-CC-PVTZ AUX)
    Blend: AUG-CC-PVTZ-RI
    Molecular point group: c1

    Geometry (in Angstrom), charge = -1, multiplicity = 1:

       Center              X                  Y                   Z               Mass
    ------------   -----------------  -----------------  -----------------  -----------------
         O            1.654309351794    -1.440826605040    -0.007732888756    15.994914619570
         O           -2.375474648206     1.402975394960    -0.015293888756    15.994914619570
         O           -3.438188648206    -0.598578605040    -0.026694888756    15.994914619570
         N            0.084287351794     0.222564394960     0.015973111244    14.003074004430
         C            2.426148351794     0.846125394960     0.002057111244    12.000000000000
         C            1.344439351794    -0.215882605040     0.004597111244    12.000000000000
         C           -0.970302748206    -0.577692305040     0.018059511244    12.000000000000
         C            3.815412351794     0.241864394960    -0.011300888756    12.000000000000
         C           -2.408455648206     0.136974394960     0.032475111244    12.000000000000
         H            2.263718351794     1.504804394960    -0.862058888756     1.007825032230
         H            2.276635351794     1.495993394960     0.875009111244     1.007825032230
         H           -1.052819648206    -1.298877605040    -0.856899888756     1.007825032230
         H           -1.040660648206    -1.309652605040     0.885079111244     1.007825032230
         H           -0.184130648206     1.204691394960     0.024150111244     1.007825032230
         H            3.965310351794    -0.384974605040     0.868257111244     1.007825032230
         H            3.952004351794    -0.376083605040    -0.899364888756     1.007825032230
         H            4.565884351794     1.035836394960    -0.013368888756     1.007825032230

  Basis Set: AUG-CC-PVTZ
    Blend: AUG-CC-PVTZ
  Basis Set: (AUG-CC-PVTZ AUX)
    Blend: AUG-CC-PVTZ-JKFIT
	 Reference Energy          =    -473.2628360116748354 [Eh]
	 Singles Energy            =      -0.0000000000000000 [Eh]
	 Same-Spin Energy          =      -0.4776239865298017 [Eh]
	 Opposite-Spin Energy      =      -1.4666955015805614 [Eh]
	 Correlation Energy        =      -1.9443194881103631 [Eh]
	 Total Energy              =    -475.2071554997851877 [Eh]

	 ================> DF-SCS-MP2 Energies <==================
	-----------------------------------------------------------
	 SCS Same-Spin Scale       =       0.3333333333333333 [-]
	 SCS Opposite-Spin Scale   =       1.2000000000000000 [-]
	 SCS Same-Spin Energy      =      -0.1592079955099339 [Eh]
	 SCS Opposite-Spin Energy  =      -1.7600346018966737 [Eh]
	 SCS Correlation Energy    =      -1.9192425974066076 [Eh]
	 SCS Total Energy          =    -475.1820786090814295 [Eh]
	-----------------------------------------------------------

  Dipole Moment: [D]
     X:    10.1139      Y:     1.7344      Z:     0.1321     Total:    10.2624

*** Psi4 exiting successfully. Buy a developer a beer!
