                               Psi4 1.3.2 release

  ==> Input File <==

--------------------------------------------------------------------------
#psi4
#
memory 32 gb

molecule  {
-1 1
  O        1.5553730    -1.4489990    -0.0078940
  O       -2.4744110     1.3948030    -0.0154550
  O       -3.5371250    -0.6067510    -0.0268560
  N       -0.0146490     0.2143920     0.0158120
  C        2.3272120     0.8379530     0.0018960
  C        1.2945490    -0.4179382     0.0024844
  C       -1.1489000    -0.6463140     0.0180560
  C        3.7164760     0.2336920    -0.0114620
  C       -2.5073920     0.1288020     0.0323140
  H        2.1647820     1.4966320    -0.8622200
  H        2.1776990     1.4878210     0.8748480
  H       -1.1517560    -1.3070500    -0.8570610
  H       -1.1395970    -1.3178250     0.8849180
  H       -0.2830670     1.1965190     0.0239890
  H        3.8663740    -0.3931470     0.8680960
  H        3.8530680    -0.3842560    -0.8995260
  H        4.4669480     1.0276640    -0.0135300
units angstrom
no_reorient  #important for SAPT in psi4, default
symmetry c1  #important for SAPT in psi4, default
}

set PROPERTIES_ORIGIN ["COM"]
properties('MP2/aug-cc-pvtz', properties = ['dipole'])
--------------------------------------------------------------------------

    Molecular point group: c1
  Charge       = -1
  Multiplicity = 1
  Basis Set: AUG-CC-PVTZ
    Blend: AUG-CC-PVTZ
  Basis Set: (AUG-CC-PVTZ AUX)
    Blend: AUG-CC-PVTZ-JKFIT

    Orbital Energies [Eh]
    ---------------------

    Doubly Occupied:

       1A    -20.435899     2A    -20.313115     3A    -20.301770
       4A    -15.417683     5A    -11.226052     6A    -11.154389
       7A    -11.127011     8A    -11.122102     9A    -11.093684
      10A     -1.392264    11A     -1.177685    12A     -1.077359
      13A     -1.061962    14A     -0.939526    15A     -0.802842
      16A     -0.737338    17A     -0.647989    18A     -0.605879
      19A     -0.559507    20A     -0.543692    21A     -0.534438
      22A     -0.489535    23A     -0.474226    24A     -0.446371
      25A     -0.440713    26A     -0.419526    27A     -0.414439
      28A     -0.396786    29A     -0.390115    30A     -0.343621
      31A     -0.289800    32A     -0.241308    33A     -0.225992
      34A     -0.212127    35A     -0.203444

  @DF-RHF Final Energy:  -473.22551220850028

   => Energetics <=

    Nuclear Repulsion Energy =            434.3235428924591019
    One-Electron Energy =               -1520.5777349354182206
    Two-Electron Energy =                 613.0286798344588988
    Total Energy =                       -473.2255122085002768
  Basis Set: (AUG-CC-PVTZ AUX)
    Blend: AUG-CC-PVTZ-RI
    Molecular point group: c1

    Geometry (in Angstrom), charge = -1, multiplicity = 1:

       Center              X                  Y                   Z               Mass
    ------------   -----------------  -----------------  -----------------  -----------------
         O            1.657134246979    -1.417358860422    -0.007567352956    15.994914619570
         O           -2.372649753021     1.426443139578    -0.015128352956    15.994914619570
         O           -3.435363753021    -0.575110860422    -0.026529352956    15.994914619570
         N            0.087112246979     0.246032139578     0.016138647044    14.003074004430
         C            2.428973246979     0.869593139578     0.002222647044    12.000000000000
         C            1.396310246979    -0.386298060422     0.002811047044    12.000000000000
         C           -1.047138753021    -0.614673860422     0.018382647044    12.000000000000
         C            3.818237246979     0.265332139578    -0.011135352956    12.000000000000
         C           -2.405630753021     0.160442139578     0.032640647044    12.000000000000
         H            2.266543246979     1.528272139578    -0.861893352956     1.007825032230
         H            2.279460246979     1.519461139578     0.875174647044     1.007825032230
         H           -1.049994753021    -1.275409860422    -0.856734352956     1.007825032230
         H           -1.037835753021    -1.286184860422     0.885244647044     1.007825032230
         H           -0.181305753021     1.228159139578     0.024315647044     1.007825032230
         H            3.968135246979    -0.361506860422     0.868422647044     1.007825032230
         H            3.954829246979    -0.352615860422    -0.899199352956     1.007825032230
         H            4.568709246979     1.059304139578    -0.013203352956     1.007825032230

  Basis Set: AUG-CC-PVTZ
    Blend: AUG-CC-PVTZ
  Basis Set: (AUG-CC-PVTZ AUX)
    Blend: AUG-CC-PVTZ-JKFIT
	 Reference Energy          =    -473.2255122085002768 [Eh]
	 Singles Energy            =      -0.0000000000000000 [Eh]
	 Same-Spin Energy          =      -0.4727893274849468 [Eh]
	 Opposite-Spin Energy      =      -1.4588169594541502 [Eh]
	 Correlation Energy        =      -1.9316062869390971 [Eh]
	 Total Energy              =    -475.1571184954393630 [Eh]

	 ================> DF-SCS-MP2 Energies <==================
	-----------------------------------------------------------
	 SCS Same-Spin Scale       =       0.3333333333333333 [-]
	 SCS Opposite-Spin Scale   =       1.2000000000000000 [-]
	 SCS Same-Spin Energy      =      -0.1575964424949823 [Eh]
	 SCS Opposite-Spin Energy  =      -1.7505803513449802 [Eh]
	 SCS Correlation Energy    =      -1.9081767938399625 [Eh]
	 SCS Total Energy          =    -475.1336890023402475 [Eh]
	-----------------------------------------------------------

  Dipole Moment: [D]
     X:    10.9351      Y:     0.1554      Z:     0.1197     Total:    10.9369

*** Psi4 exiting successfully. Buy a developer a beer!
