                               Psi4 1.4a3.dev225

  ==> Input File <==

--------------------------------------------------------------------------
#psi4
#
memory 32 gb

molecule  {
-1 1
  O       -1.5186010     1.5599430    -0.1433510
  O        2.2638970    -1.4295650    -0.0456660
  O        3.5317420     0.4486470     0.1950180
  N        0.0040180    -0.1295860    -0.1151350
  C       -2.3384940    -0.6954940    -0.4149760
  C       -1.2365301     0.3576107    -0.2074833
  C        1.1754880     0.7048690     0.0403840
  C       -3.5055210    -0.4701880     0.5431350
  C        2.4465640    -0.1793200     0.0655420
  H       -2.6873130    -0.6028840    -1.4504550
  H       -1.9319890    -1.7056860    -0.3020050
  H        1.2516430     1.4279040    -0.7806770
  H        1.1211640     1.2868180     0.9683990
  H        0.2309340    -1.1197490    -0.1755670
  H       -3.1861080    -0.6022700     1.5809140
  H       -3.8905480     0.5449040     0.4307430
  H       -4.3152940    -1.1768540     0.3431720
units angstrom
no_reorient  #important for SAPT in psi4, default
symmetry c1  #important for SAPT in psi4, default
}

set PROPERTIES_ORIGIN ["COM"]
properties('MP2/aug-cc-pvtz', properties = ['dipole'])
--------------------------------------------------------------------------

    Molecular point group: c1
  Charge       = -1
  Multiplicity = 1
  Basis Set: AUG-CC-PVTZ
    Blend: AUG-CC-PVTZ
  Basis Set: (AUG-CC-PVTZ AUX)
    Blend: AUG-CC-PVTZ-JKFIT

    Orbital Energies [Eh]
    ---------------------

    Doubly Occupied:

       1A    -20.387914     2A    -20.323149     3A    -20.314134
       4A    -15.445126     5A    -11.220722     6A    -11.164247
       7A    -11.133969     8A    -11.126491     9A    -11.109167
      10A     -1.244346    11A     -1.190984    12A     -1.099548
      13A     -1.083933    14A     -0.945693    15A     -0.831098
      16A     -0.757203    17A     -0.655102    18A     -0.584756
      19A     -0.544099    20A     -0.525745    21A     -0.503332
      22A     -0.487554    23A     -0.475933    24A     -0.436168
      25A     -0.428237    26A     -0.419414    27A     -0.407556
      28A     -0.394470    29A     -0.382556    30A     -0.346642
      31A     -0.296923    32A     -0.258137    33A     -0.239475
      34A     -0.226179    35A     -0.216564

  @DF-RHF Final Energy:  -473.28902397867898

   => Energetics <=

    Nuclear Repulsion Energy =            435.3689710806310700
    One-Electron Energy =               -1522.9028571203471074
    Two-Electron Energy =                 614.2448620610369971
    Total Energy =                       -473.2890239786789834
  Basis Set: (AUG-CC-PVTZ AUX)
    Blend: AUG-CC-PVTZ-RI
    Molecular point group: c1

    Geometry (in Angstrom), charge = -1, multiplicity = 1:

       Center              X                  Y                   Z               Mass
    ------------   -----------------  -----------------  -----------------  -----------------
         O           -1.622043801451     1.543845191249    -0.138908835329    15.994914619570
         O            2.160454198549    -1.445662808751    -0.041223835329    15.994914619570
         O            3.428299198549     0.432549191249     0.199460164671    15.994914619570
         N           -0.099424801451    -0.145683808751    -0.110692835329    14.003074004430
         C           -2.441936801451    -0.711591808751    -0.410533835329    12.000000000000
         C           -1.339972901451     0.341512891249    -0.203041135329    12.000000000000
         C            1.072045198549     0.688771191249     0.044826164671    12.000000000000
         C           -3.608963801451    -0.486285808751     0.547577164671    12.000000000000
         C            2.343121198549    -0.195417808751     0.069984164671    12.000000000000
         H           -2.790755801451    -0.618981808751    -1.446012835329     1.007825032230
         H           -2.035431801451    -1.721783808751    -0.297562835329     1.007825032230
         H            1.148200198549     1.411806191249    -0.776234835329     1.007825032230
         H            1.017721198549     1.270720191249     0.972841164671     1.007825032230
         H            0.127491198549    -1.135846808751    -0.171124835329     1.007825032230
         H           -3.289550801451    -0.618367808751     1.585356164671     1.007825032230
         H           -3.993990801451     0.528806191249     0.435185164671     1.007825032230
         H           -4.418736801451    -1.192951808751     0.347614164671     1.007825032230

  Basis Set: AUG-CC-PVTZ
    Blend: AUG-CC-PVTZ
  Basis Set: (AUG-CC-PVTZ AUX)
    Blend: AUG-CC-PVTZ-JKFIT
	 Reference Energy          =    -473.2890239786789834 [Eh]
	 Singles Energy            =      -0.0000000000000000 [Eh]
	 Same-Spin Energy          =      -0.4755138454286520 [Eh]
	 Opposite-Spin Energy      =      -1.4641651519243140 [Eh]
	 Correlation Energy        =      -1.9396789973529660 [Eh]
	 Total Energy              =    -475.2287029760319683 [Eh]

	 ================> DF-SCS-MP2 Energies <==================
	-----------------------------------------------------------
	 SCS Same-Spin Scale       =       0.3333333333333333 [-]
	 SCS Opposite-Spin Scale   =       1.2000000000000000 [-]
	 SCS Same-Spin Energy      =      -0.1585046151428840 [Eh]
	 SCS Opposite-Spin Energy  =      -1.7569981823091767 [Eh]
	 SCS Correlation Energy    =      -1.9155027974520606 [Eh]
	 SCS Total Energy          =    -475.2045267761310470 [Eh]
	-----------------------------------------------------------

  Dipole Moment: [D]
     X:    -9.2946      Y:    -1.0670      Z:    -0.4018     Total:     9.3643

*** Psi4 exiting successfully. Buy a developer a beer!
