                               Psi4 1.4a3.dev225

  ==> Input File <==

--------------------------------------------------------------------------
#psi4
#
memory 32 gb

molecule  {
-1 1
  O       -1.5186010     1.5599430    -0.1433510
  O        2.2638970    -1.4295650    -0.0456660
  O        3.5317420     0.4486470     0.1950180
  N        0.0040180    -0.1295860    -0.1151350
  C       -2.3384940    -0.6954940    -0.4149760
  C       -1.2508570     0.3439190    -0.2101810
  C        1.1754880     0.7048690     0.0403840
  C       -3.5055210    -0.4701880     0.5431350
  C        2.4301478    -0.1679005     0.0652171
  H       -2.6873130    -0.6028840    -1.4504550
  H       -1.9319890    -1.7056860    -0.3020050
  H        1.2516430     1.4279040    -0.7806770
  H        1.1211640     1.2868180     0.9683990
  H        0.2309340    -1.1197490    -0.1755670
  H       -3.1861080    -0.6022700     1.5809140
  H       -3.8905480     0.5449040     0.4307430
  H       -4.3152940    -1.1768540     0.3431720
units angstrom
no_reorient  #important for SAPT in psi4, default
symmetry c1  #important for SAPT in psi4, default
}

set PROPERTIES_ORIGIN ["COM"]
properties('MP2/aug-cc-pvtz', properties = ['dipole'])
--------------------------------------------------------------------------

    Molecular point group: c1
  Charge       = -1
  Multiplicity = 1
  Basis Set: AUG-CC-PVTZ
    Blend: AUG-CC-PVTZ
  Basis Set: (AUG-CC-PVTZ AUX)
    Blend: AUG-CC-PVTZ-JKFIT

    Orbital Energies [Eh]
    ---------------------

    Doubly Occupied:

       1A    -20.388073     2A    -20.321822     3A    -20.312966
       4A    -15.446106     5A    -11.222987     6A    -11.164236
       7A    -11.135938     8A    -11.128313     9A    -11.111155
      10A     -1.239373    11A     -1.185690    12A     -1.095483
      13A     -1.078150    14A     -0.950298    15A     -0.835201
      16A     -0.762091    17A     -0.653869    18A     -0.587843
      19A     -0.546551    20A     -0.527542    21A     -0.503253
      22A     -0.487238    23A     -0.475574    24A     -0.437893
      25A     -0.427452    26A     -0.418759    27A     -0.407711
      28A     -0.393189    29A     -0.380725    30A     -0.342376
      31A     -0.299352    32A     -0.257414    33A     -0.237774
      34A     -0.227165    35A     -0.213437

  @DF-RHF Final Energy:  -473.28601451539299

   => Energetics <=

    Nuclear Repulsion Energy =            435.2875103084566604
    One-Electron Energy =               -1522.7410533880479306
    Two-Electron Energy =                 614.1675285641982782
    Total Energy =                       -473.2860145153930489
  Basis Set: (AUG-CC-PVTZ AUX)
    Blend: AUG-CC-PVTZ-RI
    Molecular point group: c1

    Geometry (in Angstrom), charge = -1, multiplicity = 1:

       Center              X                  Y                   Z               Mass
    ------------   -----------------  -----------------  -----------------  -----------------
         O           -1.619207077007     1.544054851475    -0.138629934265    15.994914619570
         O            2.163290922993    -1.445453148525    -0.040944934265    15.994914619570
         O            3.431135922993     0.432758851475     0.199739065735    15.994914619570
         N           -0.096588077007    -0.145474148525    -0.110413934265    14.003074004430
         C           -2.439100077007    -0.711382148525    -0.410254934265    12.000000000000
         C           -1.351463077007     0.328030851475    -0.205459934265    12.000000000000
         C            1.074881922993     0.688980851475     0.045105065735    12.000000000000
         C           -3.606127077007    -0.486076148525     0.547856065735    12.000000000000
         C            2.329541722993    -0.183788648525     0.069938165735    12.000000000000
         H           -2.787919077007    -0.618772148525    -1.445733934265     1.007825032230
         H           -2.032595077007    -1.721574148525    -0.297283934265     1.007825032230
         H            1.151036922993     1.412015851475    -0.775955934265     1.007825032230
         H            1.020557922993     1.270929851475     0.973120065735     1.007825032230
         H            0.130327922993    -1.135637148525    -0.170845934265     1.007825032230
         H           -3.286714077007    -0.618158148525     1.585635065735     1.007825032230
         H           -3.991154077007     0.529015851475     0.435464065735     1.007825032230
         H           -4.415900077007    -1.192742148525     0.347893065735     1.007825032230

  Basis Set: AUG-CC-PVTZ
    Blend: AUG-CC-PVTZ
  Basis Set: (AUG-CC-PVTZ AUX)
    Blend: AUG-CC-PVTZ-JKFIT
	 Reference Energy          =    -473.2860145153929921 [Eh]
	 Singles Energy            =      -0.0000000000000000 [Eh]
	 Same-Spin Energy          =      -0.4761626659579745 [Eh]
	 Opposite-Spin Energy      =      -1.4655379824628521 [Eh]
	 Correlation Energy        =      -1.9417006484208266 [Eh]
	 Total Energy              =    -475.2277151638137980 [Eh]

	 ================> DF-SCS-MP2 Energies <==================
	-----------------------------------------------------------
	 SCS Same-Spin Scale       =       0.3333333333333333 [-]
	 SCS Opposite-Spin Scale   =       1.2000000000000000 [-]
	 SCS Same-Spin Energy      =      -0.1587208886526582 [Eh]
	 SCS Opposite-Spin Energy  =      -1.7586455789554225 [Eh]
	 SCS Correlation Energy    =      -1.9173664676080806 [Eh]
	 SCS Total Energy          =    -475.2033809830010682 [Eh]
	-----------------------------------------------------------

  Dipole Moment: [D]
     X:    -9.5003      Y:    -1.0747      Z:    -0.4149     Total:     9.5698

*** Psi4 exiting successfully. Buy a developer a beer!
