                               Psi4 1.3.2 release

  ==> Input File <==

--------------------------------------------------------------------------
#psi4
#
memory 32 gb

molecule  {
-1 1
  O        1.5553730    -1.4489990    -0.0078940
  O       -2.4744110     1.3948030    -0.0154550
  O       -3.5371250    -0.6067510    -0.0268560
  N       -0.0146490     0.2143920     0.0158120
  C        2.3272120     0.8379530     0.0018960
  C        1.1741456    -0.2941128     0.0046036
  C       -1.1489000    -0.6463140     0.0180560
  C        3.7164760     0.2336920    -0.0114620
  C       -2.5073920     0.1288020     0.0323140
  H        2.1647820     1.4966320    -0.8622200
  H        2.1776990     1.4878210     0.8748480
  H       -1.1517560    -1.3070500    -0.8570610
  H       -1.1395970    -1.3178250     0.8849180
  H       -0.2830670     1.1965190     0.0239890
  H        3.8663740    -0.3931470     0.8680960
  H        3.8530680    -0.3842560    -0.8995260
  H        4.4669480     1.0276640    -0.0135300
units angstrom
no_reorient  #important for SAPT in psi4, default
symmetry c1  #important for SAPT in psi4, default
}

set PROPERTIES_ORIGIN ["COM"]
properties('MP2/aug-cc-pvtz', properties = ['dipole'])
--------------------------------------------------------------------------

    Molecular point group: c1
  Charge       = -1
  Multiplicity = 1
  Basis Set: AUG-CC-PVTZ
    Blend: AUG-CC-PVTZ
  Basis Set: (AUG-CC-PVTZ AUX)
    Blend: AUG-CC-PVTZ-JKFIT

    Orbital Energies [Eh]
    ---------------------

    Doubly Occupied:

       1A    -20.395252     2A    -20.325475     3A    -20.312892
       4A    -15.453676     5A    -11.223008     6A    -11.167037
       7A    -11.129239     8A    -11.118118     9A    -11.111128
      10A     -1.262690    11A     -1.190197    12A     -1.123235
      13A     -1.085693    14A     -0.934554    15A     -0.836252
      16A     -0.745396    17A     -0.675549    18A     -0.586486
      19A     -0.542442    20A     -0.528961    21A     -0.514062
      22A     -0.489631    23A     -0.481471    24A     -0.429915
      25A     -0.418390    26A     -0.417974    27A     -0.412469
      28A     -0.398261    29A     -0.384924    30A     -0.349912
      31A     -0.289811    32A     -0.267516    33A     -0.238171
      34A     -0.226403    35A     -0.215862

  @DF-RHF Final Energy:  -473.27671304420471

   => Energetics <=

    Nuclear Repulsion Energy =            434.0631794506209076
    One-Electron Energy =               -1520.1156755025820075
    Two-Electron Energy =                 612.7757830077563312
    Total Energy =                       -473.2767130442047119
  Basis Set: (AUG-CC-PVTZ AUX)
    Blend: AUG-CC-PVTZ-RI
    Molecular point group: c1

    Geometry (in Angstrom), charge = -1, multiplicity = 1:

       Center              X                  Y                   Z               Mass
    ------------   -----------------  -----------------  -----------------  -----------------
         O            1.668244098227    -1.428784466133    -0.007762895580    15.994914619570
         O           -2.361539901773     1.415017533867    -0.015323895580    15.994914619570
         O           -3.424253901773    -0.586536466133    -0.026724895580    15.994914619570
         N            0.098222098227     0.234606533867     0.015943104420    14.003074004430
         C            2.440083098227     0.858167533867     0.002027104420    12.000000000000
         C            1.287016698227    -0.273898266133     0.004734704420    12.000000000000
         C           -1.036028901773    -0.626099466133     0.018187104420    12.000000000000
         C            3.829347098227     0.253906533867    -0.011330895580    12.000000000000
         C           -2.394520901773     0.149016533867     0.032445104420    12.000000000000
         H            2.277653098227     1.516846533867    -0.862088895580     1.007825032230
         H            2.290570098227     1.508035533867     0.874979104420     1.007825032230
         H           -1.038884901773    -1.286835466133    -0.856929895580     1.007825032230
         H           -1.026725901773    -1.297610466133     0.885049104420     1.007825032230
         H           -0.170195901773     1.216733533867     0.024120104420     1.007825032230
         H            3.979245098227    -0.372932466133     0.868227104420     1.007825032230
         H            3.965939098227    -0.364041466133    -0.899394895580     1.007825032230
         H            4.579819098227     1.047878533867    -0.013398895580     1.007825032230

  Basis Set: AUG-CC-PVTZ
    Blend: AUG-CC-PVTZ
  Basis Set: (AUG-CC-PVTZ AUX)
    Blend: AUG-CC-PVTZ-JKFIT
	 Reference Energy          =    -473.2767130442047119 [Eh]
	 Singles Energy            =      -0.0000000000000000 [Eh]
	 Same-Spin Energy          =      -0.4752164015282196 [Eh]
	 Opposite-Spin Energy      =      -1.4634443572622364 [Eh]
	 Correlation Energy        =      -1.9386607587904561 [Eh]
	 Total Energy              =    -475.2153738029951455 [Eh]

	 ================> DF-SCS-MP2 Energies <==================
	-----------------------------------------------------------
	 SCS Same-Spin Scale       =       0.3333333333333333 [-]
	 SCS Opposite-Spin Scale   =       1.2000000000000000 [-]
	 SCS Same-Spin Energy      =      -0.1584054671760732 [Eh]
	 SCS Opposite-Spin Energy  =      -1.7561332287146836 [Eh]
	 SCS Correlation Energy    =      -1.9145386958907569 [Eh]
	 SCS Total Energy          =    -475.1912517400954812 [Eh]
	-----------------------------------------------------------

  Dipole Moment: [D]
     X:     9.4126      Y:     1.1946      Z:     0.1380     Total:     9.4891

*** Psi4 exiting successfully. Buy a developer a beer!
