                               Psi4 1.3.2 release

  ==> Input File <==

--------------------------------------------------------------------------
#psi4
#
memory 32 gb

molecule  {
-1 1
  O        1.5339476    -1.4542221    -0.0077237
  O       -2.4744110     1.3948030    -0.0154550
  O       -3.5371250    -0.6067510    -0.0268560
  N       -0.0146490     0.2143920     0.0158120
  C        2.3085144     0.8566687     0.0022212
  C        1.2455030    -0.2240550     0.0044360
  C       -1.1489000    -0.6463140     0.0180560
  C        3.7164760     0.2336920    -0.0114620
  C       -2.5073920     0.1288020     0.0323140
  H        2.1647820     1.4966320    -0.8622200
  H        2.1776990     1.4878210     0.8748480
  H       -1.1517560    -1.3070500    -0.8570610
  H       -1.1395970    -1.3178250     0.8849180
  H       -0.2830670     1.1965190     0.0239890
  H        3.8663740    -0.3931470     0.8680960
  H        3.8530680    -0.3842560    -0.8995260
  H        4.4669480     1.0276640    -0.0135300
units angstrom
no_reorient  #important for SAPT in psi4, default
symmetry c1  #important for SAPT in psi4, default
}

set PROPERTIES_ORIGIN ["COM"]
properties('MP2/aug-cc-pvtz', properties = ['dipole'])
--------------------------------------------------------------------------

    Molecular point group: c1
  Charge       = -1
  Multiplicity = 1
  Basis Set: AUG-CC-PVTZ
    Blend: AUG-CC-PVTZ
  Basis Set: (AUG-CC-PVTZ AUX)
    Blend: AUG-CC-PVTZ-JKFIT

    Orbital Energies [Eh]
    ---------------------

    Doubly Occupied:

       1A    -20.391633     2A    -20.321968     3A    -20.310312
       4A    -15.449991     5A    -11.227424     6A    -11.164119
       7A    -11.137323     8A    -11.125744     9A    -11.107958
      10A     -1.235313    11A     -1.186442    12A     -1.101205
      13A     -1.081828    14A     -0.950274    15A     -0.835501
      16A     -0.759840    17A     -0.660025    18A     -0.590664
      19A     -0.543447    20A     -0.537517    21A     -0.506737
      22A     -0.483647    23A     -0.473797    24A     -0.425353
      25A     -0.419710    26A     -0.419355    27A     -0.414602
      28A     -0.395796    29A     -0.383257    30A     -0.343636
      31A     -0.304234    32A     -0.257010    33A     -0.234696
      34A     -0.224249    35A     -0.212723

  @DF-RHF Final Energy:  -473.28157454401719

   => Energetics <=

    Nuclear Repulsion Energy =            433.3421351081258877
    One-Electron Energy =               -1518.8127577299155746
    Two-Electron Energy =                 612.1890480777725543
    Total Energy =                       -473.2815745440171895
  Basis Set: (AUG-CC-PVTZ AUX)
    Blend: AUG-CC-PVTZ-RI
    Molecular point group: c1

    Geometry (in Angstrom), charge = -1, multiplicity = 1:

       Center              X                  Y                   Z               Mass
    ------------   -----------------  -----------------  -----------------  -----------------
         O            1.644594790295    -1.441556476591    -0.007628082847    15.994914619570
         O           -2.363763809705     1.407468623409    -0.015359382847    15.994914619570
         O           -3.426477809705    -0.594085376591    -0.026760382847    15.994914619570
         N            0.095998190295     0.227057623409     0.015907617153    14.003074004430
         C            2.419161590295     0.869334323409     0.002316817153    12.000000000000
         C            1.356150190295    -0.211389376591     0.004531617153    12.000000000000
         C           -1.038252809705    -0.633648376591     0.018151617153    12.000000000000
         C            3.827123190295     0.246357623409    -0.011366382847    12.000000000000
         C           -2.396744809705     0.141467623409     0.032409617153    12.000000000000
         H            2.275429190295     1.509297623409    -0.862124382847     1.007825032230
         H            2.288346190295     1.500486623409     0.874943617153     1.007825032230
         H           -1.041108809705    -1.294384376591    -0.856965382847     1.007825032230
         H           -1.028949809705    -1.305159376591     0.885013617153     1.007825032230
         H           -0.172419809705     1.209184623409     0.024084617153     1.007825032230
         H            3.977021190295    -0.380481376591     0.868191617153     1.007825032230
         H            3.963715190295    -0.371590376591    -0.899430382847     1.007825032230
         H            4.577595190295     1.040329623409    -0.013434382847     1.007825032230

  Basis Set: AUG-CC-PVTZ
    Blend: AUG-CC-PVTZ
  Basis Set: (AUG-CC-PVTZ AUX)
    Blend: AUG-CC-PVTZ-JKFIT
	 Reference Energy          =    -473.2815745440171895 [Eh]
	 Singles Energy            =      -0.0000000000000000 [Eh]
	 Same-Spin Energy          =      -0.4760599572212154 [Eh]
	 Opposite-Spin Energy      =      -1.4653711465014752 [Eh]
	 Correlation Energy        =      -1.9414311037226906 [Eh]
	 Total Energy              =    -475.2230056477398534 [Eh]

	 ================> DF-SCS-MP2 Energies <==================
	-----------------------------------------------------------
	 SCS Same-Spin Scale       =       0.3333333333333333 [-]
	 SCS Opposite-Spin Scale   =       1.2000000000000000 [-]
	 SCS Same-Spin Energy      =      -0.1586866524070718 [Eh]
	 SCS Opposite-Spin Energy  =      -1.7584453758017702 [Eh]
	 SCS Correlation Energy    =      -1.9171320282088420 [Eh]
	 SCS Total Energy          =    -475.1987065722260581 [Eh]
	-----------------------------------------------------------

  Dipole Moment: [D]
     X:     9.9356      Y:     1.5937      Z:     0.1368     Total:    10.0636

*** Psi4 exiting successfully. Buy a developer a beer!
