                               Psi4 1.3.2 release

  ==> Input File <==

--------------------------------------------------------------------------
#psi4
#
memory 32 gb

molecule  {
-1 1
  O        1.5553730    -1.4489990    -0.0078940
  O       -2.4523165     1.3940090    -0.0161229
  O       -3.5371250    -0.6067510    -0.0268560
  N       -0.0146490     0.2143920     0.0158120
  C        2.3272120     0.8379530     0.0018960
  C        1.2455030    -0.2240550     0.0044360
  C       -1.1356044    -0.6225071     0.0167577
  C        3.7164760     0.2336920    -0.0114620
  C       -2.5073920     0.1288020     0.0323140
  H        2.1647820     1.4966320    -0.8622200
  H        2.1776990     1.4878210     0.8748480
  H       -1.1517560    -1.3070500    -0.8570610
  H       -1.1395970    -1.3178250     0.8849180
  H       -0.2830670     1.1965190     0.0239890
  H        3.8663740    -0.3931470     0.8680960
  H        3.8530680    -0.3842560    -0.8995260
  H        4.4669480     1.0276640    -0.0135300
units angstrom
no_reorient  #important for SAPT in psi4, default
symmetry c1  #important for SAPT in psi4, default
}

set PROPERTIES_ORIGIN ["COM"]
properties('MP2/aug-cc-pvtz', properties = ['dipole'])
--------------------------------------------------------------------------

    Molecular point group: c1
  Charge       = -1
  Multiplicity = 1
  Basis Set: AUG-CC-PVTZ
    Blend: AUG-CC-PVTZ
  Basis Set: (AUG-CC-PVTZ AUX)
    Blend: AUG-CC-PVTZ-JKFIT

    Orbital Energies [Eh]
    ---------------------

    Doubly Occupied:

       1A    -20.392033     2A    -20.322613     3A    -20.312433
       4A    -15.451242     5A    -11.228097     6A    -11.165351
       7A    -11.137899     8A    -11.124300     9A    -11.107813
      10A     -1.236357    11A     -1.187306    12A     -1.107287
      13A     -1.084106    14A     -0.953190    15A     -0.836516
      16A     -0.757311    17A     -0.661645    18A     -0.591872
      19A     -0.547821    20A     -0.535694    21A     -0.506825
      22A     -0.482548    23A     -0.476147    24A     -0.426576
      25A     -0.424412    26A     -0.415897    27A     -0.414393
      28A     -0.396546    29A     -0.380094    30A     -0.342373
      31A     -0.303948    32A     -0.255126    33A     -0.235940
      34A     -0.224829    35A     -0.214323

  @DF-RHF Final Energy:  -473.27963552858512

   => Energetics <=

    Nuclear Repulsion Energy =            433.9472720100713445
    One-Electron Energy =               -1519.9720897496733869
    Two-Electron Energy =                 612.7451822110168678
    Total Energy =                       -473.2796355285851178
  Basis Set: (AUG-CC-PVTZ AUX)
    Blend: AUG-CC-PVTZ-RI
    Molecular point group: c1

    Geometry (in Angstrom), charge = -1, multiplicity = 1:

       Center              X                  Y                   Z               Mass
    ------------   -----------------  -----------------  -----------------  -----------------
         O            1.657715599658    -1.437347886796    -0.007545489101    15.994914619570
         O           -2.349973900342     1.405660113204    -0.015774389101    15.994914619570
         O           -3.434782400342    -0.595099886796    -0.026507489101    15.994914619570
         N            0.087693599658     0.226043113204     0.016160510899    14.003074004430
         C            2.429554599658     0.849604113204     0.002244510899    12.000000000000
         C            1.347845599658    -0.212403886796     0.004784510899    12.000000000000
         C           -1.033261800342    -0.610855986796     0.017106210899    12.000000000000
         C            3.818818599658     0.245343113204    -0.011113489101    12.000000000000
         C           -2.405049400342     0.140453113204     0.032662510899    12.000000000000
         H            2.267124599658     1.508283113204    -0.861871489101     1.007825032230
         H            2.280041599658     1.499472113204     0.875196510899     1.007825032230
         H           -1.049413400342    -1.295398886796    -0.856712489101     1.007825032230
         H           -1.037254400342    -1.306173886796     0.885266510899     1.007825032230
         H           -0.180724400342     1.208170113204     0.024337510899     1.007825032230
         H            3.968716599658    -0.381495886796     0.868444510899     1.007825032230
         H            3.955410599658    -0.372604886796    -0.899177489101     1.007825032230
         H            4.569290599658     1.039315113204    -0.013181489101     1.007825032230

  Basis Set: AUG-CC-PVTZ
    Blend: AUG-CC-PVTZ
  Basis Set: (AUG-CC-PVTZ AUX)
    Blend: AUG-CC-PVTZ-JKFIT
	 Reference Energy          =    -473.2796355285851178 [Eh]
	 Singles Energy            =      -0.0000000000000000 [Eh]
	 Same-Spin Energy          =      -0.4765101759447263 [Eh]
	 Opposite-Spin Energy      =      -1.4656508615674029 [Eh]
	 Correlation Energy        =      -1.9421610375121292 [Eh]
	 Total Energy              =    -475.2217965660972254 [Eh]

	 ================> DF-SCS-MP2 Energies <==================
	-----------------------------------------------------------
	 SCS Same-Spin Scale       =       0.3333333333333333 [-]
	 SCS Opposite-Spin Scale   =       1.2000000000000000 [-]
	 SCS Same-Spin Energy      =      -0.1588367253149088 [Eh]
	 SCS Opposite-Spin Energy  =      -1.7587810338808834 [Eh]
	 SCS Correlation Energy    =      -1.9176177591957921 [Eh]
	 SCS Total Energy          =    -475.1972532877808817 [Eh]
	-----------------------------------------------------------

  Dipole Moment: [D]
     X:     9.8847      Y:     1.6192      Z:     0.1339     Total:    10.0173

*** Psi4 exiting successfully. Buy a developer a beer!
