                               Psi4 1.3.2 release

  ==> Input File <==

--------------------------------------------------------------------------
#psi4
#
memory 32 gb

molecule  {
-1 1
  O        1.5553730    -1.4489990    -0.0078940
  O       -2.4744110     1.3948030    -0.0154550
  O       -3.5371250    -0.6067510    -0.0268560
  N       -0.0146490     0.2143920     0.0158120
  C        2.3272120     0.8379530     0.0018960
  C        1.2157768    -0.1909691    -0.0612924
  C       -1.1489000    -0.6463140     0.0180560
  C        3.7164760     0.2336920    -0.0114620
  C       -2.5073920     0.1288020     0.0323140
  H        2.1189330     1.4647508    -0.8759891
  H        2.1776990     1.4878210     0.8748480
  H       -1.1517560    -1.3070500    -0.8570610
  H       -1.1395970    -1.3178250     0.8849180
  H       -0.2830670     1.1965190     0.0239890
  H        3.8663740    -0.3931470     0.8680960
  H        3.8530680    -0.3842560    -0.8995260
  H        4.4669480     1.0276640    -0.0135300
units angstrom
no_reorient  #important for SAPT in psi4, default
symmetry c1  #important for SAPT in psi4, default
}

set PROPERTIES_ORIGIN ["COM"]
properties('MP2/aug-cc-pvtz', properties = ['dipole'])
--------------------------------------------------------------------------

    Molecular point group: c1
  Charge       = -1
  Multiplicity = 1
  Basis Set: AUG-CC-PVTZ
    Blend: AUG-CC-PVTZ
  Basis Set: (AUG-CC-PVTZ AUX)
    Blend: AUG-CC-PVTZ-JKFIT

    Orbital Energies [Eh]
    ---------------------

    Doubly Occupied:

       1A    -20.381026     2A    -20.325449     3A    -20.313528
       4A    -15.459579     5A    -11.225085     6A    -11.167756
       7A    -11.138264     8A    -11.123599     9A    -11.113237
      10A     -1.218802    11A     -1.188708    12A     -1.107213
      13A     -1.085554    14A     -0.951058    15A     -0.844226
      16A     -0.762142    17A     -0.667686    18A     -0.588779
      19A     -0.545414    20A     -0.536081    21A     -0.507685
      22A     -0.488260    23A     -0.466994    24A     -0.429491
      25A     -0.427886    26A     -0.416881    27A     -0.409521
      28A     -0.393474    29A     -0.377423    30A     -0.341243
      31A     -0.294137    32A     -0.259900    33A     -0.238070
      34A     -0.227818    35A     -0.216068

  @DF-RHF Final Energy:  -473.27185384369625

   => Energetics <=

    Nuclear Repulsion Energy =            433.4798058051765111
    One-Electron Energy =               -1519.0272446385104104
    Two-Electron Energy =                 612.2755849896376503
    Total Energy =                       -473.2718538436962490
  Basis Set: (AUG-CC-PVTZ AUX)
    Blend: AUG-CC-PVTZ-RI
    Molecular point group: c1

    Geometry (in Angstrom), charge = -1, multiplicity = 1:

       Center              X                  Y                   Z               Mass
    ------------   -----------------  -----------------  -----------------  -----------------
         O            1.664758014624    -1.438054668767    -0.001575842472    15.994914619570
         O           -2.365025985376     1.405747331233    -0.009136842472    15.994914619570
         O           -3.427739985376    -0.595806668767    -0.020537842472    15.994914619570
         N            0.094736014624     0.225336331233     0.022130157528    14.003074004430
         C            2.436597014624     0.848897331233     0.008214157528    12.000000000000
         C            1.325161814624    -0.180024768767    -0.054974242472    12.000000000000
         C           -1.039514985376    -0.635369668767     0.024374157528    12.000000000000
         C            3.825861014624     0.244636331233    -0.005143842472    12.000000000000
         C           -2.398006985376     0.139746331233     0.038632157528    12.000000000000
         H            2.228318014624     1.475695131233    -0.869670942472     1.007825032230
         H            2.287084014624     1.498765331233     0.881166157528     1.007825032230
         H           -1.042370985376    -1.296105668767    -0.850742842472     1.007825032230
         H           -1.030211985376    -1.306880668767     0.891236157528     1.007825032230
         H           -0.173681985376     1.207463331233     0.030307157528     1.007825032230
         H            3.975759014624    -0.382202668767     0.874414157528     1.007825032230
         H            3.962453014624    -0.373311668767    -0.893207842472     1.007825032230
         H            4.576333014624     1.038608331233    -0.007211842472     1.007825032230

  Basis Set: AUG-CC-PVTZ
    Blend: AUG-CC-PVTZ
  Basis Set: (AUG-CC-PVTZ AUX)
    Blend: AUG-CC-PVTZ-JKFIT
	 Reference Energy          =    -473.2718538436962490 [Eh]
	 Singles Energy            =      -0.0000000000000000 [Eh]
	 Same-Spin Energy          =      -0.4768822168950924 [Eh]
	 Opposite-Spin Energy      =      -1.4669059037576333 [Eh]
	 Correlation Energy        =      -1.9437881206527257 [Eh]
	 Total Energy              =    -475.2156419643489471 [Eh]

	 ================> DF-SCS-MP2 Energies <==================
	-----------------------------------------------------------
	 SCS Same-Spin Scale       =       0.3333333333333333 [-]
	 SCS Opposite-Spin Scale   =       1.2000000000000000 [-]
	 SCS Same-Spin Energy      =      -0.1589607389650308 [Eh]
	 SCS Opposite-Spin Energy  =      -1.7602870845091598 [Eh]
	 SCS Correlation Energy    =      -1.9192478234741905 [Eh]
	 SCS Total Energy          =    -475.1911016671704147 [Eh]
	-----------------------------------------------------------

  Dipole Moment: [D]
     X:     9.5465      Y:     1.7740      Z:     0.0895     Total:     9.7103

*** Psi4 exiting successfully. Buy a developer a beer!
