                               Psi4 1.3.2 release

  ==> Input File <==

--------------------------------------------------------------------------
#psi4
#
memory 32 gb

molecule  {
-1 1
  O        1.5553730    -1.4489990    -0.0078940
  O       -2.4744110     1.3948030    -0.0154550
  O       -3.5371250    -0.6067510    -0.0268560
  N       -0.0146490     0.2143920     0.0158120
  C        2.3272120     0.8379530     0.0018960
  C        1.3882178    -0.0839394     0.0041009
  C       -1.1489000    -0.6463140     0.0180560
  C        3.7164760     0.2336920    -0.0114620
  C       -2.5073920     0.1288020     0.0323140
  H        2.1647820     1.4966320    -0.8622200
  H        2.1776990     1.4878210     0.8748480
  H       -1.1517560    -1.3070500    -0.8570610
  H       -1.1395970    -1.3178250     0.8849180
  H       -0.2830670     1.1965190     0.0239890
  H        3.8663740    -0.3931470     0.8680960
  H        3.8530680    -0.3842560    -0.8995260
  H        4.4669480     1.0276640    -0.0135300
units angstrom
no_reorient  #important for SAPT in psi4, default
symmetry c1  #important for SAPT in psi4, default
}

set PROPERTIES_ORIGIN ["COM"]
properties('MP2/aug-cc-pvtz', properties = ['dipole'])
--------------------------------------------------------------------------

    Molecular point group: c1
  Charge       = -1
  Multiplicity = 1
  Basis Set: AUG-CC-PVTZ
    Blend: AUG-CC-PVTZ
  Basis Set: (AUG-CC-PVTZ AUX)
    Blend: AUG-CC-PVTZ-JKFIT

    Orbital Energies [Eh]
    ---------------------

    Doubly Occupied:

       1A    -20.387239     2A    -20.316840     3A    -20.306962
       4A    -15.447066     5A    -11.242675     6A    -11.160393
       7A    -11.144158     8A    -11.136370     9A    -11.104942
      10A     -1.188458    11A     -1.178164    12A     -1.080810
      13A     -1.059686    14A     -1.002216    15A     -0.847620
      16A     -0.773359    17A     -0.641136    18A     -0.596047
      19A     -0.560171    20A     -0.551728    21A     -0.499817
      22A     -0.471372    23A     -0.462560    24A     -0.443950
      25A     -0.430387    26A     -0.426264    27A     -0.400469
      28A     -0.387561    29A     -0.359654    30A     -0.325636
      31A     -0.299791    32A     -0.240156    33A     -0.229637
      34A     -0.220693    35A     -0.207795

  @DF-RHF Final Energy:  -473.20666695487063

   => Energetics <=

    Nuclear Repulsion Energy =            432.3311534629696666
    One-Electron Energy =               -1516.8120816996533904
    Two-Electron Energy =                 611.2742612818130965
    Total Energy =                       -473.2066669548705704
  Basis Set: (AUG-CC-PVTZ AUX)
    Blend: AUG-CC-PVTZ-RI
    Molecular point group: c1

    Geometry (in Angstrom), charge = -1, multiplicity = 1:

       Center              X                  Y                   Z               Mass
    ------------   -----------------  -----------------  -----------------  -----------------
         O            1.648491248239    -1.448177566412    -0.007716510493    15.994914619570
         O           -2.381292751761     1.395624433588    -0.015277510493    15.994914619570
         O           -3.444006751761    -0.605929566412    -0.026678510493    15.994914619570
         N            0.078469248239     0.215213433588     0.015989489507    14.003074004430
         C            2.420330248239     0.838774433588     0.002073489507    12.000000000000
         C            1.481336048239    -0.083117966412     0.004278389507    12.000000000000
         C           -1.055781751761    -0.645492566412     0.018233489507    12.000000000000
         C            3.809594248239     0.234513433588    -0.011284510493    12.000000000000
         C           -2.414273751761     0.129623433588     0.032491489507    12.000000000000
         H            2.257900248239     1.497453433588    -0.862042510493     1.007825032230
         H            2.270817248239     1.488642433588     0.875025489507     1.007825032230
         H           -1.058637751761    -1.306228566412    -0.856883510493     1.007825032230
         H           -1.046478751761    -1.317003566412     0.885095489507     1.007825032230
         H           -0.189948751761     1.197340433588     0.024166489507     1.007825032230
         H            3.959492248239    -0.392325566412     0.868273489507     1.007825032230
         H            3.946186248239    -0.383434566412    -0.899348510493     1.007825032230
         H            4.560066248239     1.028485433588    -0.013352510493     1.007825032230

  Basis Set: AUG-CC-PVTZ
    Blend: AUG-CC-PVTZ
  Basis Set: (AUG-CC-PVTZ AUX)
    Blend: AUG-CC-PVTZ-JKFIT
	 Reference Energy          =    -473.2066669548706273 [Eh]
	 Singles Energy            =      -0.0000000000000000 [Eh]
	 Same-Spin Energy          =      -0.4816867800333484 [Eh]
	 Opposite-Spin Energy      =      -1.4757380956911770 [Eh]
	 Correlation Energy        =      -1.9574248757245254 [Eh]
	 Total Energy              =    -475.1640918305951686 [Eh]

	 ================> DF-SCS-MP2 Energies <==================
	-----------------------------------------------------------
	 SCS Same-Spin Scale       =       0.3333333333333333 [-]
	 SCS Opposite-Spin Scale   =       1.2000000000000000 [-]
	 SCS Same-Spin Energy      =      -0.1605622600111161 [Eh]
	 SCS Opposite-Spin Energy  =      -1.7708857148294124 [Eh]
	 SCS Correlation Energy    =      -1.9314479748405284 [Eh]
	 SCS Total Energy          =    -475.1381149297111506 [Eh]
	-----------------------------------------------------------

  Dipole Moment: [D]
     X:    10.7502      Y:     2.1496      Z:     0.1329     Total:    10.9638

*** Psi4 exiting successfully. Buy a developer a beer!
