                               Psi4 1.3.2 release

  ==> Input File <==

--------------------------------------------------------------------------
#psi4
#
memory 32 gb

molecule  {
-1 1
  O        1.5553730    -1.4489990    -0.0078940
  O       -2.4744110     1.3948030    -0.0154550
  O       -3.5371250    -0.6067510    -0.0268560
  N       -0.0146490     0.2143920     0.0158120
  C        2.3272120     0.8379530     0.0018960
  C        1.2455030    -0.2240550     0.0044360
  C       -1.1782454    -0.6062061     0.0185163
  C        3.7164760     0.2336920    -0.0114620
  C       -2.5073920     0.1288020     0.0323140
  H        2.1647820     1.4966320    -0.8622200
  H        2.1776990     1.4878210     0.8748480
  H       -1.1517560    -1.3070500    -0.8570610
  H       -1.1395970    -1.3178250     0.8849180
  H       -0.3171795     1.1865515     0.0241591
  H        3.8663740    -0.3931470     0.8680960
  H        3.8530680    -0.3842560    -0.8995260
  H        4.4669480     1.0276640    -0.0135300
units angstrom
no_reorient  #important for SAPT in psi4, default
symmetry c1  #important for SAPT in psi4, default
}

set PROPERTIES_ORIGIN ["COM"]
properties('MP2/aug-cc-pvtz', properties = ['dipole'])
--------------------------------------------------------------------------

    Molecular point group: c1
  Charge       = -1
  Multiplicity = 1
  Basis Set: AUG-CC-PVTZ
    Blend: AUG-CC-PVTZ
  Basis Set: (AUG-CC-PVTZ AUX)
    Blend: AUG-CC-PVTZ-JKFIT

    Orbital Energies [Eh]
    ---------------------

    Doubly Occupied:

       1A    -20.392027     2A    -20.322694     3A    -20.310947
       4A    -15.451263     5A    -11.229293     6A    -11.163501
       7A    -11.137789     8A    -11.124198     9A    -11.112382
      10A     -1.235474    11A     -1.189377    12A     -1.103153
      13A     -1.083177    14A     -0.952776    15A     -0.838932
      16A     -0.759963    17A     -0.662116    18A     -0.593742
      19A     -0.550016    20A     -0.535102    21A     -0.504424
      22A     -0.480408    23A     -0.475157    24A     -0.429060
      25A     -0.425972    26A     -0.416580    27A     -0.414273
      28A     -0.392309    29A     -0.380844    30A     -0.340272
      31A     -0.304074    32A     -0.254676    33A     -0.237703
      34A     -0.228740    35A     -0.213578

  @DF-RHF Final Energy:  -473.27830837533446

   => Energetics <=

    Nuclear Repulsion Energy =            433.7824451846607303
    One-Electron Energy =               -1519.6295207675209440
    Two-Electron Energy =                 612.5687672075258661
    Total Energy =                       -473.2783083753344044
  Basis Set: (AUG-CC-PVTZ AUX)
    Blend: AUG-CC-PVTZ-RI
    Molecular point group: c1

    Geometry (in Angstrom), charge = -1, multiplicity = 1:

       Center              X                  Y                   Z               Mass
    ------------   -----------------  -----------------  -----------------  -----------------
         O            1.664631925537    -1.438872422196    -0.007791221756    15.994914619570
         O           -2.365152074463     1.404929577804    -0.015352221756    15.994914619570
         O           -3.427866074463    -0.596624422196    -0.026753221756    15.994914619570
         N            0.094609925537     0.224518577804     0.015914778244    14.003074004430
         C            2.436470925537     0.848079577804     0.001998778244    12.000000000000
         C            1.354761925537    -0.213928422196     0.004538778244    12.000000000000
         C           -1.068986474463    -0.596079522196     0.018619078244    12.000000000000
         C            3.825734925537     0.243818577804    -0.011359221756    12.000000000000
         C           -2.398133074463     0.138928577804     0.032416778244    12.000000000000
         H            2.274040925537     1.506758577804    -0.862117221756     1.007825032230
         H            2.286957925537     1.497947577804     0.874950778244     1.007825032230
         H           -1.042497074463    -1.296923422196    -0.856958221756     1.007825032230
         H           -1.030338074463    -1.307698422196     0.885020778244     1.007825032230
         H           -0.207920574463     1.196678077804     0.024261878244     1.007825032230
         H            3.975632925537    -0.383020422196     0.868198778244     1.007825032230
         H            3.962326925537    -0.374129422196    -0.899423221756     1.007825032230
         H            4.576206925537     1.037790577804    -0.013427221756     1.007825032230

  Basis Set: AUG-CC-PVTZ
    Blend: AUG-CC-PVTZ
  Basis Set: (AUG-CC-PVTZ AUX)
    Blend: AUG-CC-PVTZ-JKFIT
	 Reference Energy          =    -473.2783083753344613 [Eh]
	 Singles Energy            =      -0.0000000000000000 [Eh]
	 Same-Spin Energy          =      -0.4765312808105071 [Eh]
	 Opposite-Spin Energy      =      -1.4659726992565765 [Eh]
	 Correlation Energy        =      -1.9425039800670836 [Eh]
	 Total Energy              =    -475.2208123554015629 [Eh]

	 ================> DF-SCS-MP2 Energies <==================
	-----------------------------------------------------------
	 SCS Same-Spin Scale       =       0.3333333333333333 [-]
	 SCS Opposite-Spin Scale   =       1.2000000000000000 [-]
	 SCS Same-Spin Energy      =      -0.1588437602701690 [Eh]
	 SCS Opposite-Spin Energy  =      -1.7591672391078916 [Eh]
	 SCS Correlation Energy    =      -1.9180109993780607 [Eh]
	 SCS Total Energy          =    -475.1963193747125160 [Eh]
	-----------------------------------------------------------

  Dipole Moment: [D]
     X:     9.8799      Y:     1.5703      Z:     0.1367     Total:    10.0048

*** Psi4 exiting successfully. Buy a developer a beer!
