                               Psi4 1.3.2 release

  ==> Input File <==

--------------------------------------------------------------------------
#psi4
#
memory 32 gb

molecule  {
-1 1
  O        1.5553730    -1.4489990    -0.0078940
  O       -2.4744110     1.3948030    -0.0154550
  O       -3.5371250    -0.6067510    -0.0268560
  N       -0.0453763     0.2534513     0.0162724
  C        2.3272120     0.8379530     0.0018960
  C        1.2455030    -0.2240550     0.0044360
  C       -1.1489000    -0.6463140     0.0180560
  C        3.7164760     0.2336920    -0.0114620
  C       -2.4795113     0.1757418     0.0324240
  H        2.1647820     1.4966320    -0.8622200
  H        2.1776990     1.4878210     0.8748480
  H       -1.1517560    -1.3070500    -0.8570610
  H       -1.1395970    -1.3178250     0.8849180
  H       -0.2830670     1.1965190     0.0239890
  H        3.8663740    -0.3931470     0.8680960
  H        3.8530680    -0.3842560    -0.8995260
  H        4.4669480     1.0276640    -0.0135300
units angstrom
no_reorient  #important for SAPT in psi4, default
symmetry c1  #important for SAPT in psi4, default
}

set PROPERTIES_ORIGIN ["COM"]
properties('MP2/aug-cc-pvtz', properties = ['dipole'])
--------------------------------------------------------------------------

    Molecular point group: c1
  Charge       = -1
  Multiplicity = 1
  Basis Set: AUG-CC-PVTZ
    Blend: AUG-CC-PVTZ
  Basis Set: (AUG-CC-PVTZ AUX)
    Blend: AUG-CC-PVTZ-JKFIT

    Orbital Energies [Eh]
    ---------------------

    Doubly Occupied:

       1A    -20.401711     2A    -20.332227     3A    -20.294932
       4A    -15.447685     5A    -11.236225     6A    -11.160602
       7A    -11.139792     8A    -11.126203     9A    -11.106900
      10A     -1.237393    11A     -1.200696    12A     -1.099451
      13A     -1.065674    14A     -0.954844    15A     -0.831460
      16A     -0.759244    17A     -0.667710    18A     -0.590697
      19A     -0.539621    20A     -0.536133    21A     -0.511926
      22A     -0.482119    23A     -0.481887    24A     -0.429051
      25A     -0.425054    26A     -0.418137    27A     -0.416645
      28A     -0.399366    29A     -0.380920    30A     -0.347941
      31A     -0.308117    32A     -0.259278    33A     -0.234957
      34A     -0.212574    35A     -0.204651

  @DF-RHF Final Energy:  -473.27266893694349

   => Energetics <=

    Nuclear Repulsion Energy =            433.1610124947803229
    One-Electron Energy =               -1518.3837150141939674
    Two-Electron Energy =                 611.9500335824700414
    Total Energy =                       -473.2726689369435462
  Basis Set: (AUG-CC-PVTZ AUX)
    Blend: AUG-CC-PVTZ-RI
    Molecular point group: c1

    Geometry (in Angstrom), charge = -1, multiplicity = 1:

       Center              X                  Y                   Z               Mass
    ------------   -----------------  -----------------  -----------------  -----------------
         O            1.662395746832    -1.443785736384    -0.007807153917    15.994914619570
         O           -2.367388253168     1.400016263616    -0.015368153917    15.994914619570
         O           -3.430102253168    -0.601537736384    -0.026769153917    15.994914619570
         N            0.061646446832     0.258664563616     0.016359246083    14.003074004430
         C            2.434234746832     0.843166263616     0.001982846083    12.000000000000
         C            1.352525746832    -0.218841736384     0.004522846083    12.000000000000
         C           -1.041877253168    -0.641100736384     0.018142846083    12.000000000000
         C            3.823498746832     0.238905263616    -0.011375153917    12.000000000000
         C           -2.372488553168     0.180955063616     0.032510846083    12.000000000000
         H            2.271804746832     1.501845263616    -0.862133153917     1.007825032230
         H            2.284721746832     1.493034263616     0.874934846083     1.007825032230
         H           -1.044733253168    -1.301836736384    -0.856974153917     1.007825032230
         H           -1.032574253168    -1.312611736384     0.885004846083     1.007825032230
         H           -0.176044253168     1.201732263616     0.024075846083     1.007825032230
         H            3.973396746832    -0.387933736384     0.868182846083     1.007825032230
         H            3.960090746832    -0.379042736384    -0.899439153917     1.007825032230
         H            4.573970746832     1.032877263616    -0.013443153917     1.007825032230

  Basis Set: AUG-CC-PVTZ
    Blend: AUG-CC-PVTZ
  Basis Set: (AUG-CC-PVTZ AUX)
    Blend: AUG-CC-PVTZ-JKFIT
	 Reference Energy          =    -473.2726689369434894 [Eh]
	 Singles Energy            =      -0.0000000000000000 [Eh]
	 Same-Spin Energy          =      -0.4760264945140406 [Eh]
	 Opposite-Spin Energy      =      -1.4656071994190731 [Eh]
	 Correlation Energy        =      -1.9416336939331138 [Eh]
	 Total Energy              =    -475.2143026308766025 [Eh]

	 ================> DF-SCS-MP2 Energies <==================
	-----------------------------------------------------------
	 SCS Same-Spin Scale       =       0.3333333333333333 [-]
	 SCS Opposite-Spin Scale   =       1.2000000000000000 [-]
	 SCS Same-Spin Energy      =      -0.1586754981713469 [Eh]
	 SCS Opposite-Spin Energy  =      -1.7587286393028878 [Eh]
	 SCS Correlation Energy    =      -1.9174041374742345 [Eh]
	 SCS Total Energy          =    -475.1900730744177395 [Eh]
	-----------------------------------------------------------

  Dipole Moment: [D]
     X:    10.5187      Y:     1.9352      Z:     0.1371     Total:    10.6961

*** Psi4 exiting successfully. Buy a developer a beer!
