                               Psi4 1.3.2 release

  ==> Input File <==

--------------------------------------------------------------------------
#psi4
#
memory 32 gb

molecule  {
-1 1
  O        1.5553730    -1.4489990    -0.0078940
  O       -2.4744110     1.3948030    -0.0154550
  O       -3.5371250    -0.6067510    -0.0268560
  N       -0.0146490     0.2143920     0.0158120
  C        2.3272120     0.8379530     0.0018960
  C        1.2455030    -0.2240550     0.0044360
  C       -1.1489000    -0.6463140     0.0180560
  C        3.7164760     0.2336920    -0.0114620
  C       -2.5125968    -0.0709881     0.0398525
  H        2.1647820     1.4966320    -0.8622200
  H        2.1776990     1.4878210     0.8748480
  H       -1.1517560    -1.3070500    -0.8570610
  H       -1.1395970    -1.3178250     0.8849180
  H       -0.2830670     1.1965190     0.0239890
  H        3.8663740    -0.3931470     0.8680960
  H        3.8530680    -0.3842560    -0.8995260
  H        4.4669480     1.0276640    -0.0135300
units angstrom
no_reorient  #important for SAPT in psi4, default
symmetry c1  #important for SAPT in psi4, default
}

set PROPERTIES_ORIGIN ["COM"]
properties('MP2/aug-cc-pvtz', properties = ['dipole'])
--------------------------------------------------------------------------

    Molecular point group: c1
  Charge       = -1
  Multiplicity = 1
  Basis Set: AUG-CC-PVTZ
    Blend: AUG-CC-PVTZ
  Basis Set: (AUG-CC-PVTZ AUX)
    Blend: AUG-CC-PVTZ-JKFIT

    Orbital Energies [Eh]
    ---------------------

    Doubly Occupied:

       1A    -20.392707     2A    -20.348493     3A    -20.280059
       4A    -15.453933     5A    -11.229614     6A    -11.164688
       7A    -11.137802     8A    -11.124281     9A    -11.119499
      10A     -1.240691    11A     -1.235487    12A     -1.107322
      13A     -1.000435    14A     -0.952779    15A     -0.852913
      16A     -0.769291    17A     -0.661909    18A     -0.600643
      19A     -0.555971    20A     -0.536528    21A     -0.509005
      22A     -0.495302    23A     -0.481181    24A     -0.442178
      25A     -0.427150    26A     -0.422683    27A     -0.414554
      28A     -0.389746    29A     -0.386126    30A     -0.352439
      31A     -0.304887    32A     -0.259155    33A     -0.216474
      34A     -0.198382    35A     -0.187677

  @DF-RHF Final Energy:  -473.23087874902643

   => Energetics <=

    Nuclear Repulsion Energy =            433.3279915785351477
    One-Electron Energy =               -1518.6137710050602436
    Two-Electron Energy =                 612.0549006774986083
    Total Energy =                       -473.2308787490264876
  Basis Set: (AUG-CC-PVTZ AUX)
    Blend: AUG-CC-PVTZ-RI
    Molecular point group: c1

    Geometry (in Angstrom), charge = -1, multiplicity = 1:

       Center              X                  Y                   Z               Mass
    ------------   -----------------  -----------------  -----------------  -----------------
         O            1.662140071715    -1.416813819498    -0.008443022574    15.994914619570
         O           -2.367643928285     1.426988180502    -0.016004022574    15.994914619570
         O           -3.430357928285    -0.574565819498    -0.027405022574    15.994914619570
         N            0.092118071715     0.246577180502     0.015262977426    14.003074004430
         C            2.433979071715     0.870138180502     0.001346977426    12.000000000000
         C            1.352270071715    -0.191869819498     0.003886977426    12.000000000000
         C           -1.042132928285    -0.614128819498     0.017506977426    12.000000000000
         C            3.823243071715     0.265877180502    -0.012011022574    12.000000000000
         C           -2.405829728285    -0.038802919498     0.039303477426    12.000000000000
         H            2.271549071715     1.528817180502    -0.862769022574     1.007825032230
         H            2.284466071715     1.520006180502     0.874298977426     1.007825032230
         H           -1.044988928285    -1.274864819498    -0.857610022574     1.007825032230
         H           -1.032829928285    -1.285639819498     0.884368977426     1.007825032230
         H           -0.176299928285     1.228704180502     0.023439977426     1.007825032230
         H            3.973141071715    -0.360961819498     0.867546977426     1.007825032230
         H            3.959835071715    -0.352070819498    -0.900075022574     1.007825032230
         H            4.573715071715     1.059849180502    -0.014079022574     1.007825032230

  Basis Set: AUG-CC-PVTZ
    Blend: AUG-CC-PVTZ
  Basis Set: (AUG-CC-PVTZ AUX)
    Blend: AUG-CC-PVTZ-JKFIT
	 Reference Energy          =    -473.2308787490264308 [Eh]
	 Singles Energy            =      -0.0000000000000000 [Eh]
	 Same-Spin Energy          =      -0.4779759103960458 [Eh]
	 Opposite-Spin Energy      =      -1.4698844100498420 [Eh]
	 Correlation Energy        =      -1.9478603204458880 [Eh]
	 Total Energy              =    -475.1787390694723285 [Eh]

	 ================> DF-SCS-MP2 Energies <==================
	-----------------------------------------------------------
	 SCS Same-Spin Scale       =       0.3333333333333333 [-]
	 SCS Opposite-Spin Scale   =       1.2000000000000000 [-]
	 SCS Same-Spin Energy      =      -0.1593253034653486 [Eh]
	 SCS Opposite-Spin Energy  =      -1.7638612920598105 [Eh]
	 SCS Correlation Energy    =      -1.9231865955251590 [Eh]
	 SCS Total Energy          =    -475.1540653445516114 [Eh]
	-----------------------------------------------------------

  Dipole Moment: [D]
     X:     9.5069      Y:    -0.2752      Z:     0.1332     Total:     9.5119

*** Psi4 exiting successfully. Buy a developer a beer!
