                               Psi4 1.3.2 release

  ==> Input File <==

--------------------------------------------------------------------------
#psi4
#
memory 32 gb

molecule  {
-1 1
  O        1.5553730    -1.4489990    -0.0078940
  O       -2.4744110     1.3948030    -0.0154550
  O       -3.5371250    -0.6067510    -0.0268560
  N       -0.0146490     0.2143920     0.0158120
  C        2.3272120     0.8379530     0.0018960
  C        1.2669730    -0.2445004     0.0482622
  C       -1.1489000    -0.6463140     0.0180560
  C        3.7164760     0.2336920    -0.0114620
  C       -2.5073920     0.1288020     0.0323140
  H        2.1956032     1.5168883    -0.8517222
  H        2.1776990     1.4878210     0.8748480
  H       -1.1517560    -1.3070500    -0.8570610
  H       -1.1395970    -1.3178250     0.8849180
  H       -0.2830670     1.1965190     0.0239890
  H        3.8663740    -0.3931470     0.8680960
  H        3.8530680    -0.3842560    -0.8995260
  H        4.4669480     1.0276640    -0.0135300
units angstrom
no_reorient  #important for SAPT in psi4, default
symmetry c1  #important for SAPT in psi4, default
}

set PROPERTIES_ORIGIN ["COM"]
properties('MP2/aug-cc-pvtz', properties = ['dipole'])
--------------------------------------------------------------------------

    Molecular point group: c1
  Charge       = -1
  Multiplicity = 1
  Basis Set: AUG-CC-PVTZ
    Blend: AUG-CC-PVTZ
  Basis Set: (AUG-CC-PVTZ AUX)
    Blend: AUG-CC-PVTZ-JKFIT

    Orbital Energies [Eh]
    ---------------------

    Doubly Occupied:

       1A    -20.398699     2A    -20.320464     3A    -20.308970
       4A    -15.445672     5A    -11.229738     6A    -11.162655
       7A    -11.137545     8A    -11.124534     9A    -11.105954
      10A     -1.249569    11A     -1.185210    12A     -1.095828
      13A     -1.079801    14A     -0.953833    15A     -0.831099
      16A     -0.756230    17A     -0.655343    18A     -0.591812
      19A     -0.543706    20A     -0.534717    21A     -0.509221
      22A     -0.481363    23A     -0.478319    24A     -0.424431
      25A     -0.423753    26A     -0.417529    27A     -0.417277
      28A     -0.396090    29A     -0.382651    30A     -0.344933
      31A     -0.308191    32A     -0.254851    33A     -0.233296
      34A     -0.222662    35A     -0.211197

  @DF-RHF Final Energy:  -473.28144403534702

   => Energetics <=

    Nuclear Repulsion Energy =            433.2603863168497469
    One-Electron Energy =               -1518.6493710902764178
    Two-Electron Energy =                 612.1075407380797060
    Total Energy =                       -473.2814440353470218
  Basis Set: (AUG-CC-PVTZ AUX)
    Blend: AUG-CC-PVTZ-RI
    Molecular point group: c1

    Geometry (in Angstrom), charge = -1, multiplicity = 1:

       Center              X                  Y                   Z               Mass
    ------------   -----------------  -----------------  -----------------  -----------------
         O            1.659439888341    -1.433519272949    -0.011872710476    15.994914619570
         O           -2.370344111659     1.410282727051    -0.019433710476    15.994914619570
         O           -3.433058111659    -0.591271272949    -0.030834710476    15.994914619570
         N            0.089417888341     0.229871727051     0.011833289524    14.003074004430
         C            2.431278888341     0.853432727051    -0.002082710476    12.000000000000
         C            1.371039888341    -0.229020672949     0.044283489524    12.000000000000
         C           -1.044833111659    -0.630834272949     0.014077289524    12.000000000000
         C            3.820542888341     0.249171727051    -0.015440710476    12.000000000000
         C           -2.403325111659     0.144281727051     0.028335289524    12.000000000000
         H            2.299670088341     1.532368027051    -0.855700910476     1.007825032230
         H            2.281765888341     1.503300727051     0.870869289524     1.007825032230
         H           -1.047689111659    -1.291570272949    -0.861039710476     1.007825032230
         H           -1.035530111659    -1.302345272949     0.880939289524     1.007825032230
         H           -0.179000111659     1.211998727051     0.020010289524     1.007825032230
         H            3.970440888341    -0.377667272949     0.864117289524     1.007825032230
         H            3.957134888341    -0.368776272949    -0.903504710476     1.007825032230
         H            4.571014888341     1.043143727051    -0.017508710476     1.007825032230

  Basis Set: AUG-CC-PVTZ
    Blend: AUG-CC-PVTZ
  Basis Set: (AUG-CC-PVTZ AUX)
    Blend: AUG-CC-PVTZ-JKFIT
	 Reference Energy          =    -473.2814440353470218 [Eh]
	 Singles Energy            =      -0.0000000000000000 [Eh]
	 Same-Spin Energy          =      -0.4759059402718075 [Eh]
	 Opposite-Spin Energy      =      -1.4649362022146764 [Eh]
	 Correlation Energy        =      -1.9408421424864839 [Eh]
	 Total Energy              =    -475.2222861778334959 [Eh]

	 ================> DF-SCS-MP2 Energies <==================
	-----------------------------------------------------------
	 SCS Same-Spin Scale       =       0.3333333333333333 [-]
	 SCS Opposite-Spin Scale   =       1.2000000000000000 [-]
	 SCS Same-Spin Energy      =      -0.1586353134239358 [Eh]
	 SCS Opposite-Spin Energy  =      -1.7579234426576116 [Eh]
	 SCS Correlation Energy    =      -1.9165587560815474 [Eh]
	 SCS Total Energy          =    -475.1980027914285643 [Eh]
	-----------------------------------------------------------

  Dipole Moment: [D]
     X:    10.1377      Y:     1.4215      Z:     0.1783     Total:    10.2384

*** Psi4 exiting successfully. Buy a developer a beer!
