                               Psi4 1.3.2 release

  ==> Input File <==

--------------------------------------------------------------------------
#psi4
#
memory 32 gb

molecule  {
-1 1
  O        1.5553730    -1.4489990    -0.0078940
  O       -2.4744110     1.3948030    -0.0154550
  O       -3.5371250    -0.6067510    -0.0268560
  N        0.0014216     0.2581048     0.0159146
  C        2.2894914     0.8750563     0.0023570
  C        1.2455030    -0.2240550     0.0044360
  C       -1.1489000    -0.6463140     0.0180560
  C        3.7164760     0.2336920    -0.0114620
  C       -2.5073920     0.1288020     0.0323140
  H        2.1647820     1.4966320    -0.8622200
  H        2.1776990     1.4878210     0.8748480
  H       -1.1517560    -1.3070500    -0.8570610
  H       -1.1395970    -1.3178250     0.8849180
  H       -0.2830670     1.1965190     0.0239890
  H        3.8663740    -0.3931470     0.8680960
  H        3.8530680    -0.3842560    -0.8995260
  H        4.4669480     1.0276640    -0.0135300
units angstrom
no_reorient  #important for SAPT in psi4, default
symmetry c1  #important for SAPT in psi4, default
}

set PROPERTIES_ORIGIN ["COM"]
properties('MP2/aug-cc-pvtz', properties = ['dipole'])
--------------------------------------------------------------------------

    Molecular point group: c1
  Charge       = -1
  Multiplicity = 1
  Basis Set: AUG-CC-PVTZ
    Blend: AUG-CC-PVTZ
  Basis Set: (AUG-CC-PVTZ AUX)
    Blend: AUG-CC-PVTZ-JKFIT

    Orbital Energies [Eh]
    ---------------------

    Doubly Occupied:

       1A    -20.394926     2A    -20.322192     3A    -20.310974
       4A    -15.449733     5A    -11.228949     6A    -11.164573
       7A    -11.132814     8A    -11.124367     9A    -11.111824
      10A     -1.234980    11A     -1.186869    12A     -1.102401
      13A     -1.082382    14A     -0.944247    15A     -0.831606
      16A     -0.760384    17A     -0.673205    18A     -0.588531
      19A     -0.538747    20A     -0.537973    21A     -0.507185
      22A     -0.480112    23A     -0.473214    24A     -0.428422
      25A     -0.421141    26A     -0.417443    27A     -0.409584
      28A     -0.392512    29A     -0.386300    30A     -0.344300
      31A     -0.304892    32A     -0.262500    33A     -0.235155
      34A     -0.224399    35A     -0.213501

  @DF-RHF Final Energy:  -473.27833291872662

   => Energetics <=

    Nuclear Repulsion Energy =            432.7849485490907000
    One-Electron Energy =               -1517.6818932715443680
    Two-Electron Energy =                 611.6186118037269352
    Total Energy =                       -473.2783329187266190
  Basis Set: (AUG-CC-PVTZ AUX)
    Blend: AUG-CC-PVTZ-RI
    Molecular point group: c1

    Geometry (in Angstrom), charge = -1, multiplicity = 1:

       Center              X                  Y                   Z               Mass
    ------------   -----------------  -----------------  -----------------  -----------------
         O            1.663409977659    -1.443379165641    -0.007801015530    15.994914619570
         O           -2.366374022341     1.400422834359    -0.015362015530    15.994914619570
         O           -3.429088022341    -0.601131165641    -0.026763015530    15.994914619570
         N            0.109458577659     0.263724634359     0.016007584470    14.003074004430
         C            2.397528377659     0.880676134359     0.002449984470    12.000000000000
         C            1.353539977659    -0.218435165641     0.004528984470    12.000000000000
         C           -1.040863022341    -0.640694165641     0.018148984470    12.000000000000
         C            3.824512977659     0.239311834359    -0.011369015530    12.000000000000
         C           -2.399355022341     0.134421834359     0.032406984470    12.000000000000
         H            2.272818977659     1.502251834359    -0.862127015530     1.007825032230
         H            2.285735977659     1.493440834359     0.874940984470     1.007825032230
         H           -1.043719022341    -1.301430165641    -0.856968015530     1.007825032230
         H           -1.031560022341    -1.312205165641     0.885010984470     1.007825032230
         H           -0.175030022341     1.202138834359     0.024081984470     1.007825032230
         H            3.974410977659    -0.387527165641     0.868188984470     1.007825032230
         H            3.961104977659    -0.378636165641    -0.899433015530     1.007825032230
         H            4.574984977659     1.033283834359    -0.013437015530     1.007825032230

  Basis Set: AUG-CC-PVTZ
    Blend: AUG-CC-PVTZ
  Basis Set: (AUG-CC-PVTZ AUX)
    Blend: AUG-CC-PVTZ-JKFIT
	 Reference Energy          =    -473.2783329187266190 [Eh]
	 Singles Energy            =      -0.0000000000000000 [Eh]
	 Same-Spin Energy          =      -0.4756057650908391 [Eh]
	 Opposite-Spin Energy      =      -1.4652121687521409 [Eh]
	 Correlation Energy        =      -1.9408179338429798 [Eh]
	 Total Energy              =    -475.2191508525696122 [Eh]

	 ================> DF-SCS-MP2 Energies <==================
	-----------------------------------------------------------
	 SCS Same-Spin Scale       =       0.3333333333333333 [-]
	 SCS Opposite-Spin Scale   =       1.2000000000000000 [-]
	 SCS Same-Spin Energy      =      -0.1585352550302797 [Eh]
	 SCS Opposite-Spin Energy  =      -1.7582546025025689 [Eh]
	 SCS Correlation Energy    =      -1.9167898575328486 [Eh]
	 SCS Total Energy          =    -475.1951227762594954 [Eh]
	-----------------------------------------------------------

  Dipole Moment: [D]
     X:     9.8164      Y:     1.5138      Z:     0.1374     Total:     9.9334

*** Psi4 exiting successfully. Buy a developer a beer!
