                               Psi4 1.4a3.dev225

  ==> Input File <==

--------------------------------------------------------------------------
#psi4
#
memory 32 gb

molecule  {
-1 1
  O       -1.5186010     1.5599430    -0.1433510
  O        2.2638970    -1.4295650    -0.0456660
  O        3.5317420     0.4486470     0.1950180
  N        0.0040180    -0.1295860    -0.1151350
  C       -2.3384940    -0.6954940    -0.4149760
  C       -1.2508570     0.3439190    -0.2101810
  C        1.2159766     0.7337096     0.0457591
  C       -3.5055210    -0.4701880     0.5431350
  C        2.4465640    -0.1793200     0.0655420
  H       -2.6873130    -0.6028840    -1.4504550
  H       -1.9319890    -1.7056860    -0.3020050
  H        1.2516430     1.4279040    -0.7806770
  H        1.1211640     1.2868180     0.9683990
  H        0.2309340    -1.1197490    -0.1755670
  H       -3.1861080    -0.6022700     1.5809140
  H       -3.8905480     0.5449040     0.4307430
  H       -4.3152940    -1.1768540     0.3431720
units angstrom
no_reorient  #important for SAPT in psi4, default
symmetry c1  #important for SAPT in psi4, default
}

set PROPERTIES_ORIGIN ["COM"]
properties('MP2/aug-cc-pvtz', properties = ['dipole'])
--------------------------------------------------------------------------

    Molecular point group: c1
  Charge       = -1
  Multiplicity = 1
  Basis Set: AUG-CC-PVTZ
    Blend: AUG-CC-PVTZ
  Basis Set: (AUG-CC-PVTZ AUX)
    Blend: AUG-CC-PVTZ-JKFIT

    Orbital Energies [Eh]
    ---------------------

    Doubly Occupied:

       1A    -20.384614     2A    -20.323795     3A    -20.313784
       4A    -15.442601     5A    -11.219671     6A    -11.163910
       7A    -11.133803     8A    -11.126738     9A    -11.111068
      10A     -1.235260    11A     -1.191499    12A     -1.094402
      13A     -1.075448    14A     -0.947387    15A     -0.831705
      16A     -0.761182    17A     -0.648452    18A     -0.582887
      19A     -0.542908    20A     -0.527361    21A     -0.498574
      22A     -0.485841    23A     -0.473379    24A     -0.438226
      25A     -0.430440    26A     -0.419584    27A     -0.407076
      28A     -0.390504    29A     -0.380251    30A     -0.347887
      31A     -0.296281    32A     -0.257011    33A     -0.240626
      34A     -0.227177    35A     -0.216560

  @DF-RHF Final Energy:  -473.28624116192663

   => Energetics <=

    Nuclear Repulsion Energy =            434.6771433340288695
    One-Electron Energy =               -1521.5909852126237638
    Two-Electron Energy =                 613.6276007166683257
    Total Energy =                       -473.2862411619265686
  Basis Set: (AUG-CC-PVTZ AUX)
    Blend: AUG-CC-PVTZ-RI
    Molecular point group: c1

    Geometry (in Angstrom), charge = -1, multiplicity = 1:

       Center              X                  Y                   Z               Mass
    ------------   -----------------  -----------------  -----------------  -----------------
         O           -1.624457791383     1.542447373367    -0.139155884132    15.994914619570
         O            2.158040208617    -1.447060626633    -0.041470884132    15.994914619570
         O            3.425885208617     0.431151373367     0.199213115868    15.994914619570
         N           -0.101838791383    -0.147081626633    -0.110939884132    14.003074004430
         C           -2.444350791383    -0.712989626633    -0.410780884132    12.000000000000
         C           -1.356713791383     0.326423373367    -0.205985884132    12.000000000000
         C            1.110119808617     0.716213973367     0.049954215868    12.000000000000
         C           -3.611377791383    -0.487683626633     0.547330115868    12.000000000000
         C            2.340707208617    -0.196815626633     0.069737115868    12.000000000000
         H           -2.793169791383    -0.620379626633    -1.446259884132     1.007825032230
         H           -2.037845791383    -1.723181626633    -0.297809884132     1.007825032230
         H            1.145786208617     1.410408373367    -0.776481884132     1.007825032230
         H            1.015307208617     1.269322373367     0.972594115868     1.007825032230
         H            0.125077208617    -1.137244626633    -0.171371884132     1.007825032230
         H           -3.291964791383    -0.619765626633     1.585109115868     1.007825032230
         H           -3.996404791383     0.527408373367     0.434938115868     1.007825032230
         H           -4.421150791383    -1.194349626633     0.347367115868     1.007825032230

  Basis Set: AUG-CC-PVTZ
    Blend: AUG-CC-PVTZ
  Basis Set: (AUG-CC-PVTZ AUX)
    Blend: AUG-CC-PVTZ-JKFIT
	 Reference Energy          =    -473.2862411619266254 [Eh]
	 Singles Energy            =      -0.0000000000000000 [Eh]
	 Same-Spin Energy          =      -0.4755830777608931 [Eh]
	 Opposite-Spin Energy      =      -1.4649289763648170 [Eh]
	 Correlation Energy        =      -1.9405120541257102 [Eh]
	 Total Energy              =    -475.2267532160523160 [Eh]

	 ================> DF-SCS-MP2 Energies <==================
	-----------------------------------------------------------
	 SCS Same-Spin Scale       =       0.3333333333333333 [-]
	 SCS Opposite-Spin Scale   =       1.2000000000000000 [-]
	 SCS Same-Spin Energy      =      -0.1585276925869644 [Eh]
	 SCS Opposite-Spin Energy  =      -1.7579147716377803 [Eh]
	 SCS Correlation Energy    =      -1.9164424642247446 [Eh]
	 SCS Total Energy          =    -475.2026836261513836 [Eh]
	-----------------------------------------------------------

  Dipole Moment: [D]
     X:    -9.2317      Y:    -1.0679      Z:    -0.3964     Total:     9.3017

*** Psi4 exiting successfully. Buy a developer a beer!
