                               Psi4 1.3.2 release

  ==> Input File <==

--------------------------------------------------------------------------
#psi4
#
memory 32 gb

molecule  {
-1 1
  O        1.5553730    -1.4489990    -0.0078940
  O       -2.4744110     1.3948030    -0.0154550
  O       -3.5371250    -0.6067510    -0.0268560
  N       -0.0107745     0.2253724     0.0158390
  C        2.3179036     0.8473519     0.0020110
  C        1.2455030    -0.2240550     0.0044360
  C       -1.1489000    -0.6463140     0.0180560
  C        3.7164760     0.2336920    -0.0114620
  C       -2.5073920     0.1288020     0.0323140
  H        2.1647820     1.4966320    -0.8622200
  H        2.1776990     1.4878210     0.8748480
  H       -1.1517560    -1.3070500    -0.8570610
  H       -1.1395970    -1.3178250     0.8849180
  H       -0.2830670     1.1965190     0.0239890
  H        3.8663740    -0.3931470     0.8680960
  H        3.8530680    -0.3842560    -0.8995260
  H        4.4669480     1.0276640    -0.0135300
units angstrom
no_reorient  #important for SAPT in psi4, default
symmetry c1  #important for SAPT in psi4, default
}

set PROPERTIES_ORIGIN ["COM"]
properties('MP2/aug-cc-pvtz', properties = ['dipole'])
--------------------------------------------------------------------------

    Molecular point group: c1
  Charge       = -1
  Multiplicity = 1
  Basis Set: AUG-CC-PVTZ
    Blend: AUG-CC-PVTZ
  Basis Set: (AUG-CC-PVTZ AUX)
    Blend: AUG-CC-PVTZ-JKFIT

    Orbital Energies [Eh]
    ---------------------

    Doubly Occupied:

       1A    -20.392289     2A    -20.322417     3A    -20.310850
       4A    -15.450849     5A    -11.227817     6A    -11.164688
       7A    -11.136277     8A    -11.124182     9A    -11.109618
      10A     -1.235116    11A     -1.186954    12A     -1.102269
      13A     -1.082376    14A     -0.950354    15A     -0.835122
      16A     -0.758973    17A     -0.663369    18A     -0.589578
      19A     -0.543142    20A     -0.535811    21A     -0.507188
      22A     -0.483086    23A     -0.474568    24A     -0.426274
      25A     -0.421168    26A     -0.418134    27A     -0.414376
      28A     -0.396626    29A     -0.381802    30A     -0.344119
      31A     -0.303764    32A     -0.259003    33A     -0.235234
      34A     -0.224720    35A     -0.213284

  @DF-RHF Final Energy:  -473.28211089914947

   => Energetics <=

    Nuclear Repulsion Energy =            433.2301154700129473
    One-Electron Energy =               -1518.5736567442713749
    Two-Electron Energy =                 612.0614303751088983
    Total Energy =                       -473.2821108991494157
  Basis Set: (AUG-CC-PVTZ AUX)
    Blend: AUG-CC-PVTZ-RI
    Molecular point group: c1

    Geometry (in Angstrom), charge = -1, multiplicity = 1:

       Center              X                  Y                   Z               Mass
    ------------   -----------------  -----------------  -----------------  -----------------
         O            1.662101535044    -1.437298393038    -0.007760949281    15.994914619570
         O           -2.367682464956     1.406503606962    -0.015321949281    15.994914619570
         O           -3.430396464956    -0.595050393038    -0.026722949281    15.994914619570
         N            0.095954035044     0.237073006962     0.015972050719    14.003074004430
         C            2.424632135044     0.859052506962     0.002144050719    12.000000000000
         C            1.352231535044    -0.212354393038     0.004569050719    12.000000000000
         C           -1.042171464956    -0.634613393038     0.018189050719    12.000000000000
         C            3.823204535044     0.245392606962    -0.011328949281    12.000000000000
         C           -2.400663464956     0.140502606962     0.032447050719    12.000000000000
         H            2.271510535044     1.508332606962    -0.862086949281     1.007825032230
         H            2.284427535044     1.499521606962     0.874981050719     1.007825032230
         H           -1.045027464956    -1.295349393038    -0.856927949281     1.007825032230
         H           -1.032868464956    -1.306124393038     0.885051050719     1.007825032230
         H           -0.176338464956     1.208219606962     0.024122050719     1.007825032230
         H            3.973102535044    -0.381446393038     0.868229050719     1.007825032230
         H            3.959796535044    -0.372555393038    -0.899392949281     1.007825032230
         H            4.573676535044     1.039364606962    -0.013396949281     1.007825032230

  Basis Set: AUG-CC-PVTZ
    Blend: AUG-CC-PVTZ
  Basis Set: (AUG-CC-PVTZ AUX)
    Blend: AUG-CC-PVTZ-JKFIT
	 Reference Energy          =    -473.2821108991494725 [Eh]
	 Singles Energy            =      -0.0000000000000000 [Eh]
	 Same-Spin Energy          =      -0.4759791011951953 [Eh]
	 Opposite-Spin Energy      =      -1.4652553525765390 [Eh]
	 Correlation Energy        =      -1.9412344537717343 [Eh]
	 Total Energy              =    -475.2233453529212284 [Eh]

	 ================> DF-SCS-MP2 Energies <==================
	-----------------------------------------------------------
	 SCS Same-Spin Scale       =       0.3333333333333333 [-]
	 SCS Opposite-Spin Scale   =       1.2000000000000000 [-]
	 SCS Same-Spin Energy      =      -0.1586597003983984 [Eh]
	 SCS Opposite-Spin Energy  =      -1.7583064230918468 [Eh]
	 SCS Correlation Energy    =      -1.9169661234902453 [Eh]
	 SCS Total Energy          =    -475.1990770226396990 [Eh]
	-----------------------------------------------------------

  Dipole Moment: [D]
     X:     9.8765      Y:     1.5519      Z:     0.1369     Total:     9.9986

*** Psi4 exiting successfully. Buy a developer a beer!
