                               Psi4 1.4a3.dev225

  ==> Input File <==

--------------------------------------------------------------------------
#psi4
#
memory 32 gb

molecule  {
-1 1
  O       -1.5186010     1.5599430    -0.1433510
  O        2.2638970    -1.4295650    -0.0456660
  O        3.5317420     0.4486470     0.1950180
  N        0.0040180    -0.1295860    -0.1151350
  C       -2.3384940    -0.6954940    -0.4149760
  C       -1.2508570     0.3439190    -0.2101810
  C        1.1754880     0.7048690     0.0403840
  C       -3.5055210    -0.4701880     0.5431350
  C        2.4637830    -0.1693558     0.0675965
  H       -2.6873130    -0.6028840    -1.4504550
  H       -1.9319890    -1.7056860    -0.3020050
  H        1.2516430     1.4279040    -0.7806770
  H        1.1211640     1.2868180     0.9683990
  H        0.2309340    -1.1197490    -0.1755670
  H       -3.1861080    -0.6022700     1.5809140
  H       -3.8905480     0.5449040     0.4307430
  H       -4.3152940    -1.1768540     0.3431720
units angstrom
no_reorient  #important for SAPT in psi4, default
symmetry c1  #important for SAPT in psi4, default
}

set PROPERTIES_ORIGIN ["COM"]
properties('MP2/aug-cc-pvtz', properties = ['dipole'])
--------------------------------------------------------------------------

    Molecular point group: c1
  Charge       = -1
  Multiplicity = 1
  Basis Set: AUG-CC-PVTZ
    Blend: AUG-CC-PVTZ
  Basis Set: (AUG-CC-PVTZ AUX)
    Blend: AUG-CC-PVTZ-JKFIT

    Orbital Energies [Eh]
    ---------------------

    Doubly Occupied:

       1A    -20.386213     2A    -20.318716     3A    -20.318521
       4A    -15.444056     5A    -11.221149     6A    -11.163743
       7A    -11.134664     8A    -11.127300     9A    -11.107818
      10A     -1.237464    11A     -1.193272    12A     -1.100466
      13A     -1.080176    14A     -0.948844    15A     -0.829515
      16A     -0.758904    17A     -0.651313    18A     -0.584169
      19A     -0.544843    20A     -0.526041    21A     -0.500854
      22A     -0.484693    23A     -0.474449    24A     -0.436724
      25A     -0.429302    26A     -0.420784    27A     -0.407010
      28A     -0.394095    29A     -0.380922    30A     -0.346508
      31A     -0.297983    32A     -0.255115    33A     -0.238541
      34A     -0.225896    35A     -0.217795

  @DF-RHF Final Energy:  -473.28827862794031

   => Energetics <=

    Nuclear Repulsion Energy =            435.1463095947503916
    One-Electron Energy =               -1522.4934619826865401
    Two-Electron Energy =                 614.0588737599958904
    Total Energy =                       -473.2882786279402580
  Basis Set: (AUG-CC-PVTZ AUX)
    Blend: AUG-CC-PVTZ-RI
    Molecular point group: c1

    Geometry (in Angstrom), charge = -1, multiplicity = 1:

       Center              X                  Y                   Z               Mass
    ------------   -----------------  -----------------  -----------------  -----------------
         O           -1.622310661031     1.544189134780    -0.138849486039    15.994914619570
         O            2.160187338969    -1.445318865220    -0.041164486039    15.994914619570
         O            3.428032338969     0.432893134780     0.199519513961    15.994914619570
         N           -0.099691661031    -0.145339865220    -0.110633486039    14.003074004430
         C           -2.442203661031    -0.711247865220    -0.410474486039    12.000000000000
         C           -1.354566661031     0.328165134780    -0.205679486039    12.000000000000
         C            1.071778338969     0.689115134780     0.044885513961    12.000000000000
         C           -3.609230661031    -0.485941865220     0.547636513961    12.000000000000
         C            2.360073338969    -0.185109665220     0.072098013961    12.000000000000
         H           -2.791022661031    -0.618637865220    -1.445953486039     1.007825032230
         H           -2.035698661031    -1.721439865220    -0.297503486039     1.007825032230
         H            1.147933338969     1.412150134780    -0.776175486039     1.007825032230
         H            1.017454338969     1.271064134780     0.972900513961     1.007825032230
         H            0.127224338969    -1.135502865220    -0.171065486039     1.007825032230
         H           -3.289817661031    -0.618023865220     1.585415513961     1.007825032230
         H           -3.994257661031     0.529150134780     0.435244513961     1.007825032230
         H           -4.419003661031    -1.192607865220     0.347673513961     1.007825032230

  Basis Set: AUG-CC-PVTZ
    Blend: AUG-CC-PVTZ
  Basis Set: (AUG-CC-PVTZ AUX)
    Blend: AUG-CC-PVTZ-JKFIT
	 Reference Energy          =    -473.2882786279403149 [Eh]
	 Singles Energy            =      -0.0000000000000000 [Eh]
	 Same-Spin Energy          =      -0.4756789355190996 [Eh]
	 Opposite-Spin Energy      =      -1.4644571411885534 [Eh]
	 Correlation Energy        =      -1.9401360767076530 [Eh]
	 Total Energy              =    -475.2284147046479461 [Eh]

	 ================> DF-SCS-MP2 Energies <==================
	-----------------------------------------------------------
	 SCS Same-Spin Scale       =       0.3333333333333333 [-]
	 SCS Opposite-Spin Scale   =       1.2000000000000000 [-]
	 SCS Same-Spin Energy      =      -0.1585596451730332 [Eh]
	 SCS Opposite-Spin Energy  =      -1.7573485694262641 [Eh]
	 SCS Correlation Energy    =      -1.9159082145992972 [Eh]
	 SCS Total Energy          =    -475.2041868425396274 [Eh]
	-----------------------------------------------------------

  Dipole Moment: [D]
     X:    -9.2000      Y:    -1.0177      Z:    -0.3897     Total:     9.2643

*** Psi4 exiting successfully. Buy a developer a beer!
