                               Psi4 1.3.2 release

  ==> Input File <==

--------------------------------------------------------------------------
#psi4
#
memory 32 gb

molecule  {
-1 1
  O        1.5553730    -1.4489990    -0.0078940
  O       -2.4744110     1.3948030    -0.0154550
  O       -3.5371250    -0.6067510    -0.0268560
  N       -0.0146490     0.2143920     0.0158120
  C        2.3272120     0.8379530     0.0018960
  C        1.2455030    -0.2240550     0.0044360
  C       -1.1489000    -0.6463140     0.0180560
  C        3.7164760     0.2336920    -0.0114620
  C       -2.5073920     0.1288020     0.0323140
  H        2.1647820     1.4966320    -0.8622200
  H        2.1776990     1.4878210     0.8748480
  H       -1.1517560    -1.3070500    -0.8570610
  H       -1.1395970    -1.3178250     0.8849180
  H       -0.2567044     1.1000598     0.0231859
  H        3.8663740    -0.3931470     0.8680960
  H        3.8530680    -0.3842560    -0.8995260
  H        4.4669480     1.0276640    -0.0135300
units angstrom
no_reorient  #important for SAPT in psi4, default
symmetry c1  #important for SAPT in psi4, default
}

set PROPERTIES_ORIGIN ["COM"]
properties('MP2/aug-cc-pvtz', properties = ['dipole'])
--------------------------------------------------------------------------

    Molecular point group: c1
  Charge       = -1
  Multiplicity = 1
  Basis Set: AUG-CC-PVTZ
    Blend: AUG-CC-PVTZ
  Basis Set: (AUG-CC-PVTZ AUX)
    Blend: AUG-CC-PVTZ-JKFIT

    Orbital Energies [Eh]
    ---------------------

    Doubly Occupied:

       1A    -20.393117     2A    -20.320886     3A    -20.310126
       4A    -15.443507     5A    -11.229340     6A    -11.164085
       7A    -11.138775     8A    -11.125033     9A    -11.108922
      10A     -1.238035    11A     -1.186241    12A     -1.114967
      13A     -1.081872    14A     -0.953876    15A     -0.837562
      16A     -0.762170    17A     -0.685575    18A     -0.593312
      19A     -0.545468    20A     -0.536606    21A     -0.508384
      22A     -0.485281    23A     -0.477140    24A     -0.429098
      25A     -0.425758    26A     -0.417964    27A     -0.415139
      28A     -0.399085    29A     -0.380984    30A     -0.343725
      31A     -0.304963    32A     -0.260421    33A     -0.233898
      34A     -0.224288    35A     -0.212214

  @DF-RHF Final Energy:  -473.27551369774949

   => Energetics <=

    Nuclear Repulsion Energy =            433.9707827990363285
    One-Electron Energy =               -1519.9169567112955974
    Two-Electron Energy =                 612.6706602145098941
    Total Energy =                       -473.2755136977494885
  Basis Set: (AUG-CC-PVTZ AUX)
    Blend: AUG-CC-PVTZ-RI
    Molecular point group: c1

    Geometry (in Angstrom), charge = -1, multiplicity = 1:

       Center              X                  Y                   Z               Mass
    ------------   -----------------  -----------------  -----------------  -----------------
         O            1.661455518067    -1.434501322829    -0.007741207189    15.994914619570
         O           -2.368328481933     1.409300677171    -0.015302207189    15.994914619570
         O           -3.431042481933    -0.592253322829    -0.026703207189    15.994914619570
         N            0.091433518067     0.228889677171     0.015964792811    14.003074004430
         C            2.433294518067     0.852450677171     0.002048792811    12.000000000000
         C            1.351585518067    -0.209557322829     0.004588792811    12.000000000000
         C           -1.042817481933    -0.631816322829     0.018208792811    12.000000000000
         C            3.822558518067     0.248189677171    -0.011309207189    12.000000000000
         C           -2.401309481933     0.143299677171     0.032466792811    12.000000000000
         H            2.270864518067     1.511129677171    -0.862067207189     1.007825032230
         H            2.283781518067     1.502318677171     0.875000792811     1.007825032230
         H           -1.045673481933    -1.292552322829    -0.856908207189     1.007825032230
         H           -1.033514481933    -1.303327322829     0.885070792811     1.007825032230
         H           -0.150621881933     1.114557477171     0.023338692811     1.007825032230
         H            3.972456518067    -0.378649322829     0.868248792811     1.007825032230
         H            3.959150518067    -0.369758322829    -0.899373207189     1.007825032230
         H            4.573030518067     1.042161677171    -0.013377207189     1.007825032230

  Basis Set: AUG-CC-PVTZ
    Blend: AUG-CC-PVTZ
  Basis Set: (AUG-CC-PVTZ AUX)
    Blend: AUG-CC-PVTZ-JKFIT
	 Reference Energy          =    -473.2755136977494885 [Eh]
	 Singles Energy            =      -0.0000000000000000 [Eh]
	 Same-Spin Energy          =      -0.4752080333859734 [Eh]
	 Opposite-Spin Energy      =      -1.4636581531931285 [Eh]
	 Correlation Energy        =      -1.9388661865791019 [Eh]
	 Total Energy              =    -475.2143798843285936 [Eh]

	 ================> DF-SCS-MP2 Energies <==================
	-----------------------------------------------------------
	 SCS Same-Spin Scale       =       0.3333333333333333 [-]
	 SCS Opposite-Spin Scale   =       1.2000000000000000 [-]
	 SCS Same-Spin Energy      =      -0.1584026777953245 [Eh]
	 SCS Opposite-Spin Energy  =      -1.7563897838317541 [Eh]
	 SCS Correlation Energy    =      -1.9147924616270786 [Eh]
	 SCS Total Energy          =    -475.1903061593765756 [Eh]
	-----------------------------------------------------------

  Dipole Moment: [D]
     X:    10.0563      Y:     1.4663      Z:     0.1361     Total:    10.1636

*** Psi4 exiting successfully. Buy a developer a beer!
