                               Psi4 1.3.2 release

  ==> Input File <==

--------------------------------------------------------------------------
#psi4
#
memory 32 gb

molecule  {
-1 1
  O        1.5553730    -1.4489990    -0.0078940
  O       -2.4744110     1.3948030    -0.0154550
  O       -3.5371250    -0.6067510    -0.0268560
  N       -0.0146490     0.2143920     0.0158120
  C        2.3272120     0.8379530     0.0018960
  C        1.2455030    -0.2240550     0.0044360
  C       -1.1489000    -0.6463140     0.0180560
  C        3.7164760     0.2336920    -0.0114620
  C       -2.5099944     0.0289070     0.0360833
  H        2.1647820     1.4966320    -0.8622200
  H        2.1776990     1.4878210     0.8748480
  H       -1.1517560    -1.3070500    -0.8570610
  H       -1.1395970    -1.3178250     0.8849180
  H       -0.2830670     1.1965190     0.0239890
  H        3.8663740    -0.3931470     0.8680960
  H        3.8530680    -0.3842560    -0.8995260
  H        4.4669480     1.0276640    -0.0135300
units angstrom
no_reorient  #important for SAPT in psi4, default
symmetry c1  #important for SAPT in psi4, default
}

set PROPERTIES_ORIGIN ["COM"]
properties('MP2/aug-cc-pvtz', properties = ['dipole'])
--------------------------------------------------------------------------

    Molecular point group: c1
  Charge       = -1
  Multiplicity = 1
  Basis Set: AUG-CC-PVTZ
    Blend: AUG-CC-PVTZ
  Basis Set: (AUG-CC-PVTZ AUX)
    Blend: AUG-CC-PVTZ-JKFIT

    Orbital Energies [Eh]
    ---------------------

    Doubly Occupied:

       1A    -20.392089     2A    -20.329913     3A    -20.300542
       4A    -15.452513     5A    -11.228586     6A    -11.165064
       7A    -11.137666     8A    -11.124182     9A    -11.114123
      10A     -1.236106    11A     -1.200109    12A     -1.106068
      13A     -1.047018    14A     -0.952802    15A     -0.844093
      16A     -0.764086    17A     -0.660838    18A     -0.594949
      19A     -0.550620    20A     -0.535825    21A     -0.505891
      22A     -0.489117    23A     -0.474793    24A     -0.433090
      25A     -0.425495    26A     -0.419130    27A     -0.414000
      28A     -0.388284    29A     -0.381440    30A     -0.342695
      31A     -0.304154    32A     -0.257913    33A     -0.230444
      34A     -0.219399    35A     -0.205117

  @DF-RHF Final Energy:  -473.26670988707184

   => Energetics <=

    Nuclear Repulsion Energy =            433.2884686609127698
    One-Electron Energy =               -1518.6540465283392223
    Two-Electron Energy =                 612.0988679803546120
    Total Energy =                       -473.2667098870718974
  Basis Set: (AUG-CC-PVTZ AUX)
    Blend: AUG-CC-PVTZ-RI
    Molecular point group: c1

    Geometry (in Angstrom), charge = -1, multiplicity = 1:

       Center              X                  Y                   Z               Mass
    ------------   -----------------  -----------------  -----------------  -----------------
         O            1.661899943306    -1.426031330809    -0.008095231305    15.994914619570
         O           -2.367884056694     1.417770669191    -0.015656231305    15.994914619570
         O           -3.430598056694    -0.583783330809    -0.027057231305    15.994914619570
         N            0.091877943306     0.237359669191     0.015610768695    14.003074004430
         C            2.433738943306     0.860920669191     0.001694768695    12.000000000000
         C            1.352029943306    -0.201087330809     0.004234768695    12.000000000000
         C           -1.042373056694    -0.623346330809     0.017854768695    12.000000000000
         C            3.823002943306     0.256659669191    -0.011663231305    12.000000000000
         C           -2.403467456694     0.051874669191     0.035882068695    12.000000000000
         H            2.271308943306     1.519599669191    -0.862421231305     1.007825032230
         H            2.284225943306     1.510788669191     0.874646768695     1.007825032230
         H           -1.045229056694    -1.284082330809    -0.857262231305     1.007825032230
         H           -1.033070056694    -1.294857330809     0.884716768695     1.007825032230
         H           -0.176540056694     1.219486669191     0.023787768695     1.007825032230
         H            3.972900943306    -0.370179330809     0.867894768695     1.007825032230
         H            3.959594943306    -0.361288330809    -0.899727231305     1.007825032230
         H            4.573474943306     1.050631669191    -0.013731231305     1.007825032230

  Basis Set: AUG-CC-PVTZ
    Blend: AUG-CC-PVTZ
  Basis Set: (AUG-CC-PVTZ AUX)
    Blend: AUG-CC-PVTZ-JKFIT
	 Reference Energy          =    -473.2667098870718405 [Eh]
	 Singles Energy            =      -0.0000000000000000 [Eh]
	 Same-Spin Energy          =      -0.4769237081035504 [Eh]
	 Opposite-Spin Energy      =      -1.4672578544468176 [Eh]
	 Correlation Energy        =      -1.9441815625503680 [Eh]
	 Total Energy              =    -475.2108914496221814 [Eh]

	 ================> DF-SCS-MP2 Energies <==================
	-----------------------------------------------------------
	 SCS Same-Spin Scale       =       0.3333333333333333 [-]
	 SCS Opposite-Spin Scale   =       1.2000000000000000 [-]
	 SCS Same-Spin Energy      =      -0.1589745693678501 [Eh]
	 SCS Opposite-Spin Energy  =      -1.7607094253361810 [Eh]
	 SCS Correlation Energy    =      -1.9196839947040312 [Eh]
	 SCS Total Energy          =    -475.1863938817758708 [Eh]
	-----------------------------------------------------------

  Dipole Moment: [D]
     X:     9.6902      Y:     0.6487      Z:     0.1350     Total:     9.7128

*** Psi4 exiting successfully. Buy a developer a beer!
