                               Psi4 1.3.2 release

  ==> Input File <==

--------------------------------------------------------------------------
#psi4
#
memory 32 gb

molecule  {
-1 1
  O        1.5553730    -1.4489990    -0.0078940
  O       -2.4744110     1.3948030    -0.0154550
  O       -3.5371250    -0.6067510    -0.0268560
  N       -0.0146490     0.2143920     0.0158120
  C        2.3272120     0.8379530     0.0018960
  C        1.2455030    -0.2240550     0.0044360
  C       -1.1489000    -0.6463140     0.0180560
  C        3.7164760     0.2336920    -0.0114620
  C       -2.5073920     0.1288020     0.0323140
  H        2.1647820     1.4966320    -0.8622200
  H        2.1776990     1.4878210     0.8748480
  H       -1.1517560    -1.3070500    -0.8570610
  H       -1.1387486    -1.3790625     0.9639702
  H       -0.2830670     1.1965190     0.0239890
  H        3.8663740    -0.3931470     0.8680960
  H        3.8530680    -0.3842560    -0.8995260
  H        4.4669480     1.0276640    -0.0135300
units angstrom
no_reorient  #important for SAPT in psi4, default
symmetry c1  #important for SAPT in psi4, default
}

set PROPERTIES_ORIGIN ["COM"]
properties('MP2/aug-cc-pvtz', properties = ['dipole'])
--------------------------------------------------------------------------

    Molecular point group: c1
  Charge       = -1
  Multiplicity = 1
  Basis Set: AUG-CC-PVTZ
    Blend: AUG-CC-PVTZ
  Basis Set: (AUG-CC-PVTZ AUX)
    Blend: AUG-CC-PVTZ-JKFIT

    Orbital Energies [Eh]
    ---------------------

    Doubly Occupied:

       1A    -20.392001     2A    -20.323182     3A    -20.310806
       4A    -15.452686     5A    -11.228041     6A    -11.165656
       7A    -11.137964     8A    -11.124357     9A    -11.120744
      10A     -1.235660    11A     -1.187359    12A     -1.103048
      13A     -1.082681    14A     -0.952752    15A     -0.832984
      16A     -0.756276    17A     -0.658994    18A     -0.590546
      19A     -0.545463    20A     -0.535269    21A     -0.504967
      22A     -0.477718    23A     -0.474721    24A     -0.425919
      25A     -0.424366    26A     -0.414932    27A     -0.414112
      28A     -0.394778    29A     -0.379944    30A     -0.340913
      31A     -0.303666    32A     -0.256175    33A     -0.235598
      34A     -0.225318    35A     -0.213245

  @DF-RHF Final Energy:  -473.27513347874151

   => Energetics <=

    Nuclear Repulsion Energy =            432.9047963548818529
    One-Electron Energy =               -1517.9141760779232300
    Two-Electron Energy =                 611.7342462442998112
    Total Energy =                       -473.2751334787415090
  Basis Set: (AUG-CC-PVTZ AUX)
    Blend: AUG-CC-PVTZ-RI
    Molecular point group: c1

    Geometry (in Angstrom), charge = -1, multiplicity = 1:

       Center              X                  Y                   Z               Mass
    ------------   -----------------  -----------------  -----------------  -----------------
         O            1.661653240226    -1.434774273208    -0.008360045417    15.994914619570
         O           -2.368130759774     1.409027726792    -0.015921045417    15.994914619570
         O           -3.430844759774    -0.592526273208    -0.027322045417    15.994914619570
         N            0.091631240226     0.228616726792     0.015345954583    14.003074004430
         C            2.433492240226     0.852177726792     0.001429954583    12.000000000000
         C            1.351783240226    -0.209830273208     0.003969954583    12.000000000000
         C           -1.042619759774    -0.632089273208     0.017589954583    12.000000000000
         C            3.822756240226     0.247916726792    -0.011928045417    12.000000000000
         C           -2.401111759774     0.143026726792     0.031847954583    12.000000000000
         H            2.271062240226     1.510856726792    -0.862686045417     1.007825032230
         H            2.283979240226     1.502045726792     0.874381954583     1.007825032230
         H           -1.045475759774    -1.292825273208    -0.857527045417     1.007825032230
         H           -1.032468359774    -1.364837773208     0.963504154583     1.007825032230
         H           -0.176786759774     1.210743726792     0.023522954583     1.007825032230
         H            3.972654240226    -0.378922273208     0.867629954583     1.007825032230
         H            3.959348240226    -0.370031273208    -0.899992045417     1.007825032230
         H            4.573228240226     1.041888726792    -0.013996045417     1.007825032230

  Basis Set: AUG-CC-PVTZ
    Blend: AUG-CC-PVTZ
  Basis Set: (AUG-CC-PVTZ AUX)
    Blend: AUG-CC-PVTZ-JKFIT
	 Reference Energy          =    -473.2751334787415090 [Eh]
	 Singles Energy            =      -0.0000000000000000 [Eh]
	 Same-Spin Energy          =      -0.4762968550402070 [Eh]
	 Opposite-Spin Energy      =      -1.4661911690557119 [Eh]
	 Correlation Energy        =      -1.9424880240959190 [Eh]
	 Total Energy              =    -475.2176215028374031 [Eh]

	 ================> DF-SCS-MP2 Energies <==================
	-----------------------------------------------------------
	 SCS Same-Spin Scale       =       0.3333333333333333 [-]
	 SCS Opposite-Spin Scale   =       1.2000000000000000 [-]
	 SCS Same-Spin Energy      =      -0.1587656183467357 [Eh]
	 SCS Opposite-Spin Energy  =      -1.7594294028668542 [Eh]
	 SCS Correlation Energy    =      -1.9181950212135899 [Eh]
	 SCS Total Energy          =    -475.1933284999551006 [Eh]
	-----------------------------------------------------------

  Dipole Moment: [D]
     X:     9.9198      Y:     1.6091      Z:     0.0886     Total:    10.0499

*** Psi4 exiting successfully. Buy a developer a beer!
