                               Psi4 1.3.2 release

  ==> Input File <==

--------------------------------------------------------------------------
#psi4
#
memory 32 gb

molecule  {
-1 1
  O        1.5339469    -1.4542214    -0.0078088
  O       -2.4744110     1.3948030    -0.0154550
  O       -3.5371250    -0.6067510    -0.0268560
  N       -0.0221103     0.1923325     0.0156690
  C        2.3272120     0.8379530     0.0018960
  C        1.2455030    -0.2240550     0.0044360
  C       -1.1489000    -0.6463140     0.0180560
  C        3.7164760     0.2336920    -0.0114620
  C       -2.5073920     0.1288020     0.0323140
  H        2.1647820     1.4966320    -0.8622200
  H        2.1776990     1.4878210     0.8748480
  H       -1.1517560    -1.3070500    -0.8570610
  H       -1.1395970    -1.3178250     0.8849180
  H       -0.2830670     1.1965190     0.0239890
  H        3.8663740    -0.3931470     0.8680960
  H        3.8530680    -0.3842560    -0.8995260
  H        4.4669480     1.0276640    -0.0135300
units angstrom
no_reorient  #important for SAPT in psi4, default
symmetry c1  #important for SAPT in psi4, default
}

set PROPERTIES_ORIGIN ["COM"]
properties('MP2/aug-cc-pvtz', properties = ['dipole'])
--------------------------------------------------------------------------

    Molecular point group: c1
  Charge       = -1
  Multiplicity = 1
  Basis Set: AUG-CC-PVTZ
    Blend: AUG-CC-PVTZ
  Basis Set: (AUG-CC-PVTZ AUX)
    Blend: AUG-CC-PVTZ-JKFIT

    Orbital Energies [Eh]
    ---------------------

    Doubly Occupied:

       1A    -20.389908     2A    -20.322165     3A    -20.310280
       4A    -15.450743     5A    -11.226929     6A    -11.164254
       7A    -11.139811     8A    -11.125557     9A    -11.106537
      10A     -1.235593    11A     -1.186537    12A     -1.101579
      13A     -1.081902    14A     -0.954543    15A     -0.837951
      16A     -0.759095    17A     -0.653917    18A     -0.591360
      19A     -0.546905    20A     -0.536427    21A     -0.506585
      22A     -0.485854    23A     -0.474280    24A     -0.427578
      25A     -0.424212    26A     -0.417546    27A     -0.413731
      28A     -0.395611    29A     -0.380248    30A     -0.343510
      31A     -0.303259    32A     -0.254588    33A     -0.234786
      34A     -0.224447    35A     -0.212581

  @DF-RHF Final Energy:  -473.27995418773827

   => Energetics <=

    Nuclear Repulsion Energy =            433.6524881644170364
    One-Electron Energy =               -1519.4232650188246225
    Two-Electron Energy =                 612.4908226666693736
    Total Energy =                       -473.2799541877382126
  Basis Set: (AUG-CC-PVTZ AUX)
    Blend: AUG-CC-PVTZ-RI
    Molecular point group: c1

    Geometry (in Angstrom), charge = -1, multiplicity = 1:

       Center              X                  Y                   Z               Mass
    ------------   -----------------  -----------------  -----------------  -----------------
         O            1.643672302659    -1.437453690475    -0.007657312156    15.994914619570
         O           -2.364685597341     1.411570709525    -0.015303512156    15.994914619570
         O           -3.427399597341    -0.589983290475    -0.026704512156    15.994914619570
         N            0.087615102659     0.209100209525     0.015820487844    14.003074004430
         C            2.436937402659     0.854720709525     0.002047487844    12.000000000000
         C            1.355228402659    -0.207287290475     0.004587487844    12.000000000000
         C           -1.039174597341    -0.629546290475     0.018207487844    12.000000000000
         C            3.826201402659     0.250459709525    -0.011310512156    12.000000000000
         C           -2.397666597341     0.145569709525     0.032465487844    12.000000000000
         H            2.274507402659     1.513399709525    -0.862068512156     1.007825032230
         H            2.287424402659     1.504588709525     0.874999487844     1.007825032230
         H           -1.042030597341    -1.290282290475    -0.856909512156     1.007825032230
         H           -1.029871597341    -1.301057290475     0.885069487844     1.007825032230
         H           -0.173341597341     1.213286709525     0.024140487844     1.007825032230
         H            3.976099402659    -0.376379290475     0.868247487844     1.007825032230
         H            3.962793402659    -0.367488290475    -0.899374512156     1.007825032230
         H            4.576673402659     1.044431709525    -0.013378512156     1.007825032230

  Basis Set: AUG-CC-PVTZ
    Blend: AUG-CC-PVTZ
  Basis Set: (AUG-CC-PVTZ AUX)
    Blend: AUG-CC-PVTZ-JKFIT
	 Reference Energy          =    -473.2799541877382694 [Eh]
	 Singles Energy            =      -0.0000000000000000 [Eh]
	 Same-Spin Energy          =      -0.4764546911612885 [Eh]
	 Opposite-Spin Energy      =      -1.4657143422039243 [Eh]
	 Correlation Energy        =      -1.9421690333652126 [Eh]
	 Total Energy              =    -475.2221232211034589 [Eh]

	 ================> DF-SCS-MP2 Energies <==================
	-----------------------------------------------------------
	 SCS Same-Spin Scale       =       0.3333333333333333 [-]
	 SCS Opposite-Spin Scale   =       1.2000000000000000 [-]
	 SCS Same-Spin Energy      =      -0.1588182303870961 [Eh]
	 SCS Opposite-Spin Energy  =      -1.7588572106447091 [Eh]
	 SCS Correlation Energy    =      -1.9176754410318053 [Eh]
	 SCS Total Energy          =    -475.1976296287700734 [Eh]
	-----------------------------------------------------------

  Dipole Moment: [D]
     X:     9.9714      Y:     1.6169      Z:     0.1364     Total:    10.1026

*** Psi4 exiting successfully. Buy a developer a beer!
