                               Psi4 1.3.2 release

  ==> Input File <==

--------------------------------------------------------------------------
#psi4
#
memory 32 gb

molecule  {
-1 1
  O        1.5553730    -1.4489990    -0.0078940
  O       -2.4744110     1.3948030    -0.0154550
  O       -3.5371250    -0.6067510    -0.0268560
  N       -0.0146490     0.2143920     0.0158120
  C        2.3272120     0.8379530     0.0018960
  C        1.2455030    -0.2240550     0.0044360
  C       -1.1489000    -0.6463140     0.0180560
  C        3.7164760     0.2336920    -0.0114620
  C       -2.5144974     0.1154500     0.0550399
  H        2.1647820     1.4966320    -0.8622200
  H        2.1776990     1.4878210     0.8748480
  H       -1.1517560    -1.3070500    -0.8570610
  H       -1.1569919    -1.3115036     0.8897902
  H       -0.2830670     1.1965190     0.0239890
  H        3.8663740    -0.3931470     0.8680960
  H        3.8530680    -0.3842560    -0.8995260
  H        4.4669480     1.0276640    -0.0135300
units angstrom
no_reorient  #important for SAPT in psi4, default
symmetry c1  #important for SAPT in psi4, default
}

set PROPERTIES_ORIGIN ["COM"]
properties('MP2/aug-cc-pvtz', properties = ['dipole'])
--------------------------------------------------------------------------

    Molecular point group: c1
  Charge       = -1
  Multiplicity = 1
  Basis Set: AUG-CC-PVTZ
    Blend: AUG-CC-PVTZ
  Basis Set: (AUG-CC-PVTZ AUX)
    Blend: AUG-CC-PVTZ-JKFIT

    Orbital Energies [Eh]
    ---------------------

    Doubly Occupied:

       1A    -20.391176     2A    -20.318959     3A    -20.314499
       4A    -15.451151     5A    -11.227400     6A    -11.164889
       7A    -11.137366     8A    -11.123939     9A    -11.109094
      10A     -1.234964    11A     -1.186334    12A     -1.103109
      13A     -1.080858    14A     -0.952329    15A     -0.836272
      16A     -0.758750    17A     -0.659748    18A     -0.589777
      19A     -0.545098    20A     -0.535115    21A     -0.506328
      22A     -0.484424    23A     -0.474409    24A     -0.426128
      25A     -0.424716    26A     -0.417183    27A     -0.413951
      28A     -0.395547    29A     -0.380097    30A     -0.343513
      31A     -0.303161    32A     -0.257657    33A     -0.233673
      34A     -0.225846    35A     -0.213478

  @DF-RHF Final Energy:  -473.28019990354113

   => Energetics <=

    Nuclear Repulsion Energy =            433.2934410881888994
    One-Electron Energy =               -1518.7054083706145775
    Two-Electron Energy =                 612.1317673788844331
    Total Energy =                       -473.2801999035411882
  Basis Set: (AUG-CC-PVTZ AUX)
    Blend: AUG-CC-PVTZ-RI
    Molecular point group: c1

    Geometry (in Angstrom), charge = -1, multiplicity = 1:

       Center              X                  Y                   Z               Mass
    ------------   -----------------  -----------------  -----------------  -----------------
         O            1.662450245387    -1.434065806055    -0.009882150013    15.994914619570
         O           -2.367333754613     1.409736193945    -0.017443150013    15.994914619570
         O           -3.430047754613    -0.591817806055    -0.028844150013    15.994914619570
         N            0.092428245387     0.229325193945     0.013823849987    14.003074004430
         C            2.434289245387     0.852886193945    -0.000092150013    12.000000000000
         C            1.352580245387    -0.209121806055     0.002447849987    12.000000000000
         C           -1.041822754613    -0.631380806055     0.016067849987    12.000000000000
         C            3.823553245387     0.248625193945    -0.013450150013    12.000000000000
         C           -2.407420154613     0.130383193945     0.053051749987    12.000000000000
         H            2.271859245387     1.511565193945    -0.864208150013     1.007825032230
         H            2.284776245387     1.502754193945     0.872859849987     1.007825032230
         H           -1.044678754613    -1.292116806055    -0.859049150013     1.007825032230
         H           -1.049914654613    -1.296570406055     0.887802049987     1.007825032230
         H           -0.175989754613     1.211452193945     0.022000849987     1.007825032230
         H            3.973451245387    -0.378213806055     0.866107849987     1.007825032230
         H            3.960145245387    -0.369322806055    -0.901514150013     1.007825032230
         H            4.574025245387     1.042597193945    -0.015518150013     1.007825032230

  Basis Set: AUG-CC-PVTZ
    Blend: AUG-CC-PVTZ
  Basis Set: (AUG-CC-PVTZ AUX)
    Blend: AUG-CC-PVTZ-JKFIT
	 Reference Energy          =    -473.2801999035411313 [Eh]
	 Singles Energy            =      -0.0000000000000000 [Eh]
	 Same-Spin Energy          =      -0.4762568277220518 [Eh]
	 Opposite-Spin Energy      =      -1.4656225378486338 [Eh]
	 Correlation Energy        =      -1.9418793655706856 [Eh]
	 Total Energy              =    -475.2220792691118163 [Eh]

	 ================> DF-SCS-MP2 Energies <==================
	-----------------------------------------------------------
	 SCS Same-Spin Scale       =       0.3333333333333333 [-]
	 SCS Opposite-Spin Scale   =       1.2000000000000000 [-]
	 SCS Same-Spin Energy      =      -0.1587522759073506 [Eh]
	 SCS Opposite-Spin Energy  =      -1.7587470454183605 [Eh]
	 SCS Correlation Energy    =      -1.9174993213257110 [Eh]
	 SCS Total Energy          =    -475.1976992248668239 [Eh]
	-----------------------------------------------------------

  Dipole Moment: [D]
     X:     9.8111      Y:     1.4294      Z:     0.1502     Total:     9.9159

*** Psi4 exiting successfully. Buy a developer a beer!
