                               Psi4 1.3.2 release

  ==> Input File <==

--------------------------------------------------------------------------
#psi4
#
memory 32 gb

molecule  {
-1 1
  O        1.5553730    -1.4489990    -0.0078940
  O       -2.4965155     1.3952114    -0.0147726
  O       -3.5371250    -0.6067510    -0.0268560
  N       -0.0146490     0.2143920     0.0158120
  C        2.3272120     0.8379530     0.0018960
  C        1.2455030    -0.2240550     0.0044360
  C       -1.1626094    -0.6698848     0.0193586
  C        3.7164760     0.2336920    -0.0114620
  C       -2.5073920     0.1288020     0.0323140
  H        2.1647820     1.4966320    -0.8622200
  H        2.1776990     1.4878210     0.8748480
  H       -1.1517560    -1.3070500    -0.8570610
  H       -1.1395970    -1.3178250     0.8849180
  H       -0.2830670     1.1965190     0.0239890
  H        3.8663740    -0.3931470     0.8680960
  H        3.8530680    -0.3842560    -0.8995260
  H        4.4669480     1.0276640    -0.0135300
units angstrom
no_reorient  #important for SAPT in psi4, default
symmetry c1  #important for SAPT in psi4, default
}

set PROPERTIES_ORIGIN ["COM"]
properties('MP2/aug-cc-pvtz', properties = ['dipole'])
--------------------------------------------------------------------------

    Molecular point group: c1
  Charge       = -1
  Multiplicity = 1
  Basis Set: AUG-CC-PVTZ
    Blend: AUG-CC-PVTZ
  Basis Set: (AUG-CC-PVTZ AUX)
    Blend: AUG-CC-PVTZ-JKFIT

    Orbital Energies [Eh]
    ---------------------

    Doubly Occupied:

       1A    -20.390815     2A    -20.322446     3A    -20.309314
       4A    -15.451068     5A    -11.226943     6A    -11.164283
       7A    -11.137178     8A    -11.123862     9A    -11.110270
      10A     -1.234148    11A     -1.186861    12A     -1.097730
      13A     -1.080783    14A     -0.951871    15A     -0.836394
      16A     -0.759728    17A     -0.658807    18A     -0.588248
      19A     -0.542173    20A     -0.534948    21A     -0.507063
      22A     -0.486389    23A     -0.473573    24A     -0.426851
      25A     -0.424506    26A     -0.418393    27A     -0.413213
      28A     -0.396300    29A     -0.380251    30A     -0.345750
      31A     -0.302643    32A     -0.259936    33A     -0.235046
      34A     -0.224257    35A     -0.212139

  @DF-RHF Final Energy:  -473.28185272555663

   => Energetics <=

    Nuclear Repulsion Energy =            432.8371421194174786
    One-Electron Energy =               -1517.8096251153292542
    Two-Electron Energy =                 611.6906302703552001
    Total Energy =                       -473.2818527255566323
  Basis Set: (AUG-CC-PVTZ AUX)
    Blend: AUG-CC-PVTZ-RI
    Molecular point group: c1

    Geometry (in Angstrom), charge = -1, multiplicity = 1:

       Center              X                  Y                   Z               Mass
    ------------   -----------------  -----------------  -----------------  -----------------
         O            1.665643442153    -1.433124139402    -0.007951552642    15.994914619570
         O           -2.386245057847     1.411086260598    -0.014830152642    15.994914619570
         O           -3.426854557847    -0.590876139402    -0.026913552642    15.994914619570
         N            0.095621442153     0.230266860598     0.015754447358    14.003074004430
         C            2.437482442153     0.853827860598     0.001838447358    12.000000000000
         C            1.355773442153    -0.208180139402     0.004378447358    12.000000000000
         C           -1.052338957847    -0.654009939402     0.019301047358    12.000000000000
         C            3.826746442153     0.249566860598    -0.011519552642    12.000000000000
         C           -2.397121557847     0.144676860598     0.032256447358    12.000000000000
         H            2.275052442153     1.512506860598    -0.862277552642     1.007825032230
         H            2.287969442153     1.503695860598     0.874790447358     1.007825032230
         H           -1.041485557847    -1.291175139402    -0.857118552642     1.007825032230
         H           -1.029326557847    -1.301950139402     0.884860447358     1.007825032230
         H           -0.172796557847     1.212393860598     0.023931447358     1.007825032230
         H            3.976644442153    -0.377272139402     0.868038447358     1.007825032230
         H            3.963338442153    -0.368381139402    -0.899583552642     1.007825032230
         H            4.577218442153     1.043538860598    -0.013587552642     1.007825032230

  Basis Set: AUG-CC-PVTZ
    Blend: AUG-CC-PVTZ
  Basis Set: (AUG-CC-PVTZ AUX)
    Blend: AUG-CC-PVTZ-JKFIT
	 Reference Energy          =    -473.2818527255566323 [Eh]
	 Singles Energy            =      -0.0000000000000000 [Eh]
	 Same-Spin Energy          =      -0.4758882059090958 [Eh]
	 Opposite-Spin Energy      =      -1.4652700126863167 [Eh]
	 Correlation Energy        =      -1.9411582185954126 [Eh]
	 Total Energy              =    -475.2230109441520653 [Eh]

	 ================> DF-SCS-MP2 Energies <==================
	-----------------------------------------------------------
	 SCS Same-Spin Scale       =       0.3333333333333333 [-]
	 SCS Opposite-Spin Scale   =       1.2000000000000000 [-]
	 SCS Same-Spin Energy      =      -0.1586294019696986 [Eh]
	 SCS Opposite-Spin Energy  =      -1.7583240152235800 [Eh]
	 SCS Correlation Energy    =      -1.9169534171932785 [Eh]
	 SCS Total Energy          =    -475.1988061427499019 [Eh]
	-----------------------------------------------------------

  Dipole Moment: [D]
     X:     9.9007      Y:     1.5103      Z:     0.1391     Total:    10.0162

*** Psi4 exiting successfully. Buy a developer a beer!
