                               Psi4 1.4a3.dev225

  ==> Input File <==

--------------------------------------------------------------------------
#psi4
#
memory 32 gb

molecule  {
-1 1
  O       -1.5186010     1.5599430    -0.1433510
  O        2.2638970    -1.4295650    -0.0456660
  O        3.5317420     0.4486470     0.1950180
  N        0.0040180    -0.1295860    -0.1151350
  C       -2.3384940    -0.6954940    -0.4149760
  C       -1.2508570     0.3439190    -0.2101810
  C        1.1916834     0.7164052     0.0425340
  C       -3.5055210    -0.4701880     0.5431350
  C        2.4465640    -0.1793200     0.0655420
  H       -2.6873130    -0.6028840    -1.4504550
  H       -1.9319890    -1.7056860    -0.3020050
  H        1.2516430     1.4279040    -0.7806770
  H        1.1211640     1.2868180     0.9683990
  H        0.2309340    -1.1197490    -0.1755670
  H       -3.1861080    -0.6022700     1.5809140
  H       -3.8905480     0.5449040     0.4307430
  H       -4.3152940    -1.1768540     0.3431720
units angstrom
no_reorient  #important for SAPT in psi4, default
symmetry c1  #important for SAPT in psi4, default
}

set PROPERTIES_ORIGIN ["COM"]
properties('MP2/aug-cc-pvtz', properties = ['dipole'])
--------------------------------------------------------------------------

    Molecular point group: c1
  Charge       = -1
  Multiplicity = 1
  Basis Set: AUG-CC-PVTZ
    Blend: AUG-CC-PVTZ
  Basis Set: (AUG-CC-PVTZ AUX)
    Blend: AUG-CC-PVTZ-JKFIT

    Orbital Energies [Eh]
    ---------------------

    Doubly Occupied:

       1A    -20.386093     2A    -20.323057     3A    -20.313741
       4A    -15.444104     5A    -11.221072     6A    -11.163829
       7A    -11.134716     8A    -11.127395     9A    -11.109663
      10A     -1.237088    11A     -1.190809    12A     -1.095628
      13A     -1.079577    14A     -0.948687    15A     -0.831395
      16A     -0.760480    17A     -0.650925    18A     -0.584321
      19A     -0.544062    20A     -0.527097    21A     -0.500665
      22A     -0.485615    23A     -0.474422    24A     -0.437554
      25A     -0.428885    26A     -0.419693    27A     -0.407432
      28A     -0.393226    29A     -0.380646    30A     -0.346380
      31A     -0.297651    32A     -0.256729    33A     -0.239568
      34A     -0.226477    35A     -0.216230

  @DF-RHF Final Energy:  -473.28785254969466

   => Energetics <=

    Nuclear Repulsion Energy =            435.0081467848463603
    One-Electron Energy =               -1522.2221776002088518
    Two-Electron Energy =                 613.9261782656678861
    Total Energy =                       -473.2878525496946622
  Basis Set: (AUG-CC-PVTZ AUX)
    Blend: AUG-CC-PVTZ-RI
    Molecular point group: c1

    Geometry (in Angstrom), charge = -1, multiplicity = 1:

       Center              X                  Y                   Z               Mass
    ------------   -----------------  -----------------  -----------------  -----------------
         O           -1.622216211508     1.544044083343    -0.138858298006    15.994914619570
         O            2.160281788492    -1.445463916657    -0.041173298006    15.994914619570
         O            3.428126788492     0.432748083343     0.199510701994    15.994914619570
         N           -0.099597211508    -0.145484916657    -0.110642298006    14.003074004430
         C           -2.442109211508    -0.711392916657    -0.410483298006    12.000000000000
         C           -1.354472211508     0.328020083343    -0.205688298006    12.000000000000
         C            1.088068188492     0.700506283343     0.047026701994    12.000000000000
         C           -3.609136211508    -0.486086916657     0.547627701994    12.000000000000
         C            2.342948788492    -0.195218916657     0.070034701994    12.000000000000
         H           -2.790928211508    -0.618782916657    -1.445962298006     1.007825032230
         H           -2.035604211508    -1.721584916657    -0.297512298006     1.007825032230
         H            1.148027788492     1.412005083343    -0.776184298006     1.007825032230
         H            1.017548788492     1.270919083343     0.972891701994     1.007825032230
         H            0.127318788492    -1.135647916657    -0.171074298006     1.007825032230
         H           -3.289723211508    -0.618168916657     1.585406701994     1.007825032230
         H           -3.994163211508     0.529005083343     0.435235701994     1.007825032230
         H           -4.418909211508    -1.192752916657     0.347664701994     1.007825032230

  Basis Set: AUG-CC-PVTZ
    Blend: AUG-CC-PVTZ
  Basis Set: (AUG-CC-PVTZ AUX)
    Blend: AUG-CC-PVTZ-JKFIT
	 Reference Energy          =    -473.2878525496946622 [Eh]
	 Singles Energy            =      -0.0000000000000000 [Eh]
	 Same-Spin Energy          =      -0.4757053769391785 [Eh]
	 Opposite-Spin Energy      =      -1.4648006070137622 [Eh]
	 Correlation Energy        =      -1.9405059839529408 [Eh]
	 Total Energy              =    -475.2283585336476222 [Eh]

	 ================> DF-SCS-MP2 Energies <==================
	-----------------------------------------------------------
	 SCS Same-Spin Scale       =       0.3333333333333333 [-]
	 SCS Opposite-Spin Scale   =       1.2000000000000000 [-]
	 SCS Same-Spin Energy      =      -0.1585684589797262 [Eh]
	 SCS Opposite-Spin Energy  =      -1.7577607284165147 [Eh]
	 SCS Correlation Energy    =      -1.9163291873962407 [Eh]
	 SCS Total Energy          =    -475.2041817370908916 [Eh]
	-----------------------------------------------------------

  Dipole Moment: [D]
     X:    -9.3222      Y:    -1.1100      Z:    -0.4057     Total:     9.3968

*** Psi4 exiting successfully. Buy a developer a beer!
