                               Psi4 1.3.2 release

  ==> Input File <==

--------------------------------------------------------------------------
#psi4
#
memory 32 gb

molecule  {
-1 1
  O        1.5553730    -1.4489990    -0.0078940
  O       -2.4744110     1.3948030    -0.0154550
  O       -3.5371250    -0.6067510    -0.0268560
  N       -0.0146490     0.2143920     0.0158120
  C        2.3272120     0.8379530     0.0018960
  C        1.0566167    -0.1583354     0.0061412
  C       -1.1489000    -0.6463140     0.0180560
  C        3.7164760     0.2336920    -0.0114620
  C       -2.5073920     0.1288020     0.0323140
  H        2.1647820     1.4966320    -0.8622200
  H        2.1776990     1.4878210     0.8748480
  H       -1.1517560    -1.3070500    -0.8570610
  H       -1.1395970    -1.3178250     0.8849180
  H       -0.2830670     1.1965190     0.0239890
  H        3.8663740    -0.3931470     0.8680960
  H        3.8530680    -0.3842560    -0.8995260
  H        4.4669480     1.0276640    -0.0135300
units angstrom
no_reorient  #important for SAPT in psi4, default
symmetry c1  #important for SAPT in psi4, default
}

set PROPERTIES_ORIGIN ["COM"]
properties('MP2/aug-cc-pvtz', properties = ['dipole'])
--------------------------------------------------------------------------

    Molecular point group: c1
  Charge       = -1
  Multiplicity = 1
  Basis Set: AUG-CC-PVTZ
    Blend: AUG-CC-PVTZ
  Basis Set: (AUG-CC-PVTZ AUX)
    Blend: AUG-CC-PVTZ-JKFIT

    Orbital Energies [Eh]
    ---------------------

    Doubly Occupied:

       1A    -20.353036     2A    -20.337431     3A    -20.323945
       4A    -15.482544     5A    -11.206829     6A    -11.179357
       7A    -11.134958     8A    -11.128911     9A    -11.115097
      10A     -1.257477    11A     -1.198548    12A     -1.099887
      13A     -1.094523    14A     -0.931213    15A     -0.874397
      16A     -0.752481    17A     -0.711447    18A     -0.604047
      19A     -0.545228    20A     -0.531779    21A     -0.519199
      22A     -0.499810    23A     -0.454204    24A     -0.439988
      25A     -0.426047    26A     -0.419258    27A     -0.413641
      28A     -0.383523    29A     -0.354699    30A     -0.347595
      31A     -0.260534    32A     -0.260242    33A     -0.248515
      34A     -0.238714    35A     -0.227167

  @DF-RHF Final Energy:  -473.20080551140802

   => Energetics <=

    Nuclear Repulsion Energy =            434.7443459288874124
    One-Electron Energy =               -1521.1777555828743971
    Two-Electron Energy =                 613.2326041425789072
    Total Energy =                       -473.2008055114080207
  Basis Set: (AUG-CC-PVTZ AUX)
    Blend: AUG-CC-PVTZ-RI
    Molecular point group: c1

    Geometry (in Angstrom), charge = -1, multiplicity = 1:

       Center              X                  Y                   Z               Mass
    ------------   -----------------  -----------------  -----------------  -----------------
         O            1.679088713879    -1.441312905668    -0.007904772863    15.994914619570
         O           -2.350695286121     1.402489094332    -0.015465772863    15.994914619570
         O           -3.413409286121    -0.599064905668    -0.026866772863    15.994914619570
         N            0.109066713879     0.222078094332     0.015801227137    14.003074004430
         C            2.450927713879     0.845639094332     0.001885227137    12.000000000000
         C            1.180332413879    -0.150649305668     0.006130427137    12.000000000000
         C           -1.025184286121    -0.638627905668     0.018045227137    12.000000000000
         C            3.840191713879     0.241378094332    -0.011472772863    12.000000000000
         C           -2.383676286121     0.136488094332     0.032303227137    12.000000000000
         H            2.288497713879     1.504318094332    -0.862230772863     1.007825032230
         H            2.301414713879     1.495507094332     0.874837227137     1.007825032230
         H           -1.028040286121    -1.299363905668    -0.857071772863     1.007825032230
         H           -1.015881286121    -1.310138905668     0.884907227137     1.007825032230
         H           -0.159351286121     1.204205094332     0.023978227137     1.007825032230
         H            3.990089713879    -0.385460905668     0.868085227137     1.007825032230
         H            3.976783713879    -0.376569905668    -0.899536772863     1.007825032230
         H            4.590663713879     1.035350094332    -0.013540772863     1.007825032230

  Basis Set: AUG-CC-PVTZ
    Blend: AUG-CC-PVTZ
  Basis Set: (AUG-CC-PVTZ AUX)
    Blend: AUG-CC-PVTZ-JKFIT
	 Reference Energy          =    -473.2008055114080207 [Eh]
	 Singles Energy            =      -0.0000000000000000 [Eh]
	 Same-Spin Energy          =      -0.4771035841739502 [Eh]
	 Opposite-Spin Energy      =      -1.4675734406286600 [Eh]
	 Correlation Energy        =      -1.9446770248026102 [Eh]
	 Total Energy              =    -475.1454825362106362 [Eh]

	 ================> DF-SCS-MP2 Energies <==================
	-----------------------------------------------------------
	 SCS Same-Spin Scale       =       0.3333333333333333 [-]
	 SCS Opposite-Spin Scale   =       1.2000000000000000 [-]
	 SCS Same-Spin Energy      =      -0.1590345280579834 [Eh]
	 SCS Opposite-Spin Energy  =      -1.7610881287543920 [Eh]
	 SCS Correlation Energy    =      -1.9201226568123755 [Eh]
	 SCS Total Energy          =    -475.1209281682204164 [Eh]
	-----------------------------------------------------------

  Dipole Moment: [D]
     X:     8.0774      Y:     2.2516      Z:     0.1535     Total:     8.3867

*** Psi4 exiting successfully. Buy a developer a beer!
