                               Psi4 1.3.2 release

  ==> Input File <==

--------------------------------------------------------------------------
#psi4
#
memory 32 gb

molecule  {
-1 1
  O        1.5553730    -1.4489990    -0.0078940
  O       -2.4744110     1.3948030    -0.0154550
  O       -3.5371250    -0.6067510    -0.0268560
  N       -0.0146490     0.2143920     0.0158120
  C        2.3272120     0.8379530     0.0018960
  C        1.2529640    -0.2019952     0.0045283
  C       -1.1489000    -0.6463140     0.0180560
  C        3.7164760     0.2336920    -0.0114620
  C       -2.5073920     0.1288020     0.0323140
  H        2.1647820     1.4966320    -0.8622200
  H        2.1776990     1.4878210     0.8748480
  H       -1.1517560    -1.3070500    -0.8570610
  H       -1.1395970    -1.3178250     0.8849180
  H       -0.2658855     1.2010547     0.0239020
  H        3.8663740    -0.3931470     0.8680960
  H        3.8530680    -0.3842560    -0.8995260
  H        4.4669480     1.0276640    -0.0135300
units angstrom
no_reorient  #important for SAPT in psi4, default
symmetry c1  #important for SAPT in psi4, default
}

set PROPERTIES_ORIGIN ["COM"]
properties('MP2/aug-cc-pvtz', properties = ['dipole'])
--------------------------------------------------------------------------

    Molecular point group: c1
  Charge       = -1
  Multiplicity = 1
  Basis Set: AUG-CC-PVTZ
    Blend: AUG-CC-PVTZ
  Basis Set: (AUG-CC-PVTZ AUX)
    Blend: AUG-CC-PVTZ-JKFIT

    Orbital Energies [Eh]
    ---------------------

    Doubly Occupied:

       1A    -20.388414     2A    -20.322159     3A    -20.310874
       4A    -15.453314     5A    -11.228171     6A    -11.164819
       7A    -11.139003     8A    -11.125160     9A    -11.109831
      10A     -1.225424    11A     -1.186521    12A     -1.100266
      13A     -1.082122    14A     -0.956440    15A     -0.838664
      16A     -0.761993    17A     -0.658265    18A     -0.591056
      19A     -0.546207    20A     -0.537280    21A     -0.506178
      22A     -0.483951    23A     -0.471422    24A     -0.427979
      25A     -0.425538    26A     -0.417686    27A     -0.412446
      28A     -0.396798    29A     -0.377499    30A     -0.341939
      31A     -0.302619    32A     -0.256791    33A     -0.234938
      34A     -0.225021    35A     -0.213076

  @DF-RHF Final Energy:  -473.27860523016534

   => Energetics <=

    Nuclear Repulsion Energy =            433.2529829718764631
    One-Electron Energy =               -1518.6234505457712203
    Two-Electron Energy =                 612.0918623437294173
    Total Energy =                       -473.2786052301653399
  Basis Set: (AUG-CC-PVTZ AUX)
    Blend: AUG-CC-PVTZ-RI
    Molecular point group: c1

    Geometry (in Angstrom), charge = -1, multiplicity = 1:

       Center              X                  Y                   Z               Mass
    ------------   -----------------  -----------------  -----------------  -----------------
         O            1.660838226260    -1.437319482075    -0.007755273299    15.994914619570
         O           -2.368945773740     1.406482517925    -0.015316273299    15.994914619570
         O           -3.431659773740    -0.595071482075    -0.026717273299    15.994914619570
         N            0.090816226260     0.226071517925     0.015950726701    14.003074004430
         C            2.432677226260     0.849632517925     0.002034726701    12.000000000000
         C            1.358429226260    -0.190315682075     0.004667026701    12.000000000000
         C           -1.043434773740    -0.634634482075     0.018194726701    12.000000000000
         C            3.821941226260     0.245371517925    -0.011323273299    12.000000000000
         C           -2.401926773740     0.140481517925     0.032452726701    12.000000000000
         H            2.270247226260     1.508311517925    -0.862081273299     1.007825032230
         H            2.283164226260     1.499500517925     0.874986726701     1.007825032230
         H           -1.046290773740    -1.295370482075    -0.856922273299     1.007825032230
         H           -1.034131773740    -1.306145482075     0.885056726701     1.007825032230
         H           -0.160420273740     1.212734217925     0.024040726701     1.007825032230
         H            3.971839226260    -0.381467482075     0.868234726701     1.007825032230
         H            3.958533226260    -0.372576482075    -0.899387273299     1.007825032230
         H            4.572413226260     1.039343517925    -0.013391273299     1.007825032230

  Basis Set: AUG-CC-PVTZ
    Blend: AUG-CC-PVTZ
  Basis Set: (AUG-CC-PVTZ AUX)
    Blend: AUG-CC-PVTZ-JKFIT
	 Reference Energy          =    -473.2786052301653399 [Eh]
	 Singles Energy            =      -0.0000000000000000 [Eh]
	 Same-Spin Energy          =      -0.4765869285320964 [Eh]
	 Opposite-Spin Energy      =      -1.4662728218280541 [Eh]
	 Correlation Energy        =      -1.9428597503601504 [Eh]
	 Total Energy              =    -475.2214649805254680 [Eh]

	 ================> DF-SCS-MP2 Energies <==================
	-----------------------------------------------------------
	 SCS Same-Spin Scale       =       0.3333333333333333 [-]
	 SCS Opposite-Spin Scale   =       1.2000000000000000 [-]
	 SCS Same-Spin Energy      =      -0.1588623095106988 [Eh]
	 SCS Opposite-Spin Energy  =      -1.7595273861936649 [Eh]
	 SCS Correlation Energy    =      -1.9183896957043638 [Eh]
	 SCS Total Energy          =    -475.1969949258697170 [Eh]
	-----------------------------------------------------------

  Dipole Moment: [D]
     X:     9.9274      Y:     1.6837      Z:     0.1373     Total:    10.0701

*** Psi4 exiting successfully. Buy a developer a beer!
