                               Psi4 1.4a3.dev225

  ==> Input File <==

--------------------------------------------------------------------------
#psi4
#
memory 32 gb

molecule  {
-1 1
  O       -1.5186010     1.5599430    -0.1433510
  O        2.2638970    -1.4295650    -0.0456660
  O        3.5317420     0.4486470     0.1950180
  N        0.0040180    -0.1295860    -0.1151350
  C       -2.3384940    -0.6954940    -0.4149760
  C       -1.2321916     0.3368759    -0.2087673
  C        1.1754880     0.7048690     0.0403840
  C       -3.5055210    -0.4701880     0.5431350
  C        2.4465640    -0.1793200     0.0655420
  H       -2.6873130    -0.6028840    -1.4504550
  H       -1.9319890    -1.7056860    -0.3020050
  H        1.2516430     1.4279040    -0.7806770
  H        1.1211640     1.2868180     0.9683990
  H        0.2309340    -1.1197490    -0.1755670
  H       -3.1861080    -0.6022700     1.5809140
  H       -3.8905480     0.5449040     0.4307430
  H       -4.3152940    -1.1768540     0.3431720
units angstrom
no_reorient  #important for SAPT in psi4, default
symmetry c1  #important for SAPT in psi4, default
}

set PROPERTIES_ORIGIN ["COM"]
properties('MP2/aug-cc-pvtz', properties = ['dipole'])
--------------------------------------------------------------------------

    Molecular point group: c1
  Charge       = -1
  Multiplicity = 1
  Basis Set: AUG-CC-PVTZ
    Blend: AUG-CC-PVTZ
  Basis Set: (AUG-CC-PVTZ AUX)
    Blend: AUG-CC-PVTZ-JKFIT

    Orbital Energies [Eh]
    ---------------------

    Doubly Occupied:

       1A    -20.383240     2A    -20.324157     3A    -20.315123
       4A    -15.448557     5A    -11.220514     6A    -11.165351
       7A    -11.134848     8A    -11.126844     9A    -11.110906
      10A     -1.232258    11A     -1.191693    12A     -1.100997
      13A     -1.085458    14A     -0.947243    15A     -0.834445
      16A     -0.759563    17A     -0.656790    18A     -0.585558
      19A     -0.544490    20A     -0.526771    21A     -0.503108
      22A     -0.486532    23A     -0.473746    24A     -0.436476
      25A     -0.428669    26A     -0.418886    27A     -0.405899
      28A     -0.394917    29A     -0.380614    30A     -0.345392
      31A     -0.295338    32A     -0.258377    33A     -0.240431
      34A     -0.227413    35A     -0.217581

  @DF-RHF Final Energy:  -473.28752758659527

   => Energetics <=

    Nuclear Repulsion Energy =            435.3295040176585644
    One-Electron Energy =               -1522.8176975799522097
    Two-Electron Energy =                 614.2006659756983709
    Total Energy =                       -473.2875275865952744
  Basis Set: (AUG-CC-PVTZ AUX)
    Blend: AUG-CC-PVTZ-RI
    Molecular point group: c1

    Geometry (in Angstrom), charge = -1, multiplicity = 1:

       Center              X                  Y                   Z               Mass
    ------------   -----------------  -----------------  -----------------  -----------------
         O           -1.622444123117     1.545758430773    -0.138790358202    15.994914619570
         O            2.160053876883    -1.443749569227    -0.041105358202    15.994914619570
         O            3.427898876883     0.434462430773     0.199578641798    15.994914619570
         N           -0.099825123117    -0.143770569227    -0.110574358202    14.003074004430
         C           -2.442337123117    -0.709678569227    -0.410415358202    12.000000000000
         C           -1.336034723117     0.322691330773    -0.204206658202    12.000000000000
         C            1.071644876883     0.690684430773     0.044944641798    12.000000000000
         C           -3.609364123117    -0.484372569227     0.547695641798    12.000000000000
         C            2.342720876883    -0.193504569227     0.070102641798    12.000000000000
         H           -2.791156123117    -0.617068569227    -1.445894358202     1.007825032230
         H           -2.035832123117    -1.719870569227    -0.297444358202     1.007825032230
         H            1.147799876883     1.413719430773    -0.776116358202     1.007825032230
         H            1.017320876883     1.272633430773     0.972959641798     1.007825032230
         H            0.127090876883    -1.133933569227    -0.171006358202     1.007825032230
         H           -3.289951123117    -0.616454569227     1.585474641798     1.007825032230
         H           -3.994391123117     0.530719430773     0.435303641798     1.007825032230
         H           -4.419137123117    -1.191038569227     0.347732641798     1.007825032230

  Basis Set: AUG-CC-PVTZ
    Blend: AUG-CC-PVTZ
  Basis Set: (AUG-CC-PVTZ AUX)
    Blend: AUG-CC-PVTZ-JKFIT
	 Reference Energy          =    -473.2875275865952744 [Eh]
	 Singles Energy            =      -0.0000000000000000 [Eh]
	 Same-Spin Energy          =      -0.4758709700792789 [Eh]
	 Opposite-Spin Energy      =      -1.4649043916246007 [Eh]
	 Correlation Energy        =      -1.9407753617038797 [Eh]
	 Total Energy              =    -475.2283029482991310 [Eh]

	 ================> DF-SCS-MP2 Energies <==================
	-----------------------------------------------------------
	 SCS Same-Spin Scale       =       0.3333333333333333 [-]
	 SCS Opposite-Spin Scale   =       1.2000000000000000 [-]
	 SCS Same-Spin Energy      =      -0.1586236566930929 [Eh]
	 SCS Opposite-Spin Energy  =      -1.7578852699495209 [Eh]
	 SCS Correlation Energy    =      -1.9165089266426139 [Eh]
	 SCS Total Energy          =    -475.2040365132378952 [Eh]
	-----------------------------------------------------------

  Dipole Moment: [D]
     X:    -9.1966      Y:    -1.2089      Z:    -0.3998     Total:     9.2843

*** Psi4 exiting successfully. Buy a developer a beer!
