                               Psi4 1.3.2 release

  ==> Input File <==

--------------------------------------------------------------------------
#psi4
#
memory 32 gb

molecule  {
-1 1
  O        1.5553730    -1.4489990    -0.0078940
  O       -2.4744110     1.3948030    -0.0154550
  O       -3.5371250    -0.6067510    -0.0268560
  N       -0.0146490     0.2143920     0.0158120
  C        2.3272120     0.8379530     0.0018960
  C        1.2455030    -0.2240550     0.0044360
  C       -1.1489000    -0.6463140     0.0180560
  C        3.7164760     0.2336920    -0.0114620
  C       -2.5109966     0.1221553     0.0436779
  H        2.1647820     1.4966320    -0.8622200
  H        2.1776990     1.4878210     0.8748480
  H       -1.1517560    -1.3070500    -0.8570610
  H       -1.1482944    -1.3146898     0.8873872
  H       -0.2830670     1.1965190     0.0239890
  H        3.8663740    -0.3931470     0.8680960
  H        3.8530680    -0.3842560    -0.8995260
  H        4.4669480     1.0276640    -0.0135300
units angstrom
no_reorient  #important for SAPT in psi4, default
symmetry c1  #important for SAPT in psi4, default
}

set PROPERTIES_ORIGIN ["COM"]
properties('MP2/aug-cc-pvtz', properties = ['dipole'])
--------------------------------------------------------------------------

    Molecular point group: c1
  Charge       = -1
  Multiplicity = 1
  Basis Set: AUG-CC-PVTZ
    Blend: AUG-CC-PVTZ
  Basis Set: (AUG-CC-PVTZ AUX)
    Blend: AUG-CC-PVTZ-JKFIT

    Orbital Energies [Eh]
    ---------------------

    Doubly Occupied:

       1A    -20.391299     2A    -20.320724     3A    -20.312652
       4A    -15.451189     5A    -11.227466     6A    -11.164802
       7A    -11.137457     8A    -11.124014     9A    -11.108981
      10A     -1.235091    11A     -1.186414    12A     -1.102750
      13A     -1.081908    14A     -0.952431    15A     -0.836294
      16A     -0.758643    17A     -0.659978    18A     -0.589846
      19A     -0.544914    20A     -0.535213    21A     -0.506736
      22A     -0.484284    23A     -0.474630    24A     -0.425912
      25A     -0.424959    26A     -0.417153    27A     -0.413897
      28A     -0.396185    29A     -0.380119    30A     -0.343733
      31A     -0.303232    32A     -0.257736    33A     -0.234471
      34A     -0.225443    35A     -0.213423

  @DF-RHF Final Energy:  -473.28116697604929

   => Energetics <=

    Nuclear Repulsion Energy =            433.3401962842117996
    One-Electron Energy =               -1518.7947707168136731
    Two-Electron Energy =                 612.1734074565526953
    Total Energy =                       -473.2811669760492350
  Basis Set: (AUG-CC-PVTZ AUX)
    Blend: AUG-CC-PVTZ-RI
    Molecular point group: c1

    Geometry (in Angstrom), charge = -1, multiplicity = 1:

       Center              X                  Y                   Z               Mass
    ------------   -----------------  -----------------  -----------------  -----------------
         O            1.662059818667    -1.434659825429    -0.008815134577    15.994914619570
         O           -2.367724181333     1.409142174571    -0.016376134577    15.994914619570
         O           -3.430438181333    -0.592411825429    -0.027777134577    15.994914619570
         N            0.092037818667     0.228731174571     0.014890865423    14.003074004430
         C            2.433898818667     0.852292174571     0.000974865423    12.000000000000
         C            1.352189818667    -0.209715825429     0.003514865423    12.000000000000
         C           -1.042213181333    -0.631974825429     0.017134865423    12.000000000000
         C            3.823162818667     0.248031174571    -0.012383134577    12.000000000000
         C           -2.404309781333     0.136494474571     0.042756765423    12.000000000000
         H            2.271468818667     1.510971174571    -0.863141134577     1.007825032230
         H            2.284385818667     1.502160174571     0.873926865423     1.007825032230
         H           -1.045069181333    -1.292710825429    -0.857982134577     1.007825032230
         H           -1.041607581333    -1.300350625429     0.886466065423     1.007825032230
         H           -0.176380181333     1.210858174571     0.023067865423     1.007825032230
         H            3.973060818667    -0.378807825429     0.867174865423     1.007825032230
         H            3.959754818667    -0.369916825429    -0.900447134577     1.007825032230
         H            4.573634818667     1.042003174571    -0.014451134577     1.007825032230

  Basis Set: AUG-CC-PVTZ
    Blend: AUG-CC-PVTZ
  Basis Set: (AUG-CC-PVTZ AUX)
    Blend: AUG-CC-PVTZ-JKFIT
	 Reference Energy          =    -473.2811669760492919 [Eh]
	 Singles Energy            =      -0.0000000000000000 [Eh]
	 Same-Spin Energy          =      -0.4762014080477464 [Eh]
	 Opposite-Spin Energy      =      -1.4654891983901486 [Eh]
	 Correlation Energy        =      -1.9416906064378949 [Eh]
	 Total Energy              =    -475.2228575824871655 [Eh]

	 ================> DF-SCS-MP2 Energies <==================
	-----------------------------------------------------------
	 SCS Same-Spin Scale       =       0.3333333333333333 [-]
	 SCS Opposite-Spin Scale   =       1.2000000000000000 [-]
	 SCS Same-Spin Energy      =      -0.1587338026825821 [Eh]
	 SCS Opposite-Spin Energy  =      -1.7585870380681783 [Eh]
	 SCS Correlation Energy    =      -1.9173208407507605 [Eh]
	 SCS Total Energy          =    -475.1984878168000250 [Eh]
	-----------------------------------------------------------

  Dipole Moment: [D]
     X:     9.8529      Y:     1.4966      Z:     0.1435     Total:     9.9669

*** Psi4 exiting successfully. Buy a developer a beer!
