                               Psi4 1.4a3.dev225

  ==> Input File <==

--------------------------------------------------------------------------
#psi4
#
memory 32 gb

molecule  {
-1 1
  O       -1.5186010     1.5599430    -0.1433510
  O        2.2638970    -1.4295650    -0.0456660
  O        3.5317420     0.4486470     0.1950180
  N        0.0040180    -0.1295860    -0.1151350
  C       -2.3384940    -0.6954940    -0.4149760
  C       -1.2508570     0.3439190    -0.2101810
  C        1.1754880     0.7048690     0.0403840
  C       -3.5055210    -0.4701880     0.5431350
  C        2.4537647    -0.1300358     0.0699258
  H       -2.6873130    -0.6028840    -1.4504550
  H       -1.9319890    -1.7056860    -0.3020050
  H        1.2516430     1.4279040    -0.7806770
  H        1.1211640     1.2868180     0.9683990
  H        0.2309340    -1.1197490    -0.1755670
  H       -3.1861080    -0.6022700     1.5809140
  H       -3.8905480     0.5449040     0.4307430
  H       -4.3152940    -1.1768540     0.3431720
units angstrom
no_reorient  #important for SAPT in psi4, default
symmetry c1  #important for SAPT in psi4, default
}

set PROPERTIES_ORIGIN ["COM"]
properties('MP2/aug-cc-pvtz', properties = ['dipole'])
--------------------------------------------------------------------------

    Molecular point group: c1
  Charge       = -1
  Multiplicity = 1
  Basis Set: AUG-CC-PVTZ
    Blend: AUG-CC-PVTZ
  Basis Set: (AUG-CC-PVTZ AUX)
    Blend: AUG-CC-PVTZ-JKFIT

    Orbital Energies [Eh]
    ---------------------

    Doubly Occupied:

       1A    -20.387148     2A    -20.323481     3A    -20.311238
       4A    -15.445242     5A    -11.222205     6A    -11.164005
       7A    -11.135149     8A    -11.127645     9A    -11.111323
      10A     -1.238483    11A     -1.192378    12A     -1.098115
      13A     -1.068903    14A     -0.949450    15A     -0.835056
      16A     -0.762179    17A     -0.652330    18A     -0.587453
      19A     -0.547161    20A     -0.526550    21A     -0.501755
      22A     -0.486955    23A     -0.474776    24A     -0.437631
      25A     -0.431133    26A     -0.419897    27A     -0.406825
      28A     -0.390741    29A     -0.380912    30A     -0.343300
      31A     -0.298853    32A     -0.255867    33A     -0.232057
      34A     -0.230355    35A     -0.213550

  @DF-RHF Final Energy:  -473.28352234973460

   => Energetics <=

    Nuclear Repulsion Energy =            435.1437297877802166
    One-Electron Energy =               -1522.4742987297306627
    Two-Electron Energy =                 614.0470465922156791
    Total Energy =                       -473.2835223497346533
  Basis Set: (AUG-CC-PVTZ AUX)
    Blend: AUG-CC-PVTZ-RI
    Molecular point group: c1

    Geometry (in Angstrom), charge = -1, multiplicity = 1:

       Center              X                  Y                   Z               Mass
    ------------   -----------------  -----------------  -----------------  -----------------
         O           -1.621386253392     1.540561003423    -0.139064414991    15.994914619570
         O            2.161111746608    -1.448946996577    -0.041379414991    15.994914619570
         O            3.428956746608     0.429265003423     0.199304585009    15.994914619570
         N           -0.098767253392    -0.148967996577    -0.110848414991    14.003074004430
         C           -2.441279253392    -0.714875996577    -0.410689414991    12.000000000000
         C           -1.353642253392     0.324537003423    -0.205894414991    12.000000000000
         C            1.072702746608     0.685487003423     0.044670585009    12.000000000000
         C           -3.608306253392    -0.489569996577     0.547421585009    12.000000000000
         C            2.350979446608    -0.149417796577     0.074212385009    12.000000000000
         H           -2.790098253392    -0.622265996577    -1.446168414991     1.007825032230
         H           -2.034774253392    -1.725067996577    -0.297718414991     1.007825032230
         H            1.148857746608     1.408522003423    -0.776390414991     1.007825032230
         H            1.018378746608     1.267436003423     0.972685585009     1.007825032230
         H            0.128148746608    -1.139130996577    -0.171280414991     1.007825032230
         H           -3.288893253392    -0.621651996577     1.585200585009     1.007825032230
         H           -3.993333253392     0.525522003423     0.435029585009     1.007825032230
         H           -4.418079253392    -1.196235996577     0.347458585009     1.007825032230

  Basis Set: AUG-CC-PVTZ
    Blend: AUG-CC-PVTZ
  Basis Set: (AUG-CC-PVTZ AUX)
    Blend: AUG-CC-PVTZ-JKFIT
	 Reference Energy          =    -473.2835223497345964 [Eh]
	 Singles Energy            =      -0.0000000000000000 [Eh]
	 Same-Spin Energy          =      -0.4761189214355126 [Eh]
	 Opposite-Spin Energy      =      -1.4655269550227867 [Eh]
	 Correlation Energy        =      -1.9416458764582993 [Eh]
	 Total Energy              =    -475.2251682261929204 [Eh]

	 ================> DF-SCS-MP2 Energies <==================
	-----------------------------------------------------------
	 SCS Same-Spin Scale       =       0.3333333333333333 [-]
	 SCS Opposite-Spin Scale   =       1.2000000000000000 [-]
	 SCS Same-Spin Energy      =      -0.1587063071451709 [Eh]
	 SCS Opposite-Spin Energy  =      -1.7586323460273441 [Eh]
	 SCS Correlation Energy    =      -1.9173386531725150 [Eh]
	 SCS Total Energy          =    -475.2008610029071178 [Eh]
	-----------------------------------------------------------

  Dipole Moment: [D]
     X:    -9.2127      Y:    -0.7009      Z:    -0.3650     Total:     9.2465

*** Psi4 exiting successfully. Buy a developer a beer!
