                               Psi4 1.4a3.dev225

  ==> Input File <==

--------------------------------------------------------------------------
#psi4
#
memory 32 gb

molecule  {
-1 1
  O       -1.5186010     1.5599430    -0.1433510
  O        2.2638970    -1.4295650    -0.0456660
  O        3.5317420     0.4486470     0.1950180
  N        0.0040180    -0.1295860    -0.1151350
  C       -2.3384940    -0.6954940    -0.4149760
  C       -1.2866743     0.3096898    -0.2169252
  C        1.1754880     0.7048690     0.0403840
  C       -3.5055210    -0.4701880     0.5431350
  C        2.4465640    -0.1793200     0.0655420
  H       -2.6873130    -0.6028840    -1.4504550
  H       -1.9319890    -1.7056860    -0.3020050
  H        1.2516430     1.4279040    -0.7806770
  H        1.1211640     1.2868180     0.9683990
  H        0.2309340    -1.1197490    -0.1755670
  H       -3.1861080    -0.6022700     1.5809140
  H       -3.8905480     0.5449040     0.4307430
  H       -4.3152940    -1.1768540     0.3431720
units angstrom
no_reorient  #important for SAPT in psi4, default
symmetry c1  #important for SAPT in psi4, default
}

set PROPERTIES_ORIGIN ["COM"]
properties('MP2/aug-cc-pvtz', properties = ['dipole'])
--------------------------------------------------------------------------

    Molecular point group: c1
  Charge       = -1
  Multiplicity = 1
  Basis Set: AUG-CC-PVTZ
    Blend: AUG-CC-PVTZ
  Basis Set: (AUG-CC-PVTZ AUX)
    Blend: AUG-CC-PVTZ-JKFIT

    Orbital Energies [Eh]
    ---------------------

    Doubly Occupied:

       1A    -20.385197     2A    -20.321322     3A    -20.313010
       4A    -15.444744     5A    -11.225545     6A    -11.162973
       7A    -11.137934     8A    -11.131149     9A    -11.108269
      10A     -1.223644    11A     -1.189024    12A     -1.093309
      13A     -1.074988    14A     -0.959909    15A     -0.832592
      16A     -0.766159    17A     -0.646855    18A     -0.587245
      19A     -0.548670    20A     -0.529867    21A     -0.499601
      22A     -0.481106    23A     -0.472143    24A     -0.440629
      25A     -0.427619    26A     -0.420596    27A     -0.407181
      28A     -0.395197    29A     -0.375525    30A     -0.342086
      31A     -0.300482    32A     -0.251700    33A     -0.237589
      34A     -0.225192    35A     -0.214791

  @DF-RHF Final Energy:  -473.28063746565925

   => Energetics <=

    Nuclear Repulsion Energy =            434.9115922577084348
    One-Electron Energy =               -1522.0367793759880897
    Two-Electron Energy =                 613.8445496526203442
    Total Energy =                       -473.2806374656593107
  Basis Set: (AUG-CC-PVTZ AUX)
    Blend: AUG-CC-PVTZ-RI
    Molecular point group: c1

    Geometry (in Angstrom), charge = -1, multiplicity = 1:

       Center              X                  Y                   Z               Mass
    ------------   -----------------  -----------------  -----------------  -----------------
         O           -1.617416900525     1.548266944046    -0.138037613217    15.994914619570
         O            2.165081099475    -1.441241055954    -0.040352613217    15.994914619570
         O            3.432926099475     0.436970944046     0.200331386783    15.994914619570
         N           -0.094797900525    -0.141262055954    -0.109821613217    14.003074004430
         C           -2.437309900525    -0.707170055954    -0.409662613217    12.000000000000
         C           -1.385490200525     0.298013744046    -0.211611813217    12.000000000000
         C            1.076672099475     0.693192944046     0.045697386783    12.000000000000
         C           -3.604336900525    -0.481864055954     0.548448386783    12.000000000000
         C            2.347748099475    -0.190996055954     0.070855386783    12.000000000000
         H           -2.786128900525    -0.614560055954    -1.445141613217     1.007825032230
         H           -2.030804900525    -1.717362055954    -0.296691613217     1.007825032230
         H            1.152827099475     1.416227944046    -0.775363613217     1.007825032230
         H            1.022348099475     1.275141944046     0.973712386783     1.007825032230
         H            0.132118099475    -1.131425055954    -0.170253613217     1.007825032230
         H           -3.284923900525    -0.613946055954     1.586227386783     1.007825032230
         H           -3.989363900525     0.533227944046     0.436056386783     1.007825032230
         H           -4.414109900525    -1.188530055954     0.348485386783     1.007825032230

  Basis Set: AUG-CC-PVTZ
    Blend: AUG-CC-PVTZ
  Basis Set: (AUG-CC-PVTZ AUX)
    Blend: AUG-CC-PVTZ-JKFIT
	 Reference Energy          =    -473.2806374656592538 [Eh]
	 Singles Energy            =      -0.0000000000000000 [Eh]
	 Same-Spin Energy          =      -0.4768471929544384 [Eh]
	 Opposite-Spin Energy      =      -1.4667315020338978 [Eh]
	 Correlation Energy        =      -1.9435786949883362 [Eh]
	 Total Energy              =    -475.2242161606475861 [Eh]

	 ================> DF-SCS-MP2 Energies <==================
	-----------------------------------------------------------
	 SCS Same-Spin Scale       =       0.3333333333333333 [-]
	 SCS Opposite-Spin Scale   =       1.2000000000000000 [-]
	 SCS Same-Spin Energy      =      -0.1589490643181461 [Eh]
	 SCS Opposite-Spin Energy  =      -1.7600778024406774 [Eh]
	 SCS Correlation Energy    =      -1.9190268667588235 [Eh]
	 SCS Total Energy          =    -475.1996643324180809 [Eh]
	-----------------------------------------------------------

  Dipole Moment: [D]
     X:    -9.5749      Y:    -1.3089      Z:    -0.4350     Total:     9.6737

*** Psi4 exiting successfully. Buy a developer a beer!
