                               Psi4 1.3.2 release

  ==> Input File <==

--------------------------------------------------------------------------
#psi4
#
memory 32 gb

molecule  {
-1 1
  O        1.5660511    -1.4462478    -0.0079352
  O       -2.4744110     1.3948030    -0.0154550
  O       -3.5371250    -0.6067510    -0.0268560
  N       -0.0107743     0.2253721     0.0158822
  C        2.3272120     0.8379530     0.0018960
  C        1.2455030    -0.2240550     0.0044360
  C       -1.1489000    -0.6463140     0.0180560
  C        3.7164760     0.2336920    -0.0114620
  C       -2.5073920     0.1288020     0.0323140
  H        2.1647820     1.4966320    -0.8622200
  H        2.1776990     1.4878210     0.8748480
  H       -1.1517560    -1.3070500    -0.8570610
  H       -1.1395970    -1.3178250     0.8849180
  H       -0.2830670     1.1965190     0.0239890
  H        3.8663740    -0.3931470     0.8680960
  H        3.8530680    -0.3842560    -0.8995260
  H        4.4669480     1.0276640    -0.0135300
units angstrom
no_reorient  #important for SAPT in psi4, default
symmetry c1  #important for SAPT in psi4, default
}

set PROPERTIES_ORIGIN ["COM"]
properties('MP2/aug-cc-pvtz', properties = ['dipole'])
--------------------------------------------------------------------------

    Molecular point group: c1
  Charge       = -1
  Multiplicity = 1
  Basis Set: AUG-CC-PVTZ
    Blend: AUG-CC-PVTZ
  Basis Set: (AUG-CC-PVTZ AUX)
    Blend: AUG-CC-PVTZ-JKFIT

    Orbital Energies [Eh]
    ---------------------

    Doubly Occupied:

       1A    -20.392182     2A    -20.322686     3A    -20.311106
       4A    -15.451467     5A    -11.227888     6A    -11.165000
       7A    -11.136411     8A    -11.123353     9A    -11.110088
      10A     -1.235105    11A     -1.187230    12A     -1.102846
      13A     -1.082659    14A     -0.951527    15A     -0.835536
      16A     -0.758333    17A     -0.663466    18A     -0.589200
      19A     -0.543804    20A     -0.534762    21A     -0.507415
      22A     -0.483350    23A     -0.475158    24A     -0.426534
      25A     -0.424341    26A     -0.416948    27A     -0.413650
      28A     -0.397107    29A     -0.380112    30A     -0.344313
      31A     -0.303238    32A     -0.259405    33A     -0.235520
      34A     -0.225007    35A     -0.213530

  @DF-RHF Final Energy:  -473.28191042948077

   => Energetics <=

    Nuclear Repulsion Energy =            433.2562354235046769
    One-Electron Energy =               -1518.6157389163136031
    Two-Electron Energy =                 612.0775930633280950
    Total Energy =                       -473.2819104294808312
  Basis Set: (AUG-CC-PVTZ AUX)
    Blend: AUG-CC-PVTZ-RI
    Molecular point group: c1

    Geometry (in Angstrom), charge = -1, multiplicity = 1:

       Center              X                  Y                   Z               Mass
    ------------   -----------------  -----------------  -----------------  -----------------
         O            1.670607409053    -1.434018276693    -0.007791122345    15.994914619570
         O           -2.369854690947     1.407032523307    -0.015310922345    15.994914619570
         O           -3.432568690947    -0.594521476693    -0.026711922345    15.994914619570
         N            0.093782009053     0.237601623307     0.016026277655    14.003074004430
         C            2.431768309053     0.850182523307     0.002040077655    12.000000000000
         C            1.350059309053    -0.211825476693     0.004580077655    12.000000000000
         C           -1.044343690947    -0.634084476693     0.018200077655    12.000000000000
         C            3.821032309053     0.245921523307    -0.011317922345    12.000000000000
         C           -2.402835690947     0.141031523307     0.032458077655    12.000000000000
         H            2.269338309053     1.508861523307    -0.862075922345     1.007825032230
         H            2.282255309053     1.500050523307     0.874992077655     1.007825032230
         H           -1.047199690947    -1.294820476693    -0.856916922345     1.007825032230
         H           -1.035040690947    -1.305595476693     0.885062077655     1.007825032230
         H           -0.178510690947     1.208748523307     0.024133077655     1.007825032230
         H            3.970930309053    -0.380917476693     0.868240077655     1.007825032230
         H            3.957624309053    -0.372026476693    -0.899381922345     1.007825032230
         H            4.571504309053     1.039893523307    -0.013385922345     1.007825032230

  Basis Set: AUG-CC-PVTZ
    Blend: AUG-CC-PVTZ
  Basis Set: (AUG-CC-PVTZ AUX)
    Blend: AUG-CC-PVTZ-JKFIT
	 Reference Energy          =    -473.2819104294807744 [Eh]
	 Singles Energy            =      -0.0000000000000000 [Eh]
	 Same-Spin Energy          =      -0.4760404598709642 [Eh]
	 Opposite-Spin Energy      =      -1.4652876085320021 [Eh]
	 Correlation Energy        =      -1.9413280684029663 [Eh]
	 Total Energy              =    -475.2232384978837558 [Eh]

	 ================> DF-SCS-MP2 Energies <==================
	-----------------------------------------------------------
	 SCS Same-Spin Scale       =       0.3333333333333333 [-]
	 SCS Opposite-Spin Scale   =       1.2000000000000000 [-]
	 SCS Same-Spin Energy      =      -0.1586801532903214 [Eh]
	 SCS Opposite-Spin Energy  =      -1.7583451302384026 [Eh]
	 SCS Correlation Energy    =      -1.9170252835287238 [Eh]
	 SCS Total Energy          =    -475.1989357130095186 [Eh]
	-----------------------------------------------------------

  Dipole Moment: [D]
     X:     9.8564      Y:     1.5359      Z:     0.1367     Total:     9.9763

*** Psi4 exiting successfully. Buy a developer a beer!
