                               Psi4 1.3.2 release

  ==> Input File <==

--------------------------------------------------------------------------
#psi4
#
memory 32 gb

molecule  {
-1 1
  O        1.6190589    -1.4310999    -0.0081271
  O       -2.4744110     1.3948030    -0.0154550
  O       -3.5371250    -0.6067510    -0.0268560
  N        0.0100284     0.2797424     0.0162201
  C        2.3272120     0.8379530     0.0018960
  C        1.2455030    -0.2240550     0.0044360
  C       -1.1489000    -0.6463140     0.0180560
  C        3.7164760     0.2336920    -0.0114620
  C       -2.5073920     0.1288020     0.0323140
  H        2.1647820     1.4966320    -0.8622200
  H        2.1776990     1.4878210     0.8748480
  H       -1.1517560    -1.3070500    -0.8570610
  H       -1.1395970    -1.3178250     0.8849180
  H       -0.2830670     1.1965190     0.0239890
  H        3.8663740    -0.3931470     0.8680960
  H        3.8530680    -0.3842560    -0.8995260
  H        4.4669480     1.0276640    -0.0135300
units angstrom
no_reorient  #important for SAPT in psi4, default
symmetry c1  #important for SAPT in psi4, default
}

set PROPERTIES_ORIGIN ["COM"]
properties('MP2/aug-cc-pvtz', properties = ['dipole'])
--------------------------------------------------------------------------

    Molecular point group: c1
  Charge       = -1
  Multiplicity = 1
  Basis Set: AUG-CC-PVTZ
    Blend: AUG-CC-PVTZ
  Basis Set: (AUG-CC-PVTZ AUX)
    Blend: AUG-CC-PVTZ-JKFIT

    Orbital Energies [Eh]
    ---------------------

    Doubly Occupied:

       1A    -20.395905     2A    -20.323623     3A    -20.312612
       4A    -15.452542     5A    -11.230098     6A    -11.166390
       7A    -11.130633     8A    -11.119622     9A    -11.116137
      10A     -1.235096    11A     -1.188447    12A     -1.105647
      13A     -1.084040    14A     -0.946477    15A     -0.831803
      16A     -0.758043    17A     -0.680047    18A     -0.585437
      19A     -0.540043    20A     -0.532167    21A     -0.508147
      22A     -0.479718    23A     -0.475914    24A     -0.431946
      25A     -0.419900    26A     -0.416410    27A     -0.411790
      28A     -0.396247    29A     -0.379564    30A     -0.345775
      31A     -0.302042    32A     -0.266976    33A     -0.236777
      34A     -0.225905    35A     -0.215072

  @DF-RHF Final Energy:  -473.27529542913879

   => Energetics <=

    Nuclear Repulsion Energy =            432.6637554464924165
    One-Electron Energy =               -1517.3841174257070179
    Two-Electron Energy =                 611.4450665500758078
    Total Energy =                       -473.2752954291388505
  Basis Set: (AUG-CC-PVTZ AUX)
    Blend: AUG-CC-PVTZ-RI
    Molecular point group: c1

    Geometry (in Angstrom), charge = -1, multiplicity = 1:

       Center              X                  Y                   Z               Mass
    ------------   -----------------  -----------------  -----------------  -----------------
         O            1.714855860185    -1.426587696761    -0.007995803654    15.994914619570
         O           -2.378614039815     1.399315203239    -0.015323703654    15.994914619570
         O           -3.441328039815    -0.602238796761    -0.026724703654    15.994914619570
         N            0.105825360185     0.284254603239     0.016351396346    14.003074004430
         C            2.423008960185     0.842465203239     0.002027296346    12.000000000000
         C            1.341299960185    -0.219542796761     0.004567296346    12.000000000000
         C           -1.053103039815    -0.641801796761     0.018187296346    12.000000000000
         C            3.812272960185     0.238204203239    -0.011330703654    12.000000000000
         C           -2.411595039815     0.133314203239     0.032445296346    12.000000000000
         H            2.260578960185     1.501144203239    -0.862088703654     1.007825032230
         H            2.273495960185     1.492333203239     0.874979296346     1.007825032230
         H           -1.055959039815    -1.302537796761    -0.856929703654     1.007825032230
         H           -1.043800039815    -1.313312796761     0.885049296346     1.007825032230
         H           -0.187270039815     1.201031203239     0.024120296346     1.007825032230
         H            3.962170960185    -0.388634796761     0.868227296346     1.007825032230
         H            3.948864960185    -0.379743796761    -0.899394703654     1.007825032230
         H            4.562744960185     1.032176203239    -0.013398703654     1.007825032230

  Basis Set: AUG-CC-PVTZ
    Blend: AUG-CC-PVTZ
  Basis Set: (AUG-CC-PVTZ AUX)
    Blend: AUG-CC-PVTZ-JKFIT
	 Reference Energy          =    -473.2752954291387937 [Eh]
	 Singles Energy            =      -0.0000000000000000 [Eh]
	 Same-Spin Energy          =      -0.4757114418100348 [Eh]
	 Opposite-Spin Energy      =      -1.4653578364189261 [Eh]
	 Correlation Energy        =      -1.9410692782289609 [Eh]
	 Total Energy              =    -475.2163647073677453 [Eh]

	 ================> DF-SCS-MP2 Energies <==================
	-----------------------------------------------------------
	 SCS Same-Spin Scale       =       0.3333333333333333 [-]
	 SCS Opposite-Spin Scale   =       1.2000000000000000 [-]
	 SCS Same-Spin Energy      =      -0.1585704806033449 [Eh]
	 SCS Opposite-Spin Energy  =      -1.7584294037027113 [Eh]
	 SCS Correlation Energy    =      -1.9169998843060563 [Eh]
	 SCS Total Energy          =    -475.1922953134448449 [Eh]
	-----------------------------------------------------------

  Dipole Moment: [D]
     X:     9.6540      Y:     1.3908      Z:     0.1370     Total:     9.7546

*** Psi4 exiting successfully. Buy a developer a beer!
