                               Psi4 1.3.2 release

  ==> Input File <==

--------------------------------------------------------------------------
#psi4
#
memory 32 gb

molecule  {
-1 1
  O        1.5553730    -1.4489990    -0.0078940
  O       -2.4744110     1.3948030    -0.0154550
  O       -3.5371250    -0.6067510    -0.0268560
  N       -0.0146490     0.2143920     0.0158120
  C        2.3272120     0.8379530     0.0018960
  C        1.2529640    -0.2019951     0.0045257
  C       -1.1637477    -0.6263881     0.0182840
  C        3.7164760     0.2336920    -0.0114620
  C       -2.5073920     0.1288020     0.0323140
  H        2.1647820     1.4966320    -0.8622200
  H        2.1776990     1.4878210     0.8748480
  H       -1.1517560    -1.3070500    -0.8570610
  H       -1.1395970    -1.3178250     0.8849180
  H       -0.2830670     1.1965190     0.0239890
  H        3.8663740    -0.3931470     0.8680960
  H        3.8530680    -0.3842560    -0.8995260
  H        4.4669480     1.0276640    -0.0135300
units angstrom
no_reorient  #important for SAPT in psi4, default
symmetry c1  #important for SAPT in psi4, default
}

set PROPERTIES_ORIGIN ["COM"]
properties('MP2/aug-cc-pvtz', properties = ['dipole'])
--------------------------------------------------------------------------

    Molecular point group: c1
  Charge       = -1
  Multiplicity = 1
  Basis Set: AUG-CC-PVTZ
    Blend: AUG-CC-PVTZ
  Basis Set: (AUG-CC-PVTZ AUX)
    Blend: AUG-CC-PVTZ-JKFIT

    Orbital Energies [Eh]
    ---------------------

    Doubly Occupied:

       1A    -20.388719     2A    -20.322212     3A    -20.310918
       4A    -15.453331     5A    -11.229053     6A    -11.164199
       7A    -11.139106     8A    -11.125207     9A    -11.111491
      10A     -1.225538    11A     -1.187627    12A     -1.100650
      13A     -1.082477    14A     -0.956548    15A     -0.839807
      16A     -0.762643    17A     -0.659254    18A     -0.592827
      19A     -0.548890    20A     -0.537172    21A     -0.504537
      22A     -0.481931    23A     -0.471761    24A     -0.428409
      25A     -0.427125    26A     -0.417400    27A     -0.412731
      28A     -0.394808    29A     -0.377881    30A     -0.339957
      31A     -0.302981    32A     -0.255382    33A     -0.236019
      34A     -0.227176    35A     -0.213242

  @DF-RHF Final Energy:  -473.27773854879291

   => Energetics <=

    Nuclear Repulsion Energy =            433.4473125593453915
    One-Electron Energy =               -1518.9920860750050906
    Two-Electron Energy =                 612.2670349668667313
    Total Energy =                       -473.2777385487929678
  Basis Set: (AUG-CC-PVTZ AUX)
    Blend: AUG-CC-PVTZ-RI
    Molecular point group: c1

    Geometry (in Angstrom), charge = -1, multiplicity = 1:

       Center              X                  Y                   Z               Mass
    ------------   -----------------  -----------------  -----------------  -----------------
         O            1.662341399788    -1.439122942698    -0.007776745593    15.994914619570
         O           -2.367442600212     1.404679057302    -0.015337745593    15.994914619570
         O           -3.430156600212    -0.596874942698    -0.026738745593    15.994914619570
         N            0.092319399788     0.224268057302     0.015929254407    14.003074004430
         C            2.434180399788     0.847829057302     0.002013254407    12.000000000000
         C            1.359932399788    -0.192119042698     0.004642954407    12.000000000000
         C           -1.056779300212    -0.616512042698     0.018401254407    12.000000000000
         C            3.823444399788     0.243568057302    -0.011344745593    12.000000000000
         C           -2.400423600212     0.138678057302     0.032431254407    12.000000000000
         H            2.271750399788     1.506508057302    -0.862102745593     1.007825032230
         H            2.284667399788     1.497697057302     0.874965254407     1.007825032230
         H           -1.044787600212    -1.297173942698    -0.856943745593     1.007825032230
         H           -1.032628600212    -1.307948942698     0.885035254407     1.007825032230
         H           -0.176098600212     1.206395057302     0.024106254407     1.007825032230
         H            3.973342399788    -0.383270942698     0.868213254407     1.007825032230
         H            3.960036399788    -0.374379942698    -0.899408745593     1.007825032230
         H            4.573916399788     1.037540057302    -0.013412745593     1.007825032230

  Basis Set: AUG-CC-PVTZ
    Blend: AUG-CC-PVTZ
  Basis Set: (AUG-CC-PVTZ AUX)
    Blend: AUG-CC-PVTZ-JKFIT
	 Reference Energy          =    -473.2777385487929109 [Eh]
	 Singles Energy            =      -0.0000000000000000 [Eh]
	 Same-Spin Energy          =      -0.4767289778149786 [Eh]
	 Opposite-Spin Energy      =      -1.4664865079780083 [Eh]
	 Correlation Energy        =      -1.9432154857929869 [Eh]
	 Total Energy              =    -475.2209540345858727 [Eh]

	 ================> DF-SCS-MP2 Energies <==================
	-----------------------------------------------------------
	 SCS Same-Spin Scale       =       0.3333333333333333 [-]
	 SCS Opposite-Spin Scale   =       1.2000000000000000 [-]
	 SCS Same-Spin Energy      =      -0.1589096592716595 [Eh]
	 SCS Opposite-Spin Energy  =      -1.7597838095736098 [Eh]
	 SCS Correlation Energy    =      -1.9186934688452693 [Eh]
	 SCS Total Energy          =    -475.1964320176381875 [Eh]
	-----------------------------------------------------------

  Dipole Moment: [D]
     X:     9.9206      Y:     1.6863      Z:     0.1374     Total:    10.0638

*** Psi4 exiting successfully. Buy a developer a beer!
