                               Psi4 1.3.2 release

  ==> Input File <==

--------------------------------------------------------------------------
#psi4
#
memory 32 gb

molecule  {
-1 1
  O        1.4908377    -1.4635406    -0.0076271
  O       -2.4744110     1.3948030    -0.0154550
  O       -3.5371250    -0.6067510    -0.0268560
  N       -0.0358724     0.1478399     0.0153727
  C        2.3272120     0.8379530     0.0018960
  C        1.2455030    -0.2240550     0.0044360
  C       -1.1489000    -0.6463140     0.0180560
  C        3.7164760     0.2336920    -0.0114620
  C       -2.5073920     0.1288020     0.0323140
  H        2.1647820     1.4966320    -0.8622200
  H        2.1776990     1.4878210     0.8748480
  H       -1.1517560    -1.3070500    -0.8570610
  H       -1.1395970    -1.3178250     0.8849180
  H       -0.2830670     1.1965190     0.0239890
  H        3.8663740    -0.3931470     0.8680960
  H        3.8530680    -0.3842560    -0.8995260
  H        4.4669480     1.0276640    -0.0135300
units angstrom
no_reorient  #important for SAPT in psi4, default
symmetry c1  #important for SAPT in psi4, default
}

set PROPERTIES_ORIGIN ["COM"]
properties('MP2/aug-cc-pvtz', properties = ['dipole'])
--------------------------------------------------------------------------

    Molecular point group: c1
  Charge       = -1
  Multiplicity = 1
  Basis Set: AUG-CC-PVTZ
    Blend: AUG-CC-PVTZ
  Basis Set: (AUG-CC-PVTZ AUX)
    Blend: AUG-CC-PVTZ-JKFIT

    Orbital Energies [Eh]
    ---------------------

    Doubly Occupied:

       1A    -20.386849     2A    -20.321537     3A    -20.309272
       4A    -15.449715     5A    -11.226102     6A    -11.163363
       7A    -11.144249     8A    -11.128446     9A    -11.101983
      10A     -1.236905    11A     -1.185665    12A     -1.100443
      13A     -1.080994    14A     -0.958499    15A     -0.841246
      16A     -0.760570    17A     -0.642469    18A     -0.593785
      19A     -0.551621    20A     -0.538761    21A     -0.505079
      22A     -0.489589    23A     -0.472985    24A     -0.432078
      25A     -0.423660    26A     -0.418648    27A     -0.411996
      28A     -0.390924    29A     -0.380256    30A     -0.342542
      31A     -0.302397    32A     -0.247930    33A     -0.233845
      34A     -0.223657    35A     -0.211260

  @DF-RHF Final Energy:  -473.27040381685356

   => Energetics <=

    Nuclear Repulsion Energy =            434.2277642459298477
    One-Electron Energy =               -1520.5776972043588557
    Two-Electron Energy =                 613.0795291415754491
    Total Energy =                       -473.2704038168535590
  Basis Set: (AUG-CC-PVTZ AUX)
    Blend: AUG-CC-PVTZ-RI
    Molecular point group: c1

    Geometry (in Angstrom), charge = -1, multiplicity = 1:

       Center              X                  Y                   Z               Mass
    ------------   -----------------  -----------------  -----------------  -----------------
         O            1.607346930738    -1.440836016223    -0.007466055594    15.994914619570
         O           -2.357901769262     1.417507583777    -0.015293955594    15.994914619570
         O           -3.420615769262    -0.584046416223    -0.026694955594    15.994914619570
         N            0.080636830738     0.170544483777     0.015533744406    14.003074004430
         C            2.443721230738     0.860657583777     0.002057044406    12.000000000000
         C            1.362012230738    -0.201350416223     0.004597044406    12.000000000000
         C           -1.032390769262    -0.623609416223     0.018217044406    12.000000000000
         C            3.832985230738     0.256396583777    -0.011300955594    12.000000000000
         C           -2.390882769262     0.151506583777     0.032475044406    12.000000000000
         H            2.281291230738     1.519336583777    -0.862058955594     1.007825032230
         H            2.294208230738     1.510525583777     0.875009044406     1.007825032230
         H           -1.035246769262    -1.284345416223    -0.856899955594     1.007825032230
         H           -1.023087769262    -1.295120416223     0.885079044406     1.007825032230
         H           -0.166557769262     1.219223583777     0.024150044406     1.007825032230
         H            3.982883230738    -0.370442416223     0.868257044406     1.007825032230
         H            3.969577230738    -0.361551416223    -0.899364955594     1.007825032230
         H            4.583457230738     1.050368583777    -0.013368955594     1.007825032230

  Basis Set: AUG-CC-PVTZ
    Blend: AUG-CC-PVTZ
  Basis Set: (AUG-CC-PVTZ AUX)
    Blend: AUG-CC-PVTZ-JKFIT
	 Reference Energy          =    -473.2704038168535590 [Eh]
	 Singles Energy            =      -0.0000000000000000 [Eh]
	 Same-Spin Energy          =      -0.4772610173700822 [Eh]
	 Opposite-Spin Energy      =      -1.4668297955509313 [Eh]
	 Correlation Energy        =      -1.9440908129210135 [Eh]
	 Total Energy              =    -475.2144946297745491 [Eh]

	 ================> DF-SCS-MP2 Energies <==================
	-----------------------------------------------------------
	 SCS Same-Spin Scale       =       0.3333333333333333 [-]
	 SCS Opposite-Spin Scale   =       1.2000000000000000 [-]
	 SCS Same-Spin Energy      =      -0.1590870057900274 [Eh]
	 SCS Opposite-Spin Energy  =      -1.7601957546611176 [Eh]
	 SCS Correlation Energy    =      -1.9192827604511449 [Eh]
	 SCS Total Energy          =    -475.1896865773047125 [Eh]
	-----------------------------------------------------------

  Dipole Moment: [D]
     X:    10.1155      Y:     1.7158      Z:     0.1358     Total:    10.2609

*** Psi4 exiting successfully. Buy a developer a beer!
