                               Psi4 1.3.2 release

  ==> Input File <==

--------------------------------------------------------------------------
#psi4
#
memory 32 gb

molecule  {
-1 1
  O        1.5553730    -1.4489990    -0.0078940
  O       -2.4744110     1.3948030    -0.0154550
  O       -3.5371250    -0.6067510    -0.0268560
  N       -0.0146490     0.2143920     0.0158120
  C        2.3272120     0.8379530     0.0018960
  C        1.2560749    -0.2344410     0.0263528
  C       -1.1489000    -0.6463140     0.0180560
  C        3.7164760     0.2336920    -0.0114620
  C       -2.5073920     0.1288020     0.0323140
  H        2.1801702     1.5068620    -0.8571019
  H        2.1776990     1.4878210     0.8748480
  H       -1.1517560    -1.3070500    -0.8570610
  H       -1.1395970    -1.3178250     0.8849180
  H       -0.2830670     1.1965190     0.0239890
  H        3.8663740    -0.3931470     0.8680960
  H        3.8530680    -0.3842560    -0.8995260
  H        4.4669480     1.0276640    -0.0135300
units angstrom
no_reorient  #important for SAPT in psi4, default
symmetry c1  #important for SAPT in psi4, default
}

set PROPERTIES_ORIGIN ["COM"]
properties('MP2/aug-cc-pvtz', properties = ['dipole'])
--------------------------------------------------------------------------

    Molecular point group: c1
  Charge       = -1
  Multiplicity = 1
  Basis Set: AUG-CC-PVTZ
    Blend: AUG-CC-PVTZ
  Basis Set: (AUG-CC-PVTZ AUX)
    Blend: AUG-CC-PVTZ-JKFIT

    Orbital Energies [Eh]
    ---------------------

    Doubly Occupied:

       1A    -20.395037     2A    -20.321492     3A    -20.309900
       4A    -15.448449     5A    -11.228580     6A    -11.163705
       7A    -11.137497     8A    -11.124301     9A    -11.107426
      10A     -1.242205    11A     -1.186141    12A     -1.099311
      13A     -1.081172    14A     -0.953153    15A     -0.833701
      16A     -0.757385    17A     -0.657743    18A     -0.590793
      19A     -0.544334    20A     -0.534982    21A     -0.507899
      22A     -0.482750    23A     -0.476885    24A     -0.424963
      25A     -0.424363    26A     -0.417311    27A     -0.415699
      28A     -0.396579    29A     -0.381366    30A     -0.344606
      31A     -0.305902    32A     -0.256468    33A     -0.234293
      34A     -0.223758    35A     -0.212217

  @DF-RHF Final Energy:  -473.28228591552670

   => Energetics <=

    Nuclear Repulsion Energy =            433.3288973893976390
    One-Electron Energy =               -1518.7776331835791552
    Two-Electron Energy =                 612.1664498786549302
    Total Energy =                       -473.2822859155266997
  Basis Set: (AUG-CC-PVTZ AUX)
    Blend: AUG-CC-PVTZ-RI
    Molecular point group: c1

    Geometry (in Angstrom), charge = -1, multiplicity = 1:

       Center              X                  Y                   Z               Mass
    ------------   -----------------  -----------------  -----------------  -----------------
         O            1.660565074756    -1.434369774205    -0.009809398414    15.994914619570
         O           -2.369218925244     1.409432225795    -0.017370398414    15.994914619570
         O           -3.431932925244    -0.592121774205    -0.028771398414    15.994914619570
         N            0.090543074756     0.229021225795     0.013896601586    14.003074004430
         C            2.432404074756     0.852582225795    -0.000019398414    12.000000000000
         C            1.361266974756    -0.219811774205     0.024437401586    12.000000000000
         C           -1.043707925244    -0.631684774205     0.016140601586    12.000000000000
         C            3.821668074756     0.248321225795    -0.013377398414    12.000000000000
         C           -2.402199925244     0.143431225795     0.030398601586    12.000000000000
         H            2.285362274756     1.521491225795    -0.859017298414     1.007825032230
         H            2.282891074756     1.502450225795     0.872932601586     1.007825032230
         H           -1.046563925244    -1.292420774205    -0.858976398414     1.007825032230
         H           -1.034404925244    -1.303195774205     0.883002601586     1.007825032230
         H           -0.177874925244     1.211148225795     0.022073601586     1.007825032230
         H            3.971566074756    -0.378517774205     0.866180601586     1.007825032230
         H            3.958260074756    -0.369626774205    -0.901441398414     1.007825032230
         H            4.572140074756     1.042293225795    -0.015445398414     1.007825032230

  Basis Set: AUG-CC-PVTZ
    Blend: AUG-CC-PVTZ
  Basis Set: (AUG-CC-PVTZ AUX)
    Blend: AUG-CC-PVTZ-JKFIT
	 Reference Energy          =    -473.2822859155266997 [Eh]
	 Singles Energy            =      -0.0000000000000000 [Eh]
	 Same-Spin Energy          =      -0.4760096156129357 [Eh]
	 Opposite-Spin Energy      =      -1.4651063481854738 [Eh]
	 Correlation Energy        =      -1.9411159637984094 [Eh]
	 Total Energy              =    -475.2234018793250812 [Eh]

	 ================> DF-SCS-MP2 Energies <==================
	-----------------------------------------------------------
	 SCS Same-Spin Scale       =       0.3333333333333333 [-]
	 SCS Opposite-Spin Scale   =       1.2000000000000000 [-]
	 SCS Same-Spin Energy      =      -0.1586698718709786 [Eh]
	 SCS Opposite-Spin Energy  =      -1.7581276178225684 [Eh]
	 SCS Correlation Energy    =      -1.9167974896935469 [Eh]
	 SCS Total Energy          =    -475.1990834052202217 [Eh]
	-----------------------------------------------------------

  Dipole Moment: [D]
     X:    10.0157      Y:     1.4925      Z:     0.1565     Total:    10.1275

*** Psi4 exiting successfully. Buy a developer a beer!
