                               Psi4 1.3.2 release

  ==> Input File <==

--------------------------------------------------------------------------
#psi4
#
memory 32 gb

molecule  {
-1 1
  O        1.5553730    -1.4489990    -0.0078940
  O       -2.4744110     1.3948030    -0.0154550
  O       -3.5371250    -0.6067510    -0.0268560
  N       -0.0146490     0.2143920     0.0158120
  C        2.3272120     0.8379530     0.0018960
  C        1.3399461    -0.2569148     0.0035834
  C       -1.1489000    -0.6463140     0.0180560
  C        3.7164760     0.2336920    -0.0114620
  C       -2.5073920     0.1288020     0.0323140
  H        2.1647820     1.4966320    -0.8622200
  H        2.1776990     1.4878210     0.8748480
  H       -1.1517560    -1.3070500    -0.8570610
  H       -1.1395970    -1.3178250     0.8849180
  H       -0.2830670     1.1965190     0.0239890
  H        3.8663740    -0.3931470     0.8680960
  H        3.8530680    -0.3842560    -0.8995260
  H        4.4669480     1.0276640    -0.0135300
units angstrom
no_reorient  #important for SAPT in psi4, default
symmetry c1  #important for SAPT in psi4, default
}

set PROPERTIES_ORIGIN ["COM"]
properties('MP2/aug-cc-pvtz', properties = ['dipole'])
--------------------------------------------------------------------------

    Molecular point group: c1
  Charge       = -1
  Multiplicity = 1
  Basis Set: AUG-CC-PVTZ
    Blend: AUG-CC-PVTZ
  Basis Set: (AUG-CC-PVTZ AUX)
    Blend: AUG-CC-PVTZ-JKFIT

    Orbital Energies [Eh]
    ---------------------

    Doubly Occupied:

       1A    -20.410920     2A    -20.315011     3A    -20.304296
       4A    -15.431553     5A    -11.234012     6A    -11.157389
       7A    -11.140450     8A    -11.129142     9A    -11.098936
      10A     -1.271335    11A     -1.179958    12A     -1.080238
      13A     -1.066689    14A     -0.965578    15A     -0.824754
      16A     -0.755082    17A     -0.642643    18A     -0.593786
      19A     -0.542093    20A     -0.539789    21A     -0.516252
      22A     -0.477248    23A     -0.473344    24A     -0.430197
      25A     -0.424319    26A     -0.423090    27A     -0.415833
      28A     -0.391310    29A     -0.389316    30A     -0.342597
      31A     -0.316233    32A     -0.243404    33A     -0.227950
      34A     -0.217212    35A     -0.205770

  @DF-RHF Final Energy:  -473.27347333058918

   => Energetics <=

    Nuclear Repulsion Energy =            433.0595045030626693
    One-Electron Energy =               -1518.3104985454058351
    Two-Electron Energy =                 611.9775207117538685
    Total Energy =                       -473.2734733305892405
  Basis Set: (AUG-CC-PVTZ AUX)
    Blend: AUG-CC-PVTZ-RI
    Molecular point group: c1

    Geometry (in Angstrom), charge = -1, multiplicity = 1:

       Center              X                  Y                   Z               Mass
    ------------   -----------------  -----------------  -----------------  -----------------
         O            1.652945370020    -1.432216796505    -0.007668759781    15.994914619570
         O           -2.376838629980     1.411585203495    -0.015229759781    15.994914619570
         O           -3.439552629980    -0.589968796505    -0.026630759781    15.994914619570
         N            0.082923370020     0.231174203495     0.016037240219    14.003074004430
         C            2.424784370020     0.854735203495     0.002121240219    12.000000000000
         C            1.437518470020    -0.240132596505     0.003808640219    12.000000000000
         C           -1.051327629980    -0.629531796505     0.018281240219    12.000000000000
         C            3.814048370020     0.250474203495    -0.011236759781    12.000000000000
         C           -2.409819629980     0.145584203495     0.032539240219    12.000000000000
         H            2.262354370020     1.513414203495    -0.861994759781     1.007825032230
         H            2.275271370020     1.504603203495     0.875073240219     1.007825032230
         H           -1.054183629980    -1.290267796505    -0.856835759781     1.007825032230
         H           -1.042024629980    -1.301042796505     0.885143240219     1.007825032230
         H           -0.185494629980     1.213301203495     0.024214240219     1.007825032230
         H            3.963946370020    -0.376364796505     0.868321240219     1.007825032230
         H            3.950640370020    -0.367473796505    -0.899300759781     1.007825032230
         H            4.564520370020     1.044446203495    -0.013304759781     1.007825032230

  Basis Set: AUG-CC-PVTZ
    Blend: AUG-CC-PVTZ
  Basis Set: (AUG-CC-PVTZ AUX)
    Blend: AUG-CC-PVTZ-JKFIT
	 Reference Energy          =    -473.2734733305891837 [Eh]
	 Singles Energy            =      -0.0000000000000000 [Eh]
	 Same-Spin Energy          =      -0.4759191965552106 [Eh]
	 Opposite-Spin Energy      =      -1.4648527838272809 [Eh]
	 Correlation Energy        =      -1.9407719803824914 [Eh]
	 Total Energy              =    -475.2142453109716485 [Eh]

	 ================> DF-SCS-MP2 Energies <==================
	-----------------------------------------------------------
	 SCS Same-Spin Scale       =       0.3333333333333333 [-]
	 SCS Opposite-Spin Scale   =       1.2000000000000000 [-]
	 SCS Same-Spin Energy      =      -0.1586397321850702 [Eh]
	 SCS Opposite-Spin Energy  =      -1.7578233405927370 [Eh]
	 SCS Correlation Energy    =      -1.9164630727778071 [Eh]
	 SCS Total Energy          =    -475.1899364033669713 [Eh]
	-----------------------------------------------------------

  Dipole Moment: [D]
     X:    10.8670      Y:     1.2642      Z:     0.1277     Total:    10.9410

*** Psi4 exiting successfully. Buy a developer a beer!
