                               Psi4 1.4a3.dev225

  ==> Input File <==

--------------------------------------------------------------------------
#psi4
#
memory 32 gb

molecule  {
-1 1
  O       -1.5186010     1.5599430    -0.1433510
  O        2.2638970    -1.4295650    -0.0456660
  O        3.5317420     0.4486470     0.1950180
  N        0.0040180    -0.1295860    -0.1151350
  C       -2.3384940    -0.6954940    -0.4149760
  C       -1.2465626     0.3244149    -0.2112529
  C        1.1754880     0.7048690     0.0403840
  C       -3.5055210    -0.4701880     0.5431350
  C        2.4465640    -0.1793200     0.0655420
  H       -2.6873130    -0.6028840    -1.4504550
  H       -1.9319890    -1.7056860    -0.3020050
  H        1.2516430     1.4279040    -0.7806770
  H        1.1211640     1.2868180     0.9683990
  H        0.2309340    -1.1197490    -0.1755670
  H       -3.1861080    -0.6022700     1.5809140
  H       -3.8905480     0.5449040     0.4307430
  H       -4.3152940    -1.1768540     0.3431720
units angstrom
no_reorient  #important for SAPT in psi4, default
symmetry c1  #important for SAPT in psi4, default
}

set PROPERTIES_ORIGIN ["COM"]
properties('MP2/aug-cc-pvtz', properties = ['dipole'])
--------------------------------------------------------------------------

    Molecular point group: c1
  Charge       = -1
  Multiplicity = 1
  Basis Set: AUG-CC-PVTZ
    Blend: AUG-CC-PVTZ
  Basis Set: (AUG-CC-PVTZ AUX)
    Blend: AUG-CC-PVTZ-JKFIT

    Orbital Energies [Eh]
    ---------------------

    Doubly Occupied:

       1A    -20.382703     2A    -20.323580     3A    -20.314747
       4A    -15.448284     5A    -11.221805     6A    -11.164926
       7A    -11.135981     8A    -11.128118     9A    -11.110554
      10A     -1.227359    11A     -1.191060    12A     -1.098475
      13A     -1.083288    14A     -0.951009    15A     -0.834435
      16A     -0.762180    17A     -0.654132    18A     -0.586213
      19A     -0.545819    20A     -0.527859    21A     -0.502116
      22A     -0.484988    23A     -0.472634    24A     -0.437680
      25A     -0.428189    26A     -0.419393    27A     -0.405903
      28A     -0.395251    29A     -0.378914    30A     -0.344143
      31A     -0.296637    32A     -0.256495    33A     -0.239841
      34A     -0.227072    35A     -0.217029

  @DF-RHF Final Energy:  -473.28602869221686

   => Energetics <=

    Nuclear Repulsion Energy =            435.2002667914030667
    One-Electron Energy =               -1522.5749733701825335
    Two-Electron Energy =                 614.0886778865626638
    Total Energy =                       -473.2860286922168598
  Basis Set: (AUG-CC-PVTZ AUX)
    Blend: AUG-CC-PVTZ-RI
    Molecular point group: c1

    Geometry (in Angstrom), charge = -1, multiplicity = 1:

       Center              X                  Y                   Z               Mass
    ------------   -----------------  -----------------  -----------------  -----------------
         O           -1.621118083551     1.546908230998    -0.138561007151    15.994914619570
         O            2.161379916449    -1.442599769002    -0.040876007151    15.994914619570
         O            3.429224916449     0.435612230998     0.199807992849    15.994914619570
         N           -0.098499083551    -0.142620769002    -0.110345007151    14.003074004430
         C           -2.441011083551    -0.708528769002    -0.410186007151    12.000000000000
         C           -1.349079683551     0.311380130998    -0.206462907151    12.000000000000
         C            1.072970916449     0.691834230998     0.045173992849    12.000000000000
         C           -3.608038083551    -0.483222769002     0.547924992849    12.000000000000
         C            2.344046916449    -0.192354769002     0.070331992849    12.000000000000
         H           -2.789830083551    -0.615918769002    -1.445665007151     1.007825032230
         H           -2.034506083551    -1.718720769002    -0.297215007151     1.007825032230
         H            1.149125916449     1.414869230998    -0.775887007151     1.007825032230
         H            1.018646916449     1.273783230998     0.973188992849     1.007825032230
         H            0.128416916449    -1.132783769002    -0.170777007151     1.007825032230
         H           -3.288625083551    -0.615304769002     1.585703992849     1.007825032230
         H           -3.993065083551     0.531869230998     0.435532992849     1.007825032230
         H           -4.417811083551    -1.189888769002     0.347961992849     1.007825032230

  Basis Set: AUG-CC-PVTZ
    Blend: AUG-CC-PVTZ
  Basis Set: (AUG-CC-PVTZ AUX)
    Blend: AUG-CC-PVTZ-JKFIT
	 Reference Energy          =    -473.2860286922168598 [Eh]
	 Singles Energy            =      -0.0000000000000000 [Eh]
	 Same-Spin Energy          =      -0.4761868584669718 [Eh]
	 Opposite-Spin Energy      =      -1.4655181344591162 [Eh]
	 Correlation Energy        =      -1.9417049929260881 [Eh]
	 Total Energy              =    -475.2277336851429368 [Eh]

	 ================> DF-SCS-MP2 Energies <==================
	-----------------------------------------------------------
	 SCS Same-Spin Scale       =       0.3333333333333333 [-]
	 SCS Opposite-Spin Scale   =       1.2000000000000000 [-]
	 SCS Same-Spin Energy      =      -0.1587289528223239 [Eh]
	 SCS Opposite-Spin Energy  =      -1.7586217613509394 [Eh]
	 SCS Correlation Energy    =      -1.9173507141732633 [Eh]
	 SCS Total Energy          =    -475.2033794063901269 [Eh]
	-----------------------------------------------------------

  Dipole Moment: [D]
     X:    -9.2821      Y:    -1.2693      Z:    -0.4093     Total:     9.3774

*** Psi4 exiting successfully. Buy a developer a beer!
