                               Psi4 1.4a3.dev225

  ==> Input File <==

--------------------------------------------------------------------------
#psi4
#
memory 32 gb

molecule  {
-1 1
  O       -1.5186010     1.5599430    -0.1433510
  O        2.2638970    -1.4295650    -0.0456660
  O        3.5317420     0.4486470     0.1950180
  N        0.0040180    -0.1295860    -0.1151350
  C       -2.3384940    -0.6954940    -0.4149760
  C       -1.2508570     0.3439190    -0.2101810
  C        1.1754880     0.7048690     0.0403840
  C       -3.5055210    -0.4701880     0.5431350
  C        2.4896115    -0.1544094     0.0706781
  H       -2.6873130    -0.6028840    -1.4504550
  H       -1.9319890    -1.7056860    -0.3020050
  H        1.2516430     1.4279040    -0.7806770
  H        1.1211640     1.2868180     0.9683990
  H        0.2309340    -1.1197490    -0.1755670
  H       -3.1861080    -0.6022700     1.5809140
  H       -3.8905480     0.5449040     0.4307430
  H       -4.3152940    -1.1768540     0.3431720
units angstrom
no_reorient  #important for SAPT in psi4, default
symmetry c1  #important for SAPT in psi4, default
}

set PROPERTIES_ORIGIN ["COM"]
properties('MP2/aug-cc-pvtz', properties = ['dipole'])
--------------------------------------------------------------------------

    Molecular point group: c1
  Charge       = -1
  Multiplicity = 1
  Basis Set: AUG-CC-PVTZ
    Blend: AUG-CC-PVTZ
  Basis Set: (AUG-CC-PVTZ AUX)
    Blend: AUG-CC-PVTZ-JKFIT

    Orbital Energies [Eh]
    ---------------------

    Doubly Occupied:

       1A    -20.384894     2A    -20.325683     3A    -20.312921
       4A    -15.442641     5A    -11.219879     6A    -11.163355
       7A    -11.133688     8A    -11.126510     9A    -11.106113
      10A     -1.236159    11A     -1.204140    12A     -1.101430
      13A     -1.076085    14A     -0.947773    15A     -0.826778
      16A     -0.757334    17A     -0.649428    18A     -0.582287
      19A     -0.544406    20A     -0.525109    21A     -0.499326
      22A     -0.483413    23A     -0.473904    24A     -0.436395
      25A     -0.433028    26A     -0.421305    27A     -0.406347
      28A     -0.393394    29A     -0.381883    30A     -0.349160
      31A     -0.297061    32A     -0.253283    33A     -0.239054
      34A     -0.222778    35A     -0.219251

  @DF-RHF Final Energy:  -473.28629617530208

   => Energetics <=

    Nuclear Repulsion Energy =            435.0371410103980452
    One-Electron Energy =               -1522.2944859265235209
    Two-Electron Energy =                 613.9710487408234485
    Total Energy =                       -473.2862961753020272
  Basis Set: (AUG-CC-PVTZ AUX)
    Blend: AUG-CC-PVTZ-RI
    Molecular point group: c1

    Geometry (in Angstrom), charge = -1, multiplicity = 1:

       Center              X                  Y                   Z               Mass
    ------------   -----------------  -----------------  -----------------  -----------------
         O           -1.624693905964     1.542810001959    -0.139133831146    15.994914619570
         O            2.157804094036    -1.446697998041    -0.041448831146    15.994914619570
         O            3.425649094036     0.431514001959     0.199235168854    15.994914619570
         N           -0.102074905964    -0.146718998041    -0.110917831146    14.003074004430
         C           -2.444586905964    -0.712626998041    -0.410758831146    12.000000000000
         C           -1.356949905964     0.326786001959    -0.205963831146    12.000000000000
         C            1.069395094036     0.687736001959     0.044601168854    12.000000000000
         C           -3.611613905964    -0.487320998041     0.547352168854    12.000000000000
         C            2.383518594036    -0.171542398041     0.074895268854    12.000000000000
         H           -2.793405905964    -0.620016998041    -1.446237831146     1.007825032230
         H           -2.038081905964    -1.722818998041    -0.297787831146     1.007825032230
         H            1.145550094036     1.410771001959    -0.776459831146     1.007825032230
         H            1.015071094036     1.269685001959     0.972616168854     1.007825032230
         H            0.124841094036    -1.136881998041    -0.171349831146     1.007825032230
         H           -3.292200905964    -0.619402998041     1.585131168854     1.007825032230
         H           -3.996640905964     0.527771001959     0.434960168854     1.007825032230
         H           -4.421386905964    -1.193986998041     0.347389168854     1.007825032230

  Basis Set: AUG-CC-PVTZ
    Blend: AUG-CC-PVTZ
  Basis Set: (AUG-CC-PVTZ AUX)
    Blend: AUG-CC-PVTZ-JKFIT
	 Reference Energy          =    -473.2862961753020841 [Eh]
	 Singles Energy            =      -0.0000000000000000 [Eh]
	 Same-Spin Energy          =      -0.4754527876092672 [Eh]
	 Opposite-Spin Energy      =      -1.4639896673207042 [Eh]
	 Correlation Energy        =      -1.9394424549299716 [Eh]
	 Total Energy              =    -475.2257386302320583 [Eh]

	 ================> DF-SCS-MP2 Energies <==================
	-----------------------------------------------------------
	 SCS Same-Spin Scale       =       0.3333333333333333 [-]
	 SCS Opposite-Spin Scale   =       1.2000000000000000 [-]
	 SCS Same-Spin Energy      =      -0.1584842625364224 [Eh]
	 SCS Opposite-Spin Energy  =      -1.7567876007848451 [Eh]
	 SCS Correlation Energy    =      -1.9152718633212675 [Eh]
	 SCS Total Energy          =    -475.2015680386233498 [Eh]
	-----------------------------------------------------------

  Dipole Moment: [D]
     X:    -8.9287      Y:    -0.8324      Z:    -0.3562     Total:     8.9745

*** Psi4 exiting successfully. Buy a developer a beer!
