                               Psi4 1.3.2 release

  ==> Input File <==

--------------------------------------------------------------------------
#psi4
#
memory 32 gb

molecule  {
-1 1
  O        1.5553730    -1.4489990    -0.0078940
  O       -2.4744110     1.3948030    -0.0154550
  O       -3.5371250    -0.6067510    -0.0268560
  N       -0.0146490     0.2143920     0.0158120
  C        2.3272120     0.8379530     0.0018960
  C        1.2455030    -0.2240550     0.0044360
  C       -1.1489000    -0.6463140     0.0180560
  C        3.7216494     0.2466611    -0.0339170
  C       -2.5073920     0.1288020     0.0323140
  H        2.1825922     1.4928546    -0.8682345
  H        2.1776990     1.4878210     0.8748480
  H       -1.1517560    -1.3070500    -0.8570610
  H       -1.1395970    -1.3178250     0.8849180
  H       -0.2830670     1.1965190     0.0239890
  H        3.8663740    -0.3931470     0.8680960
  H        3.8530680    -0.3842560    -0.8995260
  H        4.4669480     1.0276640    -0.0135300
units angstrom
no_reorient  #important for SAPT in psi4, default
symmetry c1  #important for SAPT in psi4, default
}

set PROPERTIES_ORIGIN ["COM"]
properties('MP2/aug-cc-pvtz', properties = ['dipole'])
--------------------------------------------------------------------------

    Molecular point group: c1
  Charge       = -1
  Multiplicity = 1
  Basis Set: AUG-CC-PVTZ
    Blend: AUG-CC-PVTZ
  Basis Set: (AUG-CC-PVTZ AUX)
    Blend: AUG-CC-PVTZ-JKFIT

    Orbital Energies [Eh]
    ---------------------

    Doubly Occupied:

       1A    -20.391568     2A    -20.322541     3A    -20.310867
       4A    -15.451438     5A    -11.227940     6A    -11.164796
       7A    -11.137571     8A    -11.123896     9A    -11.108993
      10A     -1.235295    11A     -1.187036    12A     -1.102493
      13A     -1.082444    14A     -0.952650    15A     -0.836441
      16A     -0.758387    17A     -0.660323    18A     -0.590263
      19A     -0.545236    20A     -0.534882    21A     -0.507238
      22A     -0.484012    23A     -0.476387    24A     -0.427270
      25A     -0.425837    26A     -0.418079    27A     -0.409303
      28A     -0.397328    29A     -0.379471    30A     -0.344107
      31A     -0.303487    32A     -0.257878    33A     -0.235311
      34A     -0.224884    35A     -0.213252

  @DF-RHF Final Energy:  -473.28106065112945

   => Energetics <=

    Nuclear Repulsion Energy =            433.2857373048946101
    One-Electron Energy =               -1518.6757936870335470
    Two-Electron Energy =                 612.1089957310094860
    Total Energy =                       -473.2810606511294509
  Basis Set: (AUG-CC-PVTZ AUX)
    Blend: AUG-CC-PVTZ-RI
    Molecular point group: c1

    Geometry (in Angstrom), charge = -1, multiplicity = 1:

       Center              X                  Y                   Z               Mass
    ------------   -----------------  -----------------  -----------------  -----------------
         O            1.661044435366    -1.436416243532    -0.005628855816    15.994914619570
         O           -2.368739564634     1.407385756468    -0.013189855816    15.994914619570
         O           -3.431453564634    -0.594168243532    -0.024590855816    15.994914619570
         N            0.091022435366     0.226974756468     0.018077144184    14.003074004430
         C            2.432883435366     0.850535756468     0.004161144184    12.000000000000
         C            1.351174435366    -0.211472243532     0.006701144184    12.000000000000
         C           -1.043228564634    -0.633731243532     0.020321144184    12.000000000000
         C            3.827320835366     0.259243856468    -0.031651855816    12.000000000000
         C           -2.401720564634     0.141384756468     0.034579144184    12.000000000000
         H            2.288263635366     1.505437356468    -0.865969355816     1.007825032230
         H            2.283370435366     1.500403756468     0.877113144184     1.007825032230
         H           -1.046084564634    -1.294467243532    -0.854795855816     1.007825032230
         H           -1.033925564634    -1.305242243532     0.887183144184     1.007825032230
         H           -0.177395564634     1.209101756468     0.026254144184     1.007825032230
         H            3.972045435366    -0.380564243532     0.870361144184     1.007825032230
         H            3.958739435366    -0.371673243532    -0.897260855816     1.007825032230
         H            4.572619435366     1.040246756468    -0.011264855816     1.007825032230

  Basis Set: AUG-CC-PVTZ
    Blend: AUG-CC-PVTZ
  Basis Set: (AUG-CC-PVTZ AUX)
    Blend: AUG-CC-PVTZ-JKFIT
	 Reference Energy          =    -473.2810606511294509 [Eh]
	 Singles Energy            =      -0.0000000000000000 [Eh]
	 Same-Spin Energy          =      -0.4761695944569306 [Eh]
	 Opposite-Spin Energy      =      -1.4654443042076208 [Eh]
	 Correlation Energy        =      -1.9416138986645515 [Eh]
	 Total Energy              =    -475.2226745497940215 [Eh]

	 ================> DF-SCS-MP2 Energies <==================
	-----------------------------------------------------------
	 SCS Same-Spin Scale       =       0.3333333333333333 [-]
	 SCS Opposite-Spin Scale   =       1.2000000000000000 [-]
	 SCS Same-Spin Energy      =      -0.1587231981523102 [Eh]
	 SCS Opposite-Spin Energy  =      -1.7585331650491449 [Eh]
	 SCS Correlation Energy    =      -1.9172563632014552 [Eh]
	 SCS Total Energy          =    -475.1983170143308826 [Eh]
	-----------------------------------------------------------

  Dipole Moment: [D]
     X:     9.8973      Y:     1.5759      Z:     0.1161     Total:    10.0227

*** Psi4 exiting successfully. Buy a developer a beer!
