                               Psi4 1.3.2 release

  ==> Input File <==

--------------------------------------------------------------------------
#psi4
#
memory 32 gb

molecule  {
-1 1
  O        1.5553730    -1.4489990    -0.0078940
  O       -2.4744110     1.3948030    -0.0154550
  O       -3.5371250    -0.6067510    -0.0268560
  N       -0.0146490     0.2143920     0.0158120
  C        2.3272120     0.8379530     0.0018960
  C        1.2362770    -0.2145752     0.0045528
  C       -1.1489000    -0.6463140     0.0180560
  C        3.7216966     0.2458388    -0.0114382
  C       -2.5073920     0.1288020     0.0323140
  H        2.1647820     1.4966320    -0.8622200
  H        2.1776990     1.4878210     0.8748480
  H       -1.1517560    -1.3070500    -0.8570610
  H       -1.1395970    -1.3178250     0.8849180
  H       -0.2830670     1.1965190     0.0239890
  H        3.8663740    -0.3931470     0.8680960
  H        3.8530680    -0.3842560    -0.8995260
  H        4.4669480     1.0276640    -0.0135300
units angstrom
no_reorient  #important for SAPT in psi4, default
symmetry c1  #important for SAPT in psi4, default
}

set PROPERTIES_ORIGIN ["COM"]
properties('MP2/aug-cc-pvtz', properties = ['dipole'])
--------------------------------------------------------------------------

    Molecular point group: c1
  Charge       = -1
  Multiplicity = 1
  Basis Set: AUG-CC-PVTZ
    Blend: AUG-CC-PVTZ
  Basis Set: (AUG-CC-PVTZ AUX)
    Blend: AUG-CC-PVTZ-JKFIT

    Orbital Energies [Eh]
    ---------------------

    Doubly Occupied:

       1A    -20.388366     2A    -20.323451     3A    -20.311691
       4A    -15.453924     5A    -11.227101     6A    -11.165721
       7A    -11.137635     8A    -11.123732     9A    -11.110306
      10A     -1.229576    11A     -1.187715    12A     -1.104817
      13A     -1.083471    14A     -0.951995    15A     -0.838827
      16A     -0.759525    17A     -0.662690    18A     -0.589969
      19A     -0.545644    20A     -0.534349    21A     -0.506991
      22A     -0.484972    23A     -0.474399    24A     -0.428041
      25A     -0.425889    26A     -0.414714    27A     -0.412046
      28A     -0.397255    29A     -0.378610    30A     -0.343398
      31A     -0.301068    32A     -0.258834    33A     -0.236183
      34A     -0.225837    35A     -0.214136

  @DF-RHF Final Energy:  -473.28020956412797

   => Energetics <=

    Nuclear Repulsion Energy =            433.3247050501017839
    One-Electron Energy =               -1518.7440731390422570
    Two-Electron Energy =                 612.1391585248125011
    Total Energy =                       -473.2802095641279720
  Basis Set: (AUG-CC-PVTZ AUX)
    Blend: AUG-CC-PVTZ-RI
    Molecular point group: c1

    Geometry (in Angstrom), charge = -1, multiplicity = 1:

       Center              X                  Y                   Z               Mass
    ------------   -----------------  -----------------  -----------------  -----------------
         O            1.662029400791    -1.437244360502    -0.007760404239    15.994914619570
         O           -2.367754599209     1.406557639498    -0.015321404239    15.994914619570
         O           -3.430468599209    -0.594996360502    -0.026722404239    15.994914619570
         N            0.092007400791     0.226146639498     0.015945595761    14.003074004430
         C            2.433868400791     0.849707639498     0.002029595761    12.000000000000
         C            1.342933400791    -0.202820560502     0.004686395761    12.000000000000
         C           -1.042243599209    -0.634559360502     0.018189595761    12.000000000000
         C            3.828353000791     0.257593439498    -0.011304604239    12.000000000000
         C           -2.400735599209     0.140556639498     0.032447595761    12.000000000000
         H            2.271438400791     1.508386639498    -0.862086404239     1.007825032230
         H            2.284355400791     1.499575639498     0.874981595761     1.007825032230
         H           -1.045099599209    -1.295295360502    -0.856927404239     1.007825032230
         H           -1.032940599209    -1.306070360502     0.885051595761     1.007825032230
         H           -0.176410599209     1.208273639498     0.024122595761     1.007825032230
         H            3.973030400791    -0.381392360502     0.868229595761     1.007825032230
         H            3.959724400791    -0.372501360502    -0.899392404239     1.007825032230
         H            4.573604400791     1.039418639498    -0.013396404239     1.007825032230

  Basis Set: AUG-CC-PVTZ
    Blend: AUG-CC-PVTZ
  Basis Set: (AUG-CC-PVTZ AUX)
    Blend: AUG-CC-PVTZ-JKFIT
	 Reference Energy          =    -473.2802095641279720 [Eh]
	 Singles Energy            =      -0.0000000000000000 [Eh]
	 Same-Spin Energy          =      -0.4763235619655176 [Eh]
	 Opposite-Spin Energy      =      -1.4657268737673701 [Eh]
	 Correlation Energy        =      -1.9420504357328876 [Eh]
	 Total Energy              =    -475.2222599998608530 [Eh]

	 ================> DF-SCS-MP2 Energies <==================
	-----------------------------------------------------------
	 SCS Same-Spin Scale       =       0.3333333333333333 [-]
	 SCS Opposite-Spin Scale   =       1.2000000000000000 [-]
	 SCS Same-Spin Energy      =      -0.1587745206551725 [Eh]
	 SCS Opposite-Spin Energy  =      -1.7588722485208441 [Eh]
	 SCS Correlation Energy    =      -1.9176467691760166 [Eh]
	 SCS Total Energy          =    -475.1978563333040029 [Eh]
	-----------------------------------------------------------

  Dipole Moment: [D]
     X:     9.7913      Y:     1.6432      Z:     0.1378     Total:     9.9292

*** Psi4 exiting successfully. Buy a developer a beer!
