                               Psi4 1.3.2 release

  ==> Input File <==

--------------------------------------------------------------------------
#psi4
#
memory 32 gb

molecule  {
-1 1
  O        1.5553730    -1.4489990    -0.0078940
  O       -2.4744110     1.3948030    -0.0154550
  O       -3.5371250    -0.6067510    -0.0268560
  N       -0.0146490     0.2143920     0.0158120
  C        2.3272120     0.8379530     0.0018960
  C        1.2455030    -0.2240550     0.0044360
  C       -1.1923887    -0.5857741     0.0187452
  C        3.7164760     0.2336920    -0.0114620
  C       -2.5073920     0.1288020     0.0323140
  H        2.1647820     1.4966320    -0.8622200
  H        2.1776990     1.4878210     0.8748480
  H       -1.1517560    -1.3070500    -0.8570610
  H       -1.1395970    -1.3178250     0.8849180
  H       -0.3341002     1.1811228     0.0242404
  H        3.8663740    -0.3931470     0.8680960
  H        3.8530680    -0.3842560    -0.8995260
  H        4.4669480     1.0276640    -0.0135300
units angstrom
no_reorient  #important for SAPT in psi4, default
symmetry c1  #important for SAPT in psi4, default
}

set PROPERTIES_ORIGIN ["COM"]
properties('MP2/aug-cc-pvtz', properties = ['dipole'])
--------------------------------------------------------------------------

    Molecular point group: c1
  Charge       = -1
  Multiplicity = 1
  Basis Set: AUG-CC-PVTZ
    Blend: AUG-CC-PVTZ
  Basis Set: (AUG-CC-PVTZ AUX)
    Blend: AUG-CC-PVTZ-JKFIT

    Orbital Energies [Eh]
    ---------------------

    Doubly Occupied:

       1A    -20.392334     2A    -20.322856     3A    -20.311036
       4A    -15.451342     5A    -11.230184     6A    -11.162840
       7A    -11.137915     8A    -11.124255     9A    -11.114353
      10A     -1.235635    11A     -1.190713    12A     -1.103634
      13A     -1.083601    14A     -0.952913    15A     -0.840487
      16A     -0.760878    17A     -0.663162    18A     -0.595891
      19A     -0.552507    20A     -0.535039    21A     -0.503178
      22A     -0.478825    23A     -0.475367    24A     -0.430610
      25A     -0.426217    26A     -0.416405    27A     -0.414490
      28A     -0.389527    29A     -0.381227    30A     -0.338290
      31A     -0.304470    32A     -0.252895    33A     -0.239222
      34A     -0.230102    35A     -0.213782

  @DF-RHF Final Energy:  -473.27428682370453

   => Energetics <=

    Nuclear Repulsion Energy =            433.9928329354887069
    One-Electron Energy =               -1520.0218779488222935
    Two-Electron Energy =                 612.7547581896291149
    Total Energy =                       -473.2742868237045286
  Basis Set: (AUG-CC-PVTZ AUX)
    Blend: AUG-CC-PVTZ-RI
    Molecular point group: c1

    Geometry (in Angstrom), charge = -1, multiplicity = 1:

       Center              X                  Y                   Z               Mass
    ------------   -----------------  -----------------  -----------------  -----------------
         O            1.666068081666    -1.440715652104    -0.007812972829    15.994914619570
         O           -2.363715918334     1.403086347896    -0.015373972829    15.994914619570
         O           -3.426429918334    -0.598467652104    -0.026774972829    15.994914619570
         N            0.096046081666     0.222675347896     0.015893027171    14.003074004430
         C            2.437907081666     0.846236347896     0.001977027171    12.000000000000
         C            1.356198081666    -0.215771652104     0.004517027171    12.000000000000
         C           -1.081693618334    -0.577490752104     0.018826227171    12.000000000000
         C            3.827171081666     0.241975347896    -0.011380972829    12.000000000000
         C           -2.396696918334     0.137085347896     0.032395027171    12.000000000000
         H            2.275477081666     1.504915347896    -0.862138972829     1.007825032230
         H            2.288394081666     1.496104347896     0.874929027171     1.007825032230
         H           -1.041060918334    -1.298766652104    -0.856979972829     1.007825032230
         H           -1.028901918334    -1.309541652104     0.884999027171     1.007825032230
         H           -0.223405118334     1.189406147896     0.024321427171     1.007825032230
         H            3.977069081666    -0.384863652104     0.868177027171     1.007825032230
         H            3.963763081666    -0.375972652104    -0.899444972829     1.007825032230
         H            4.577643081666     1.035947347896    -0.013448972829     1.007825032230

  Basis Set: AUG-CC-PVTZ
    Blend: AUG-CC-PVTZ
  Basis Set: (AUG-CC-PVTZ AUX)
    Blend: AUG-CC-PVTZ-JKFIT
	 Reference Energy          =    -473.2742868237045286 [Eh]
	 Singles Energy            =      -0.0000000000000000 [Eh]
	 Same-Spin Energy          =      -0.4768317725245813 [Eh]
	 Opposite-Spin Energy      =      -1.4664694128772049 [Eh]
	 Correlation Energy        =      -1.9433011854017863 [Eh]
	 Total Energy              =    -475.2175880091062936 [Eh]

	 ================> DF-SCS-MP2 Energies <==================
	-----------------------------------------------------------
	 SCS Same-Spin Scale       =       0.3333333333333333 [-]
	 SCS Opposite-Spin Scale   =       1.2000000000000000 [-]
	 SCS Same-Spin Energy      =      -0.1589439241748604 [Eh]
	 SCS Opposite-Spin Energy  =      -1.7597632954526459 [Eh]
	 SCS Correlation Energy    =      -1.9187072196275063 [Eh]
	 SCS Total Energy          =    -475.1929940433320212 [Eh]
	-----------------------------------------------------------

  Dipole Moment: [D]
     X:     9.8694      Y:     1.5765      Z:     0.1365     Total:     9.9954

*** Psi4 exiting successfully. Buy a developer a beer!
