                               Psi4 1.3.2 release

  ==> Input File <==

--------------------------------------------------------------------------
#psi4
#
memory 32 gb

molecule  {
-1 1
  O        1.5553730    -1.4489990    -0.0078940
  O       -2.4744110     1.3948030    -0.0154550
  O       -3.5371250    -0.6067510    -0.0268560
  N       -0.0146490     0.2143920     0.0158120
  C        2.3272120     0.8379530     0.0018960
  C        1.2455030    -0.2240550     0.0044360
  C       -1.1489000    -0.6463140     0.0180560
  C        3.7164760     0.2336920    -0.0114620
  C       -2.5021872     0.3285921     0.0247755
  H        2.1647820     1.4966320    -0.8622200
  H        2.1776990     1.4878210     0.8748480
  H       -1.1517560    -1.3070500    -0.8570610
  H       -1.1395970    -1.3178250     0.8849180
  H       -0.2830670     1.1965190     0.0239890
  H        3.8663740    -0.3931470     0.8680960
  H        3.8530680    -0.3842560    -0.8995260
  H        4.4669480     1.0276640    -0.0135300
units angstrom
no_reorient  #important for SAPT in psi4, default
symmetry c1  #important for SAPT in psi4, default
}

set PROPERTIES_ORIGIN ["COM"]
properties('MP2/aug-cc-pvtz', properties = ['dipole'])
--------------------------------------------------------------------------

    Molecular point group: c1
  Charge       = -1
  Multiplicity = 1
  Basis Set: AUG-CC-PVTZ
    Blend: AUG-CC-PVTZ
  Basis Set: (AUG-CC-PVTZ AUX)
    Blend: AUG-CC-PVTZ-JKFIT

    Orbital Energies [Eh]
    ---------------------

    Doubly Occupied:

       1A    -20.389073     2A    -20.370046     3A    -20.274760
       4A    -15.448303     5A    -11.224419     6A    -11.157415
       7A    -11.136762     8A    -11.123450     9A    -11.094097
      10A     -1.324713    11A     -1.231851    12A     -1.099400
      13A     -1.027616    14A     -0.951260    15A     -0.823569
      16A     -0.746680    17A     -0.659184    18A     -0.584573
      19A     -0.558006    20A     -0.533993    21A     -0.512175
      22A     -0.491554    23A     -0.481596    24A     -0.452999
      25A     -0.438659    26A     -0.423091    27A     -0.416892
      28A     -0.404864    29A     -0.403606    30A     -0.361562
      31A     -0.300230    32A     -0.253841    33A     -0.224344
      34A     -0.195131    35A     -0.181826

  @DF-RHF Final Energy:  -473.21077017959010

   => Energetics <=

    Nuclear Repulsion Energy =            434.3397585649733514
    One-Electron Energy =               -1520.4979755623144229
    Two-Electron Energy =                 612.9474468177509152
    Total Energy =                       -473.2107701795900994
  Basis Set: (AUG-CC-PVTZ AUX)
    Blend: AUG-CC-PVTZ-RI
    Molecular point group: c1

    Geometry (in Angstrom), charge = -1, multiplicity = 1:

       Center              X                  Y                   Z               Mass
    ------------   -----------------  -----------------  -----------------  -----------------
         O            1.661179558079    -1.453683846287    -0.007051839043    15.994914619570
         O           -2.368604441921     1.390118153713    -0.014612839043    15.994914619570
         O           -3.431318441921    -0.611435846287    -0.026013839043    15.994914619570
         N            0.091157558079     0.209707153713     0.016654160957    14.003074004430
         C            2.433018558079     0.833268153713     0.002738160957    12.000000000000
         C            1.351309558079    -0.228739846287     0.005278160957    12.000000000000
         C           -1.043093441921    -0.650998846287     0.018898160957    12.000000000000
         C            3.822282558079     0.229007153713    -0.010619839043    12.000000000000
         C           -2.396380641921     0.323907253713     0.025617660957    12.000000000000
         H            2.270588558079     1.491947153713    -0.861377839043     1.007825032230
         H            2.283505558079     1.483136153713     0.875690160957     1.007825032230
         H           -1.045949441921    -1.311734846287    -0.856218839043     1.007825032230
         H           -1.033790441921    -1.322509846287     0.885760160957     1.007825032230
         H           -0.177260441921     1.191834153713     0.024831160957     1.007825032230
         H            3.972180558079    -0.397831846287     0.868938160957     1.007825032230
         H            3.958874558079    -0.388940846287    -0.898683839043     1.007825032230
         H            4.572754558079     1.022979153713    -0.012687839043     1.007825032230

  Basis Set: AUG-CC-PVTZ
    Blend: AUG-CC-PVTZ
  Basis Set: (AUG-CC-PVTZ AUX)
    Blend: AUG-CC-PVTZ-JKFIT
	 Reference Energy          =    -473.2107701795900994 [Eh]
	 Singles Energy            =      -0.0000000000000000 [Eh]
	 Same-Spin Energy          =      -0.4749216679545658 [Eh]
	 Opposite-Spin Energy      =      -1.4628586900035179 [Eh]
	 Correlation Energy        =      -1.9377803579580837 [Eh]
	 Total Energy              =    -475.1485505375482035 [Eh]

	 ================> DF-SCS-MP2 Energies <==================
	-----------------------------------------------------------
	 SCS Same-Spin Scale       =       0.3333333333333333 [-]
	 SCS Opposite-Spin Scale   =       1.2000000000000000 [-]
	 SCS Same-Spin Energy      =      -0.1583072226515219 [Eh]
	 SCS Opposite-Spin Energy  =      -1.7554304280042214 [Eh]
	 SCS Correlation Energy    =      -1.9137376506557433 [Eh]
	 SCS Total Energy          =    -475.1245078302458182 [Eh]
	-----------------------------------------------------------

  Dipole Moment: [D]
     X:    10.3664      Y:     3.5210      Z:     0.1372     Total:    10.9489

*** Psi4 exiting successfully. Buy a developer a beer!
