                               Psi4 1.3.2 release

  ==> Input File <==

--------------------------------------------------------------------------
#psi4
#
memory 32 gb

molecule  {
-1 1
  O        1.5553730    -1.4489990    -0.0078940
  O       -2.5186233     1.3952340    -0.0140758
  O       -3.5371250    -0.6067510    -0.0268560
  N       -0.0146490     0.2143920     0.0158120
  C        2.3272120     0.8379530     0.0018960
  C        1.2455030    -0.2240550     0.0044360
  C       -1.1767285    -0.6932124     0.0206652
  C        3.7164760     0.2336920    -0.0114620
  C       -2.5073920     0.1288020     0.0323140
  H        2.1647820     1.4966320    -0.8622200
  H        2.1776990     1.4878210     0.8748480
  H       -1.1517560    -1.3070500    -0.8570610
  H       -1.1395970    -1.3178250     0.8849180
  H       -0.2830670     1.1965190     0.0239890
  H        3.8663740    -0.3931470     0.8680960
  H        3.8530680    -0.3842560    -0.8995260
  H        4.4669480     1.0276640    -0.0135300
units angstrom
no_reorient  #important for SAPT in psi4, default
symmetry c1  #important for SAPT in psi4, default
}

set PROPERTIES_ORIGIN ["COM"]
properties('MP2/aug-cc-pvtz', properties = ['dipole'])
--------------------------------------------------------------------------

    Molecular point group: c1
  Charge       = -1
  Multiplicity = 1
  Basis Set: AUG-CC-PVTZ
    Blend: AUG-CC-PVTZ
  Basis Set: (AUG-CC-PVTZ AUX)
    Blend: AUG-CC-PVTZ-JKFIT

    Orbital Energies [Eh]
    ---------------------

    Doubly Occupied:

       1A    -20.390186     2A    -20.322426     3A    -20.307912
       4A    -15.450728     5A    -11.226308     6A    -11.163970
       7A    -11.136776     8A    -11.123608     9A    -11.111945
      10A     -1.233107    11A     -1.186898    12A     -1.093314
      13A     -1.079250    14A     -0.951191    15A     -0.836701
      16A     -0.760825    17A     -0.657396    18A     -0.586765
      19A     -0.540185    20A     -0.534613    21A     -0.506406
      22A     -0.489260    23A     -0.472200    24A     -0.428509
      25A     -0.423442    26A     -0.419630    27A     -0.412597
      28A     -0.395170    29A     -0.380306    30A     -0.347453
      31A     -0.301953    32A     -0.261511    33A     -0.235148
      34A     -0.223265    35A     -0.211111

  @DF-RHF Final Energy:  -473.28005578767312

   => Energetics <=

    Nuclear Repulsion Energy =            432.3035533362113938
    One-Electron Energy =               -1516.7630868072519661
    Two-Electron Energy =                 611.1794776833675087
    Total Energy =                       -473.2800557876731773
  Basis Set: (AUG-CC-PVTZ AUX)
    Blend: AUG-CC-PVTZ-RI
    Molecular point group: c1

    Geometry (in Angstrom), charge = -1, multiplicity = 1:

       Center              X                  Y                   Z               Mass
    ------------   -----------------  -----------------  -----------------  -----------------
         O            1.669665279076    -1.430974436856    -0.008157814620    15.994914619570
         O           -2.404331020924     1.413258563144    -0.014339614620    15.994914619570
         O           -3.422832720924    -0.588726436856    -0.027119814620    15.994914619570
         N            0.099643279076     0.232416563144     0.015548185380    14.003074004430
         C            2.441504279076     0.855977563144     0.001632185380    12.000000000000
         C            1.359795279076    -0.206030436856     0.004172185380    12.000000000000
         C           -1.062436220924    -0.675187836856     0.020401385380    12.000000000000
         C            3.830768279076     0.251716563144    -0.011725814620    12.000000000000
         C           -2.393099720924     0.146826563144     0.032050185380    12.000000000000
         H            2.279074279076     1.514656563144    -0.862483814620     1.007825032230
         H            2.291991279076     1.505845563144     0.874584185380     1.007825032230
         H           -1.037463720924    -1.289025436856    -0.857324814620     1.007825032230
         H           -1.025304720924    -1.299800436856     0.884654185380     1.007825032230
         H           -0.168774720924     1.214543563144     0.023725185380     1.007825032230
         H            3.980666279076    -0.375122436856     0.867832185380     1.007825032230
         H            3.967360279076    -0.366231436856    -0.899789814620     1.007825032230
         H            4.581240279076     1.045688563144    -0.013793814620     1.007825032230

  Basis Set: AUG-CC-PVTZ
    Blend: AUG-CC-PVTZ
  Basis Set: (AUG-CC-PVTZ AUX)
    Blend: AUG-CC-PVTZ-JKFIT
	 Reference Energy          =    -473.2800557876731204 [Eh]
	 Singles Energy            =      -0.0000000000000000 [Eh]
	 Same-Spin Energy          =      -0.4756916448885502 [Eh]
	 Opposite-Spin Energy      =      -1.4652846684322687 [Eh]
	 Correlation Energy        =      -1.9409763133208189 [Eh]
	 Total Energy              =    -475.2210321009939662 [Eh]

	 ================> DF-SCS-MP2 Energies <==================
	-----------------------------------------------------------
	 SCS Same-Spin Scale       =       0.3333333333333333 [-]
	 SCS Opposite-Spin Scale   =       1.2000000000000000 [-]
	 SCS Same-Spin Energy      =      -0.1585638816295167 [Eh]
	 SCS Opposite-Spin Energy  =      -1.7583416021187224 [Eh]
	 SCS Correlation Energy    =      -1.9169054837482391 [Eh]
	 SCS Total Energy          =    -475.1969612714213440 [Eh]
	-----------------------------------------------------------

  Dipole Moment: [D]
     X:     9.9001      Y:     1.4594      Z:     0.1412     Total:    10.0081

*** Psi4 exiting successfully. Buy a developer a beer!
