                               Psi4 1.3.2 release

  ==> Input File <==

--------------------------------------------------------------------------
#psi4
#
memory 32 gb

molecule  {
-1 1
  O        1.5553730    -1.4489990    -0.0078940
  O       -2.4744110     1.3948030    -0.0154550
  O       -3.5371250    -0.6067510    -0.0268560
  N       -0.0146490     0.2143920     0.0158120
  C        2.3272120     0.8379530     0.0018960
  C        1.2455030    -0.2240550     0.0044360
  C       -1.1489000    -0.6463140     0.0180560
  C        3.7048614     0.2083099     0.0334534
  C       -2.5073920     0.1288020     0.0323140
  H        2.1293155     1.5035838    -0.8494033
  H        2.1776990     1.4878210     0.8748480
  H       -1.1517560    -1.3070500    -0.8570610
  H       -1.1395970    -1.3178250     0.8849180
  H       -0.2830670     1.1965190     0.0239890
  H        3.8663740    -0.3931470     0.8680960
  H        3.8530680    -0.3842560    -0.8995260
  H        4.4669480     1.0276640    -0.0135300
units angstrom
no_reorient  #important for SAPT in psi4, default
symmetry c1  #important for SAPT in psi4, default
}

set PROPERTIES_ORIGIN ["COM"]
properties('MP2/aug-cc-pvtz', properties = ['dipole'])
--------------------------------------------------------------------------

    Molecular point group: c1
  Charge       = -1
  Multiplicity = 1
  Basis Set: AUG-CC-PVTZ
    Blend: AUG-CC-PVTZ
  Basis Set: (AUG-CC-PVTZ AUX)
    Blend: AUG-CC-PVTZ-JKFIT

    Orbital Energies [Eh]
    ---------------------

    Doubly Occupied:

       1A    -20.391239     2A    -20.322483     3A    -20.310775
       4A    -15.450901     5A    -11.226834     6A    -11.164681
       7A    -11.137868     8A    -11.125308     9A    -11.108751
      10A     -1.235186    11A     -1.186956    12A     -1.102255
      13A     -1.082354    14A     -0.952747    15A     -0.836405
      16A     -0.759539    17A     -0.660177    18A     -0.589658
      19A     -0.544213    20A     -0.536577    21A     -0.507498
      22A     -0.485565    23A     -0.471814    24A     -0.435381
      25A     -0.423292    26A     -0.418333    27A     -0.408048
      28A     -0.394854    29A     -0.379439    30A     -0.343933
      31A     -0.303017    32A     -0.257751    33A     -0.235238
      34A     -0.224737    35A     -0.213182

  @DF-RHF Final Energy:  -473.27777375405549

   => Energetics <=

    Nuclear Repulsion Energy =            433.5956773720690194
    One-Electron Energy =               -1519.2929225941231834
    Two-Electron Energy =                 612.4194714679986191
    Total Energy =                       -473.2777737540554881
  Basis Set: (AUG-CC-PVTZ AUX)
    Blend: AUG-CC-PVTZ-RI
    Molecular point group: c1

    Geometry (in Angstrom), charge = -1, multiplicity = 1:

       Center              X                  Y                   Z               Mass
    ------------   -----------------  -----------------  -----------------  -----------------
         O            1.663006363636    -1.432960651076    -0.011991183340    15.994914619570
         O           -2.366777636364     1.410841348924    -0.019552183340    15.994914619570
         O           -3.429491636364    -0.590712651076    -0.030953183340    15.994914619570
         N            0.092984363636     0.230430348924     0.011714816660    14.003074004430
         C            2.434845363636     0.853991348924    -0.002201183340    12.000000000000
         C            1.353136363636    -0.208016651076     0.000338816660    12.000000000000
         C           -1.041266636364    -0.630275651076     0.013958816660    12.000000000000
         C            3.812494763636     0.224348248924     0.029356216660    12.000000000000
         C           -2.399758636364     0.144840348924     0.028216816660    12.000000000000
         H            2.236948863636     1.519622148924    -0.853500483340     1.007825032230
         H            2.285332363636     1.503859348924     0.870750816660     1.007825032230
         H           -1.044122636364    -1.291011651076    -0.861158183340     1.007825032230
         H           -1.031963636364    -1.301786651076     0.880820816660     1.007825032230
         H           -0.175433636364     1.212557348924     0.019891816660     1.007825032230
         H            3.974007363636    -0.377108651076     0.863998816660     1.007825032230
         H            3.960701363636    -0.368217651076    -0.903623183340     1.007825032230
         H            4.574581363636     1.043702348924    -0.017627183340     1.007825032230

  Basis Set: AUG-CC-PVTZ
    Blend: AUG-CC-PVTZ
  Basis Set: (AUG-CC-PVTZ AUX)
    Blend: AUG-CC-PVTZ-JKFIT
	 Reference Energy          =    -473.2777737540554881 [Eh]
	 Singles Energy            =      -0.0000000000000000 [Eh]
	 Same-Spin Energy          =      -0.4762413982706140 [Eh]
	 Opposite-Spin Energy      =      -1.4655310897345259 [Eh]
	 Correlation Energy        =      -1.9417724880051399 [Eh]
	 Total Energy              =    -475.2195462420606304 [Eh]

	 ================> DF-SCS-MP2 Energies <==================
	-----------------------------------------------------------
	 SCS Same-Spin Scale       =       0.3333333333333333 [-]
	 SCS Opposite-Spin Scale   =       1.2000000000000000 [-]
	 SCS Same-Spin Energy      =      -0.1587471327568713 [Eh]
	 SCS Opposite-Spin Energy  =      -1.7586373076814310 [Eh]
	 SCS Correlation Energy    =      -1.9173844404383023 [Eh]
	 SCS Total Energy          =    -475.1951581944937857 [Eh]
	-----------------------------------------------------------

  Dipole Moment: [D]
     X:     9.8808      Y:     1.5407      Z:     0.1741     Total:    10.0017

*** Psi4 exiting successfully. Buy a developer a beer!
