                               Psi4 1.4a3.dev225

  ==> Input File <==

--------------------------------------------------------------------------
#psi4
#
memory 32 gb

molecule  {
-1 1
  O       -1.5186010     1.5599430    -0.1433510
  O        2.2638970    -1.4295650    -0.0456660
  O        3.5317420     0.4486470     0.1950180
  N        0.0040180    -0.1295860    -0.1151350
  C       -2.3384940    -0.6954940    -0.4149760
  C       -1.2508570     0.3439190    -0.2101810
  C        1.1754880     0.7048690     0.0403840
  C       -3.5055210    -0.4701880     0.5431350
  C        2.4465640    -0.1793200     0.0655420
  H       -2.6873130    -0.6028840    -1.4504550
  H       -1.9319890    -1.7056860    -0.3020050
  H        1.2516430     1.4279040    -0.7806770
  H        1.1211640     1.2868180     0.9683990
  H        0.2264743    -1.1002888    -0.1743793
  H       -3.1861080    -0.6022700     1.5809140
  H       -3.8905480     0.5449040     0.4307430
  H       -4.3152940    -1.1768540     0.3431720
units angstrom
no_reorient  #important for SAPT in psi4, default
symmetry c1  #important for SAPT in psi4, default
}

set PROPERTIES_ORIGIN ["COM"]
properties('MP2/aug-cc-pvtz', properties = ['dipole'])
--------------------------------------------------------------------------

    Molecular point group: c1
  Charge       = -1
  Multiplicity = 1
  Basis Set: AUG-CC-PVTZ
    Blend: AUG-CC-PVTZ
  Basis Set: (AUG-CC-PVTZ AUX)
    Blend: AUG-CC-PVTZ-JKFIT

    Orbital Energies [Eh]
    ---------------------

    Doubly Occupied:

       1A    -20.387453     2A    -20.322222     3A    -20.313618
       4A    -15.443691     5A    -11.222384     6A    -11.163690
       7A    -11.135570     8A    -11.128018     9A    -11.108911
      10A     -1.238844    11A     -1.190221    12A     -1.098509
      13A     -1.082768    14A     -0.949838    15A     -0.831622
      16A     -0.760452    17A     -0.657191    18A     -0.586294
      19A     -0.545424    20A     -0.526975    21A     -0.502402
      22A     -0.485866    23A     -0.475465    24A     -0.437359
      25A     -0.428323    26A     -0.420064    27A     -0.407791
      28A     -0.395514    29A     -0.381012    30A     -0.345352
      31A     -0.298905    32A     -0.256820    33A     -0.238668
      34A     -0.225756    35A     -0.215822

  @DF-RHF Final Energy:  -473.28844110143211

   => Energetics <=

    Nuclear Repulsion Energy =            435.3425976579226244
    One-Electron Energy =               -1522.8444449342696316
    Two-Electron Energy =                 614.2134061749148941
    Total Energy =                       -473.2884411014321131
  Basis Set: (AUG-CC-PVTZ AUX)
    Blend: AUG-CC-PVTZ-RI
    Molecular point group: c1

    Geometry (in Angstrom), charge = -1, multiplicity = 1:

       Center              X                  Y                   Z               Mass
    ------------   -----------------  -----------------  -----------------  -----------------
         O           -1.620687270654     1.544957743792    -0.138669117483    15.994914619570
         O            2.161810729346    -1.444550256208    -0.040984117483    15.994914619570
         O            3.429655729346     0.433661743792     0.199699882517    15.994914619570
         N           -0.098068270654    -0.144571256208    -0.110453117483    14.003074004430
         C           -2.440580270654    -0.710479256208    -0.410294117483    12.000000000000
         C           -1.352943270654     0.328933743792    -0.205499117483    12.000000000000
         C            1.073401729346     0.689883743792     0.045065882517    12.000000000000
         C           -3.607607270654    -0.485173256208     0.547816882517    12.000000000000
         C            2.344477729346    -0.194305256208     0.070223882517    12.000000000000
         H           -2.789399270654    -0.617869256208    -1.445773117483     1.007825032230
         H           -2.034075270654    -1.720671256208    -0.297323117483     1.007825032230
         H            1.149556729346     1.412918743792    -0.775995117483     1.007825032230
         H            1.019077729346     1.271832743792     0.973080882517     1.007825032230
         H            0.124388029346    -1.115274056208    -0.169697417483     1.007825032230
         H           -3.288194270654    -0.617255256208     1.585595882517     1.007825032230
         H           -3.992634270654     0.529918743792     0.435424882517     1.007825032230
         H           -4.417380270654    -1.191839256208     0.347853882517     1.007825032230

  Basis Set: AUG-CC-PVTZ
    Blend: AUG-CC-PVTZ
  Basis Set: (AUG-CC-PVTZ AUX)
    Blend: AUG-CC-PVTZ-JKFIT
	 Reference Energy          =    -473.2884411014321131 [Eh]
	 Singles Energy            =      -0.0000000000000000 [Eh]
	 Same-Spin Energy          =      -0.4756098519740708 [Eh]
	 Opposite-Spin Energy      =      -1.4643872010718086 [Eh]
	 Correlation Energy        =      -1.9399970530458794 [Eh]
	 Total Energy              =    -475.2284381544779990 [Eh]

	 ================> DF-SCS-MP2 Energies <==================
	-----------------------------------------------------------
	 SCS Same-Spin Scale       =       0.3333333333333333 [-]
	 SCS Opposite-Spin Scale   =       1.2000000000000000 [-]
	 SCS Same-Spin Energy      =      -0.1585366173246903 [Eh]
	 SCS Opposite-Spin Energy  =      -1.7572646412861703 [Eh]
	 SCS Correlation Energy    =      -1.9158012586108606 [Eh]
	 SCS Total Energy          =    -475.2042423600429970 [Eh]
	-----------------------------------------------------------

  Dipole Moment: [D]
     X:    -9.4145      Y:    -1.1168      Z:    -0.4123     Total:     9.4895

*** Psi4 exiting successfully. Buy a developer a beer!
