                               Psi4 1.3.2 release

  ==> Input File <==

--------------------------------------------------------------------------
#psi4
#
memory 32 gb

molecule  {
-1 1
  O        1.5553730    -1.4489990    -0.0078940
  O       -2.4744110     1.3948030    -0.0154550
  O       -3.5371250    -0.6067510    -0.0268560
  N       -0.0146490     0.2143920     0.0158120
  C        2.3272120     0.8379530     0.0018960
  C        1.2376582    -0.2459813     0.0043498
  C       -1.1337068    -0.6659777     0.0178273
  C        3.7164760     0.2336920    -0.0114620
  C       -2.5073920     0.1288020     0.0323140
  H        2.1647820     1.4966320    -0.8622200
  H        2.1776990     1.4878210     0.8748480
  H       -1.1517560    -1.3070500    -0.8570610
  H       -1.1395970    -1.3178250     0.8849180
  H       -0.2830670     1.1965190     0.0239890
  H        3.8663740    -0.3931470     0.8680960
  H        3.8530680    -0.3842560    -0.8995260
  H        4.4669480     1.0276640    -0.0135300
units angstrom
no_reorient  #important for SAPT in psi4, default
symmetry c1  #important for SAPT in psi4, default
}

set PROPERTIES_ORIGIN ["COM"]
properties('MP2/aug-cc-pvtz', properties = ['dipole'])
--------------------------------------------------------------------------

    Molecular point group: c1
  Charge       = -1
  Multiplicity = 1
  Basis Set: AUG-CC-PVTZ
    Blend: AUG-CC-PVTZ
  Basis Set: (AUG-CC-PVTZ AUX)
    Blend: AUG-CC-PVTZ-JKFIT

    Orbital Energies [Eh]
    ---------------------

    Doubly Occupied:

       1A    -20.394163     2A    -20.322875     3A    -20.310787
       4A    -15.449321     5A    -11.226111     6A    -11.165293
       7A    -11.135753     8A    -11.122931     9A    -11.106510
      10A     -1.245810    11A     -1.186357    12A     -1.103943
      13A     -1.082316    14A     -0.948608    15A     -0.832910
      16A     -0.754634    17A     -0.661316    18A     -0.587282
      19A     -0.541161    20A     -0.533651    21A     -0.510082
      22A     -0.486512    23A     -0.477973    24A     -0.424107
      25A     -0.422521    26A     -0.417412    27A     -0.414622
      28A     -0.398466    29A     -0.382623    30A     -0.347506
      31A     -0.302697    32A     -0.260209    33A     -0.234743
      34A     -0.222060    35A     -0.213247

  @DF-RHF Final Energy:  -473.28288425610708

   => Energetics <=

    Nuclear Repulsion Energy =            433.3383572204340339
    One-Electron Energy =               -1518.7894601221112225
    Two-Electron Energy =                 612.1682186455700503
    Total Energy =                       -473.2828842561070815
  Basis Set: (AUG-CC-PVTZ AUX)
    Blend: AUG-CC-PVTZ-RI
    Molecular point group: c1

    Geometry (in Angstrom), charge = -1, multiplicity = 1:

       Center              X                  Y                   Z               Mass
    ------------   -----------------  -----------------  -----------------  -----------------
         O            1.660981764021    -1.431411244308    -0.007718374385    15.994914619570
         O           -2.368802235979     1.412390755692    -0.015279374385    15.994914619570
         O           -3.431516235979    -0.589163244308    -0.026680374385    15.994914619570
         N            0.090959764021     0.231979755692     0.015987625615    14.003074004430
         C            2.432820764021     0.855540755692     0.002071625615    12.000000000000
         C            1.343266964021    -0.228393544308     0.004525425615    12.000000000000
         C           -1.028098035979    -0.648389944308     0.018002925615    12.000000000000
         C            3.822084764021     0.251279755692    -0.011286374385    12.000000000000
         C           -2.401783235979     0.146389755692     0.032489625615    12.000000000000
         H            2.270390764021     1.514219755692    -0.862044374385     1.007825032230
         H            2.283307764021     1.505408755692     0.875023625615     1.007825032230
         H           -1.046147235979    -1.289462244308    -0.856885374385     1.007825032230
         H           -1.033988235979    -1.300237244308     0.885093625615     1.007825032230
         H           -0.177458235979     1.214106755692     0.024164625615     1.007825032230
         H            3.971982764021    -0.375559244308     0.868271625615     1.007825032230
         H            3.958676764021    -0.366668244308    -0.899350374385     1.007825032230
         H            4.572556764021     1.045251755692    -0.013354374385     1.007825032230

  Basis Set: AUG-CC-PVTZ
    Blend: AUG-CC-PVTZ
  Basis Set: (AUG-CC-PVTZ AUX)
    Blend: AUG-CC-PVTZ-JKFIT
	 Reference Energy          =    -473.2828842561070815 [Eh]
	 Singles Energy            =      -0.0000000000000000 [Eh]
	 Same-Spin Energy          =      -0.4757150058831098 [Eh]
	 Opposite-Spin Energy      =      -1.4645270414481453 [Eh]
	 Correlation Energy        =      -1.9402420473312549 [Eh]
	 Total Energy              =    -475.2231263034383346 [Eh]

	 ================> DF-SCS-MP2 Energies <==================
	-----------------------------------------------------------
	 SCS Same-Spin Scale       =       0.3333333333333333 [-]
	 SCS Opposite-Spin Scale   =       1.2000000000000000 [-]
	 SCS Same-Spin Energy      =      -0.1585716686277032 [Eh]
	 SCS Opposite-Spin Energy  =      -1.7574324497377742 [Eh]
	 SCS Correlation Energy    =      -1.9160041183654775 [Eh]
	 SCS Total Energy          =    -475.1988883744725740 [Eh]
	-----------------------------------------------------------

  Dipole Moment: [D]
     X:     9.8609      Y:     1.4383      Z:     0.1358     Total:     9.9661

*** Psi4 exiting successfully. Buy a developer a beer!
