                               Psi4 1.3.2 release

  ==> Input File <==

--------------------------------------------------------------------------
#psi4
#
memory 32 gb

molecule  {
-1 1
  O        1.5553730    -1.4489990    -0.0078940
  O       -2.4744110     1.3948030    -0.0154550
  O       -3.5371250    -0.6067510    -0.0268560
  N       -0.0146490     0.2143920     0.0158120
  C        2.3272120     0.8379530     0.0018960
  C        1.2455030    -0.2240550     0.0044360
  C       -1.1489000    -0.6463140     0.0180560
  C        3.7307204     0.2731357    -0.0787875
  C       -2.5073920     0.1288020     0.0323140
  H        2.2183392     1.4847025    -0.8794665
  H        2.1776990     1.4878210     0.8748480
  H       -1.1517560    -1.3070500    -0.8570610
  H       -1.1395970    -1.3178250     0.8849180
  H       -0.2830670     1.1965190     0.0239890
  H        3.8663740    -0.3931470     0.8680960
  H        3.8530680    -0.3842560    -0.8995260
  H        4.4669480     1.0276640    -0.0135300
units angstrom
no_reorient  #important for SAPT in psi4, default
symmetry c1  #important for SAPT in psi4, default
}

set PROPERTIES_ORIGIN ["COM"]
properties('MP2/aug-cc-pvtz', properties = ['dipole'])
--------------------------------------------------------------------------

    Molecular point group: c1
  Charge       = -1
  Multiplicity = 1
  Basis Set: AUG-CC-PVTZ
    Blend: AUG-CC-PVTZ
  Basis Set: (AUG-CC-PVTZ AUX)
    Blend: AUG-CC-PVTZ-JKFIT

    Orbital Energies [Eh]
    ---------------------

    Doubly Occupied:

       1A    -20.391941     2A    -20.322643     3A    -20.310988
       4A    -15.451921     5A    -11.228840     6A    -11.164939
       7A    -11.137954     8A    -11.124364     9A    -11.109237
      10A     -1.235533    11A     -1.187154    12A     -1.102781
      13A     -1.082570    14A     -0.953324    15A     -0.836902
      16A     -0.758594    17A     -0.660669    18A     -0.591286
      19A     -0.546646    20A     -0.534451    21A     -0.507715
      22A     -0.485959    23A     -0.477973    24A     -0.431658
      25A     -0.429027    26A     -0.420774    27A     -0.399078
      28A     -0.397493    29A     -0.373577    30A     -0.344257
      31A     -0.303928    32A     -0.258029    33A     -0.235423
      34A     -0.225042    35A     -0.213358

  @DF-RHF Final Energy:  -473.27489649693626

   => Energetics <=

    Nuclear Repulsion Energy =            433.0978832636967013
    One-Electron Energy =               -1518.2735026573598134
    Two-Electron Energy =                 611.9007228967268475
    Total Energy =                       -473.2748964969362078
  Basis Set: (AUG-CC-PVTZ AUX)
    Blend: AUG-CC-PVTZ-RI
    Molecular point group: c1

    Geometry (in Angstrom), charge = -1, multiplicity = 1:

       Center              X                  Y                   Z               Mass
    ------------   -----------------  -----------------  -----------------  -----------------
         O            1.659930415715    -1.438795930687    -0.001401526917    15.994914619570
         O           -2.369853584285     1.405006069313    -0.008962526917    15.994914619570
         O           -3.432567584285    -0.596547930687    -0.020363526917    15.994914619570
         N            0.089908415715     0.224595069313     0.022304473083    14.003074004430
         C            2.431769415715     0.848156069313     0.008388473083    12.000000000000
         C            1.350060415715    -0.213851930687     0.010928473083    12.000000000000
         C           -1.044342584285    -0.636110930687     0.024548473083    12.000000000000
         C            3.835277815715     0.283338769313    -0.072295026917    12.000000000000
         C           -2.402834584285     0.139005069313     0.038806473083    12.000000000000
         H            2.322896615715     1.494905569313    -0.872974026917     1.007825032230
         H            2.282256415715     1.498024069313     0.881340473083     1.007825032230
         H           -1.047198584285    -1.296846930687    -0.850568526917     1.007825032230
         H           -1.035039584285    -1.307621930687     0.891410473083     1.007825032230
         H           -0.178509584285     1.206722069313     0.030481473083     1.007825032230
         H            3.970931415715    -0.382943930687     0.874588473083     1.007825032230
         H            3.957625415715    -0.374052930687    -0.893033526917     1.007825032230
         H            4.571505415715     1.037867069313    -0.007037526917     1.007825032230

  Basis Set: AUG-CC-PVTZ
    Blend: AUG-CC-PVTZ
  Basis Set: (AUG-CC-PVTZ AUX)
    Blend: AUG-CC-PVTZ-JKFIT
	 Reference Energy          =    -473.2748964969362646 [Eh]
	 Singles Energy            =      -0.0000000000000000 [Eh]
	 Same-Spin Energy          =      -0.4762859516943077 [Eh]
	 Opposite-Spin Energy      =      -1.4657879885206027 [Eh]
	 Correlation Energy        =      -1.9420739402149103 [Eh]
	 Total Energy              =    -475.2169704371511898 [Eh]

	 ================> DF-SCS-MP2 Energies <==================
	-----------------------------------------------------------
	 SCS Same-Spin Scale       =       0.3333333333333333 [-]
	 SCS Opposite-Spin Scale   =       1.2000000000000000 [-]
	 SCS Same-Spin Energy      =      -0.1587619838981025 [Eh]
	 SCS Opposite-Spin Energy  =      -1.7589455862247232 [Eh]
	 SCS Correlation Energy    =      -1.9177075701228257 [Eh]
	 SCS Total Energy          =    -475.1926040670591078 [Eh]
	-----------------------------------------------------------

  Dipole Moment: [D]
     X:     9.8915      Y:     1.6028      Z:     0.0716     Total:    10.0208

*** Psi4 exiting successfully. Buy a developer a beer!
