                               Psi4 1.3.2 release

  ==> Input File <==

--------------------------------------------------------------------------
#psi4
#
memory 32 gb

molecule  {
-1 1
  O        1.5553730    -1.4489990    -0.0078940
  O       -2.4744110     1.3948030    -0.0154550
  O       -3.5371250    -0.6067510    -0.0268560
  N       -0.0107026     0.2091291     0.0263533
  C        2.3272120     0.8379530     0.0018960
  C        1.2455030    -0.2240550     0.0044360
  C       -1.1489000    -0.6463140     0.0180560
  C        3.7164760     0.2336920    -0.0114620
  C       -2.5073920     0.1288020     0.0323140
  H        2.1647820     1.4966320    -0.8622200
  H        2.1776990     1.4878210     0.8748480
  H       -1.1517560    -1.3070500    -0.8570610
  H       -1.1313789    -1.3138821     0.8878314
  H       -0.2830670     1.1965190     0.0239890
  H        3.8663740    -0.3931470     0.8680960
  H        3.8530680    -0.3842560    -0.8995260
  H        4.4669480     1.0276640    -0.0135300
units angstrom
no_reorient  #important for SAPT in psi4, default
symmetry c1  #important for SAPT in psi4, default
}

set PROPERTIES_ORIGIN ["COM"]
properties('MP2/aug-cc-pvtz', properties = ['dipole'])
--------------------------------------------------------------------------

    Molecular point group: c1
  Charge       = -1
  Multiplicity = 1
  Basis Set: AUG-CC-PVTZ
    Blend: AUG-CC-PVTZ
  Basis Set: (AUG-CC-PVTZ AUX)
    Blend: AUG-CC-PVTZ-JKFIT

    Orbital Energies [Eh]
    ---------------------

    Doubly Occupied:

       1A    -20.390192     2A    -20.322969     3A    -20.311263
       4A    -15.451633     5A    -11.226446     6A    -11.165284
       7A    -11.137351     8A    -11.123888     9A    -11.109255
      10A     -1.235179    11A     -1.187351    12A     -1.102728
      13A     -1.082852    14A     -0.952342    15A     -0.837104
      16A     -0.758437    17A     -0.659317    18A     -0.589998
      19A     -0.545378    20A     -0.535356    21A     -0.506791
      22A     -0.484855    23A     -0.474285    24A     -0.425753
      25A     -0.425357    26A     -0.417133    27A     -0.413548
      28A     -0.396074    29A     -0.380281    30A     -0.344310
      31A     -0.302677    32A     -0.257763    33A     -0.235674
      34A     -0.225365    35A     -0.213623

  @DF-RHF Final Energy:  -473.28158008815740

   => Energetics <=

    Nuclear Repulsion Energy =            433.4520261754765897
    One-Electron Energy =               -1519.0115881953095140
    Two-Electron Energy =                 612.2779819316754129
    Total Energy =                       -473.2815800881573978
  Basis Set: (AUG-CC-PVTZ AUX)
    Blend: AUG-CC-PVTZ-RI
    Molecular point group: c1

    Geometry (in Angstrom), charge = -1, multiplicity = 1:

       Center              X                  Y                   Z               Mass
    ------------   -----------------  -----------------  -----------------  -----------------
         O            1.661171203334    -1.434712709858    -0.008905034172    15.994914619570
         O           -2.368612796666     1.409089290142    -0.016466034172    15.994914619570
         O           -3.431326796666    -0.592464709858    -0.027867034172    15.994914619570
         N            0.095095603334     0.223415390142     0.025342265828    14.003074004430
         C            2.433010203334     0.852239290142     0.000884965828    12.000000000000
         C            1.351301203334    -0.209768709858     0.003424965828    12.000000000000
         C           -1.043101796666    -0.632027709858     0.017044965828    12.000000000000
         C            3.822274203334     0.247978290142    -0.012473034172    12.000000000000
         C           -2.401593796666     0.143088290142     0.031302965828    12.000000000000
         H            2.270580203334     1.510918290142    -0.863231034172     1.007825032230
         H            2.283497203334     1.502107290142     0.873836965828     1.007825032230
         H           -1.045957796666    -1.292763709858    -0.858072034172     1.007825032230
         H           -1.025580696666    -1.299595809858     0.886820365828     1.007825032230
         H           -0.177268796666     1.210805290142     0.022977965828     1.007825032230
         H            3.972172203334    -0.378860709858     0.867084965828     1.007825032230
         H            3.958866203334    -0.369969709858    -0.900537034172     1.007825032230
         H            4.572746203334     1.041950290142    -0.014541034172     1.007825032230

  Basis Set: AUG-CC-PVTZ
    Blend: AUG-CC-PVTZ
  Basis Set: (AUG-CC-PVTZ AUX)
    Blend: AUG-CC-PVTZ-JKFIT
	 Reference Energy          =    -473.2815800881573978 [Eh]
	 Singles Energy            =      -0.0000000000000000 [Eh]
	 Same-Spin Energy          =      -0.4761947665600653 [Eh]
	 Opposite-Spin Energy      =      -1.4654285729337517 [Eh]
	 Correlation Energy        =      -1.9416233394938169 [Eh]
	 Total Energy              =    -475.2232034276512422 [Eh]

	 ================> DF-SCS-MP2 Energies <==================
	-----------------------------------------------------------
	 SCS Same-Spin Scale       =       0.3333333333333333 [-]
	 SCS Opposite-Spin Scale   =       1.2000000000000000 [-]
	 SCS Same-Spin Energy      =      -0.1587315888533551 [Eh]
	 SCS Opposite-Spin Energy  =      -1.7585142875205020 [Eh]
	 SCS Correlation Energy    =      -1.9172458763738571 [Eh]
	 SCS Total Energy          =    -475.1988259645312382 [Eh]
	-----------------------------------------------------------

  Dipole Moment: [D]
     X:     9.8556      Y:     1.5787      Z:     0.1271     Total:     9.9820

*** Psi4 exiting successfully. Buy a developer a beer!
