                               Psi4 1.4a3.dev225

  ==> Input File <==

--------------------------------------------------------------------------
#psi4
#
memory 32 gb

molecule  {
-1 1
  O       -1.5186010     1.5599430    -0.1433510
  O        2.2638970    -1.4295650    -0.0456660
  O        3.5317420     0.4486470     0.1950180
  N        0.0040180    -0.1295860    -0.1151350
  C       -2.3384940    -0.6954940    -0.4149760
  C       -1.2508570     0.3439190    -0.2101810
  C        1.1754880     0.7048690     0.0403840
  C       -3.5055210    -0.4701880     0.5431350
  C        2.4876044    -0.2078686     0.0663543
  H       -2.6873130    -0.6028840    -1.4504550
  H       -1.9319890    -1.7056860    -0.3020050
  H        1.2516430     1.4279040    -0.7806770
  H        1.1211640     1.2868180     0.9683990
  H        0.2309340    -1.1197490    -0.1755670
  H       -3.1861080    -0.6022700     1.5809140
  H       -3.8905480     0.5449040     0.4307430
  H       -4.3152940    -1.1768540     0.3431720
units angstrom
no_reorient  #important for SAPT in psi4, default
symmetry c1  #important for SAPT in psi4, default
}

set PROPERTIES_ORIGIN ["COM"]
properties('MP2/aug-cc-pvtz', properties = ['dipole'])
--------------------------------------------------------------------------

    Molecular point group: c1
  Charge       = -1
  Multiplicity = 1
  Basis Set: AUG-CC-PVTZ
    Blend: AUG-CC-PVTZ
  Basis Set: (AUG-CC-PVTZ AUX)
    Blend: AUG-CC-PVTZ-JKFIT

    Orbital Energies [Eh]
    ---------------------

    Doubly Occupied:

       1A    -20.384403     2A    -20.325247     3A    -20.316492
       4A    -15.441959     5A    -11.219230     6A    -11.163779
       7A    -11.133584     8A    -11.126482     9A    -11.102218
      10A     -1.235603    11A     -1.202546    12A     -1.109258
      13A     -1.083492    14A     -0.947589    15A     -0.822603
      16A     -0.754156    17A     -0.649206    18A     -0.579915
      19A     -0.542132    20A     -0.525380    21A     -0.499130
      22A     -0.482125    23A     -0.473419    24A     -0.435918
      25A     -0.430601    26A     -0.422854    27A     -0.406852
      28A     -0.395778    29A     -0.382550    30A     -0.351195
      31A     -0.296428    32A     -0.253453    33A     -0.245631
      34A     -0.222772    35A     -0.217656

  @DF-RHF Final Energy:  -473.28909499622614

   => Energetics <=

    Nuclear Repulsion Energy =            435.1039646551330407
    One-Electron Energy =               -1522.4228441329953512
    Two-Electron Energy =                 614.0297844816361703
    Total Energy =                       -473.2890949962261402
  Basis Set: (AUG-CC-PVTZ AUX)
    Blend: AUG-CC-PVTZ-RI
    Molecular point group: c1

    Geometry (in Angstrom), charge = -1, multiplicity = 1:

       Center              X                  Y                   Z               Mass
    ------------   -----------------  -----------------  -----------------  -----------------
         O           -1.624508707021     1.547742784255    -0.138734865877    15.994914619570
         O            2.157989292979    -1.441765215745    -0.041049865877    15.994914619570
         O            3.425834292979     0.436446784255     0.199634134123    15.994914619570
         N           -0.101889707021    -0.141786215745    -0.110518865877    14.003074004430
         C           -2.444401707021    -0.707694215745    -0.410359865877    12.000000000000
         C           -1.356764707021     0.331718784255    -0.205564865877    12.000000000000
         C            1.069580292979     0.692668784255     0.045000134123    12.000000000000
         C           -3.611428707021    -0.482388215745     0.547751134123    12.000000000000
         C            2.381696692979    -0.220068815745     0.070970434123    12.000000000000
         H           -2.793220707021    -0.615084215745    -1.445838865877     1.007825032230
         H           -2.037896707021    -1.717886215745    -0.297388865877     1.007825032230
         H            1.145735292979     1.415703784255    -0.776060865877     1.007825032230
         H            1.015256292979     1.274617784255     0.973015134123     1.007825032230
         H            0.125026292979    -1.131949215745    -0.170950865877     1.007825032230
         H           -3.292015707021    -0.614470215745     1.585530134123     1.007825032230
         H           -3.996455707021     0.532703784255     0.435359134123     1.007825032230
         H           -4.421201707021    -1.189054215745     0.347788134123     1.007825032230

  Basis Set: AUG-CC-PVTZ
    Blend: AUG-CC-PVTZ
  Basis Set: (AUG-CC-PVTZ AUX)
    Blend: AUG-CC-PVTZ-JKFIT
	 Reference Energy          =    -473.2890949962261402 [Eh]
	 Singles Energy            =      -0.0000000000000000 [Eh]
	 Same-Spin Energy          =      -0.4752274985812965 [Eh]
	 Opposite-Spin Energy      =      -1.4633031229966462 [Eh]
	 Correlation Energy        =      -1.9385306215779428 [Eh]
	 Total Energy              =    -475.2276256178041081 [Eh]

	 ================> DF-SCS-MP2 Energies <==================
	-----------------------------------------------------------
	 SCS Same-Spin Scale       =       0.3333333333333333 [-]
	 SCS Opposite-Spin Scale   =       1.2000000000000000 [-]
	 SCS Same-Spin Energy      =      -0.1584091661937655 [Eh]
	 SCS Opposite-Spin Energy  =      -1.7559637475959755 [Eh]
	 SCS Correlation Energy    =      -1.9143729137897409 [Eh]
	 SCS Total Energy          =    -475.2034679100158883 [Eh]
	-----------------------------------------------------------

  Dipole Moment: [D]
     X:    -9.0457      Y:    -1.3141      Z:    -0.4031     Total:     9.1495

*** Psi4 exiting successfully. Buy a developer a beer!
