                               Psi4 1.4a3.dev225

  ==> Input File <==

--------------------------------------------------------------------------
#psi4
#
memory 32 gb

molecule  {
-1 1
  O       -1.5186010     1.5599430    -0.1433510
  O        2.2638970    -1.4295650    -0.0456660
  O        3.5317420     0.4486470     0.1950180
  N        0.0040180    -0.1295860    -0.1151350
  C       -2.3384940    -0.6954940    -0.4149760
  C       -1.2695224     0.3509621    -0.2115947
  C        1.1754880     0.7048690     0.0403840
  C       -3.5055210    -0.4701880     0.5431350
  C        2.4465640    -0.1793200     0.0655420
  H       -2.6873130    -0.6028840    -1.4504550
  H       -1.9319890    -1.7056860    -0.3020050
  H        1.2516430     1.4279040    -0.7806770
  H        1.1211640     1.2868180     0.9683990
  H        0.2309340    -1.1197490    -0.1755670
  H       -3.1861080    -0.6022700     1.5809140
  H       -3.8905480     0.5449040     0.4307430
  H       -4.3152940    -1.1768540     0.3431720
units angstrom
no_reorient  #important for SAPT in psi4, default
symmetry c1  #important for SAPT in psi4, default
}

set PROPERTIES_ORIGIN ["COM"]
properties('MP2/aug-cc-pvtz', properties = ['dipole'])
--------------------------------------------------------------------------

    Molecular point group: c1
  Charge       = -1
  Multiplicity = 1
  Basis Set: AUG-CC-PVTZ
    Blend: AUG-CC-PVTZ
  Basis Set: (AUG-CC-PVTZ AUX)
    Blend: AUG-CC-PVTZ-JKFIT

    Orbital Energies [Eh]
    ---------------------

    Doubly Occupied:

       1A    -20.390884     2A    -20.321076     3A    -20.312483
       4A    -15.441288     5A    -11.223339     6A    -11.162393
       7A    -11.135801     8A    -11.128800     9A    -11.106882
      10A     -1.245144    11A     -1.189065    12A     -1.094063
      13A     -1.077316    14A     -0.951885    15A     -0.828499
      16A     -0.760047    17A     -0.648670    18A     -0.585578
      19A     -0.545786    20A     -0.527004    21A     -0.501683
      22A     -0.485357    23A     -0.475440    24A     -0.438110
      25A     -0.427206    26A     -0.420781    27A     -0.408758
      28A     -0.394060    29A     -0.381445    30A     -0.345378
      31A     -0.301407    32A     -0.253839    33A     -0.237419
      34A     -0.224389    35A     -0.214514

  @DF-RHF Final Energy:  -473.28738031937377

   => Energetics <=

    Nuclear Repulsion Energy =            435.1459013932490620
    One-Electron Energy =               -1522.4949807996947584
    Two-Electron Energy =                 614.0616990870720429
    Total Energy =                       -473.2873803193737103
  Basis Set: (AUG-CC-PVTZ AUX)
    Blend: AUG-CC-PVTZ-RI
    Molecular point group: c1

    Geometry (in Angstrom), charge = -1, multiplicity = 1:

       Center              X                  Y                   Z               Mass
    ------------   -----------------  -----------------  -----------------  -----------------
         O           -1.618999539036     1.544458670246    -0.138529468614    15.994914619570
         O            2.163498460964    -1.445049329754    -0.040844468614    15.994914619570
         O            3.431343460964     0.433162670246     0.199839531386    15.994914619570
         N           -0.096380539036    -0.145070329754    -0.110313468614    14.003074004430
         C           -2.438892539036    -0.710978329754    -0.410154468614    12.000000000000
         C           -1.369920939036     0.335477770246    -0.206773168614    12.000000000000
         C            1.075089460964     0.689384670246     0.045205531386    12.000000000000
         C           -3.605919539036    -0.485672329754     0.547956531386    12.000000000000
         C            2.346165460964    -0.194804329754     0.070363531386    12.000000000000
         H           -2.787711539036    -0.618368329754    -1.445633468614     1.007825032230
         H           -2.032387539036    -1.721170329754    -0.297183468614     1.007825032230
         H            1.151244460964     1.412419670246    -0.775855468614     1.007825032230
         H            1.020765460964     1.271333670246     0.973220531386     1.007825032230
         H            0.130535460964    -1.135233329754    -0.170745468614     1.007825032230
         H           -3.286506539036    -0.617754329754     1.585735531386     1.007825032230
         H           -3.990946539036     0.529419670246     0.435564531386     1.007825032230
         H           -4.415692539036    -1.192338329754     0.347993531386     1.007825032230

  Basis Set: AUG-CC-PVTZ
    Blend: AUG-CC-PVTZ
  Basis Set: (AUG-CC-PVTZ AUX)
    Blend: AUG-CC-PVTZ-JKFIT
	 Reference Energy          =    -473.2873803193737672 [Eh]
	 Singles Energy            =      -0.0000000000000000 [Eh]
	 Same-Spin Energy          =      -0.4758031862638802 [Eh]
	 Opposite-Spin Energy      =      -1.4646895598342087 [Eh]
	 Correlation Energy        =      -1.9404927460980890 [Eh]
	 Total Energy              =    -475.2278730654718402 [Eh]

	 ================> DF-SCS-MP2 Energies <==================
	-----------------------------------------------------------
	 SCS Same-Spin Scale       =       0.3333333333333333 [-]
	 SCS Opposite-Spin Scale   =       1.2000000000000000 [-]
	 SCS Same-Spin Energy      =      -0.1586010620879601 [Eh]
	 SCS Opposite-Spin Energy  =      -1.7576274718010503 [Eh]
	 SCS Correlation Energy    =      -1.9162285338890104 [Eh]
	 SCS Total Energy          =    -475.2036088532627787 [Eh]
	-----------------------------------------------------------

  Dipole Moment: [D]
     X:    -9.5620      Y:    -1.0701      Z:    -0.4238     Total:     9.6310

*** Psi4 exiting successfully. Buy a developer a beer!
