                               Psi4 1.3.2 release

  ==> Input File <==

--------------------------------------------------------------------------
#psi4
#
memory 32 gb

molecule  {
-1 1
  O        1.5660507    -1.4462474    -0.0079777
  O       -2.4744110     1.3948030    -0.0154550
  O       -3.5371250    -0.6067510    -0.0268560
  N       -0.0146490     0.2143920     0.0158120
  C        2.3364376     0.8284735     0.0017337
  C        1.2455030    -0.2240550     0.0044360
  C       -1.1489000    -0.6463140     0.0180560
  C        3.7164760     0.2336920    -0.0114620
  C       -2.5073920     0.1288020     0.0323140
  H        2.1647820     1.4966320    -0.8622200
  H        2.1776990     1.4878210     0.8748480
  H       -1.1517560    -1.3070500    -0.8570610
  H       -1.1395970    -1.3178250     0.8849180
  H       -0.2830670     1.1965190     0.0239890
  H        3.8663740    -0.3931470     0.8680960
  H        3.8530680    -0.3842560    -0.8995260
  H        4.4669480     1.0276640    -0.0135300
units angstrom
no_reorient  #important for SAPT in psi4, default
symmetry c1  #important for SAPT in psi4, default
}

set PROPERTIES_ORIGIN ["COM"]
properties('MP2/aug-cc-pvtz', properties = ['dipole'])
--------------------------------------------------------------------------

    Molecular point group: c1
  Charge       = -1
  Multiplicity = 1
  Basis Set: AUG-CC-PVTZ
    Blend: AUG-CC-PVTZ
  Basis Set: (AUG-CC-PVTZ AUX)
    Blend: AUG-CC-PVTZ-JKFIT

    Orbital Energies [Eh]
    ---------------------

    Doubly Occupied:

       1A    -20.391325     2A    -20.322779     3A    -20.311081
       4A    -15.451858     5A    -11.227627     6A    -11.165057
       7A    -11.137741     8A    -11.123253     9A    -11.109365
      10A     -1.235223    11A     -1.187274    12A     -1.102989
      13A     -1.082686    14A     -0.953789    15A     -0.836746
      16A     -0.757896    17A     -0.660334    18A     -0.589569
      19A     -0.545445    20A     -0.534365    21A     -0.507419
      22A     -0.484435    23A     -0.475483    24A     -0.428925
      25A     -0.425720    26A     -0.415980    27A     -0.412972
      28A     -0.397100    29A     -0.378370    30A     -0.344211
      31A     -0.302763    32A     -0.258231    33A     -0.235561
      34A     -0.225109    35A     -0.213464

  @DF-RHF Final Energy:  -473.28116023127086

   => Energetics <=

    Nuclear Repulsion Energy =            433.4133124728120947
    One-Electron Energy =               -1518.9246499768280501
    Two-Electron Energy =                 612.2301772727450953
    Total Energy =                       -473.2811602312708601
  Basis Set: (AUG-CC-PVTZ AUX)
    Blend: AUG-CC-PVTZ-RI
    Molecular point group: c1

    Geometry (in Angstrom), charge = -1, multiplicity = 1:

       Center              X                  Y                   Z               Mass
    ------------   -----------------  -----------------  -----------------  -----------------
         O            1.670172999751    -1.431960960930    -0.007805860806    15.994914619570
         O           -2.370288700249     1.409089439070    -0.015283160806    15.994914619570
         O           -3.433002700249    -0.592464560930    -0.026684160806    15.994914619570
         N            0.089473299751     0.228678439070     0.015983839194    14.003074004430
         C            2.440559899751     0.842759939070     0.001905539194    12.000000000000
         C            1.349625299751    -0.209768560930     0.004607839194    12.000000000000
         C           -1.044777700249    -0.632027560930     0.018227839194    12.000000000000
         C            3.820598299751     0.247978439070    -0.011290160806    12.000000000000
         C           -2.403269700249     0.143088439070     0.032485839194    12.000000000000
         H            2.268904299751     1.510918439070    -0.862048160806     1.007825032230
         H            2.281821299751     1.502107439070     0.875019839194     1.007825032230
         H           -1.047633700249    -1.292763560930    -0.856889160806     1.007825032230
         H           -1.035474700249    -1.303538560930     0.885089839194     1.007825032230
         H           -0.178944700249     1.210805439070     0.024160839194     1.007825032230
         H            3.970496299751    -0.378860560930     0.868267839194     1.007825032230
         H            3.957190299751    -0.369969560930    -0.899354160806     1.007825032230
         H            4.571070299751     1.041950439070    -0.013358160806     1.007825032230

  Basis Set: AUG-CC-PVTZ
    Blend: AUG-CC-PVTZ
  Basis Set: (AUG-CC-PVTZ AUX)
    Blend: AUG-CC-PVTZ-JKFIT
	 Reference Energy          =    -473.2811602312708601 [Eh]
	 Singles Energy            =      -0.0000000000000000 [Eh]
	 Same-Spin Energy          =      -0.4762351204118926 [Eh]
	 Opposite-Spin Energy      =      -1.4654498720169502 [Eh]
	 Correlation Energy        =      -1.9416849924288428 [Eh]
	 Total Energy              =    -475.2228452236997214 [Eh]

	 ================> DF-SCS-MP2 Energies <==================
	-----------------------------------------------------------
	 SCS Same-Spin Scale       =       0.3333333333333333 [-]
	 SCS Opposite-Spin Scale   =       1.2000000000000000 [-]
	 SCS Same-Spin Energy      =      -0.1587450401372975 [Eh]
	 SCS Opposite-Spin Energy  =      -1.7585398464203401 [Eh]
	 SCS Correlation Energy    =      -1.9172848865576377 [Eh]
	 SCS Total Energy          =    -475.1984451178284985 [Eh]
	-----------------------------------------------------------

  Dipole Moment: [D]
     X:     9.8752      Y:     1.5471      Z:     0.1366     Total:     9.9966

*** Psi4 exiting successfully. Buy a developer a beer!
