                               Psi4 1.3.2 release

  ==> Input File <==

--------------------------------------------------------------------------
#psi4
#
memory 32 gb

molecule  {
-1 1
  O        1.5553730    -1.4489990    -0.0078940
  O       -2.4744110     1.3948030    -0.0154550
  O       -3.5371250    -0.6067510    -0.0268560
  N       -0.0146490     0.2143920     0.0158120
  C        2.3272120     0.8379530     0.0018960
  C        1.2642014    -0.2427712     0.0042019
  C       -1.1489000    -0.6463140     0.0180560
  C        3.7057178     0.2095373    -0.0115065
  C       -2.5073920     0.1288020     0.0323140
  H        2.1647820     1.4966320    -0.8622200
  H        2.1776990     1.4878210     0.8748480
  H       -1.1517560    -1.3070500    -0.8570610
  H       -1.1395970    -1.3178250     0.8849180
  H       -0.2830670     1.1965190     0.0239890
  H        3.8663740    -0.3931470     0.8680960
  H        3.8530680    -0.3842560    -0.8995260
  H        4.4669480     1.0276640    -0.0135300
units angstrom
no_reorient  #important for SAPT in psi4, default
symmetry c1  #important for SAPT in psi4, default
}

set PROPERTIES_ORIGIN ["COM"]
properties('MP2/aug-cc-pvtz', properties = ['dipole'])
--------------------------------------------------------------------------

    Molecular point group: c1
  Charge       = -1
  Multiplicity = 1
  Basis Set: AUG-CC-PVTZ
    Blend: AUG-CC-PVTZ
  Basis Set: (AUG-CC-PVTZ AUX)
    Blend: AUG-CC-PVTZ-JKFIT

    Orbital Energies [Eh]
    ---------------------

    Doubly Occupied:

       1A    -20.397575     2A    -20.320623     3A    -20.309095
       4A    -15.445752     5A    -11.228309     6A    -11.162791
       7A    -11.137562     8A    -11.125029     9A    -11.106087
      10A     -1.248522    11A     -1.185350    12A     -1.096574
      13A     -1.080051    14A     -0.953800    15A     -0.831553
      16A     -0.756712    17A     -0.655524    18A     -0.590201
      19A     -0.543025    20A     -0.537808    21A     -0.508902
      22A     -0.482633    23A     -0.475716    24A     -0.426289
      25A     -0.422046    26A     -0.421247    27A     -0.414308
      28A     -0.395136    29A     -0.384206    30A     -0.344891
      31A     -0.307177    32A     -0.255235    33A     -0.233441
      34A     -0.222769    35A     -0.211362

  @DF-RHF Final Energy:  -473.28201950468588

   => Energetics <=

    Nuclear Repulsion Energy =            433.5213165369759167
    One-Electron Energy =               -1519.1720636301611194
    Two-Electron Energy =                 612.3687275884992687
    Total Energy =                       -473.2820195046858771
  Basis Set: (AUG-CC-PVTZ AUX)
    Blend: AUG-CC-PVTZ-RI
    Molecular point group: c1

    Geometry (in Angstrom), charge = -1, multiplicity = 1:

       Center              X                  Y                   Z               Mass
    ------------   -----------------  -----------------  -----------------  -----------------
         O            1.660927157507    -1.431293053223    -0.007721723855    15.994914619570
         O           -2.368856842493     1.412508946777    -0.015282723855    15.994914619570
         O           -3.431570842493    -0.589045053223    -0.026683723855    15.994914619570
         N            0.090905157507     0.232097946777     0.015984276145    14.003074004430
         C            2.432766157507     0.855658946777     0.002068276145    12.000000000000
         C            1.369755557507    -0.225065253223     0.004374176145    12.000000000000
         C           -1.043345842493    -0.628608053223     0.018228276145    12.000000000000
         C            3.811271957507     0.227243246777    -0.011334223855    12.000000000000
         C           -2.401837842493     0.146507946777     0.032486276145    12.000000000000
         H            2.270336157507     1.514337946777    -0.862047723855     1.007825032230
         H            2.283253157507     1.505526946777     0.875020276145     1.007825032230
         H           -1.046201842493    -1.289344053223    -0.856888723855     1.007825032230
         H           -1.034042842493    -1.300119053223     0.885090276145     1.007825032230
         H           -0.177512842493     1.214224946777     0.024161276145     1.007825032230
         H            3.971928157507    -0.375441053223     0.868268276145     1.007825032230
         H            3.958622157507    -0.366550053223    -0.899353723855     1.007825032230
         H            4.572502157507     1.045369946777    -0.013357723855     1.007825032230

  Basis Set: AUG-CC-PVTZ
    Blend: AUG-CC-PVTZ
  Basis Set: (AUG-CC-PVTZ AUX)
    Blend: AUG-CC-PVTZ-JKFIT
	 Reference Energy          =    -473.2820195046858771 [Eh]
	 Singles Energy            =      -0.0000000000000000 [Eh]
	 Same-Spin Energy          =      -0.4758569357939437 [Eh]
	 Opposite-Spin Energy      =      -1.4647888373046540 [Eh]
	 Correlation Energy        =      -1.9406457730985978 [Eh]
	 Total Energy              =    -475.2226652777844720 [Eh]

	 ================> DF-SCS-MP2 Energies <==================
	-----------------------------------------------------------
	 SCS Same-Spin Scale       =       0.3333333333333333 [-]
	 SCS Opposite-Spin Scale   =       1.2000000000000000 [-]
	 SCS Same-Spin Energy      =      -0.1586189785979812 [Eh]
	 SCS Opposite-Spin Energy  =      -1.7577466047655848 [Eh]
	 SCS Correlation Energy    =      -1.9163655833635660 [Eh]
	 SCS Total Energy          =    -475.1983850880494629 [Eh]
	-----------------------------------------------------------

  Dipole Moment: [D]
     X:    10.1048      Y:     1.4031      Z:     0.1343     Total:    10.2026

*** Psi4 exiting successfully. Buy a developer a beer!
