                               Psi4 1.3.2 release

  ==> Input File <==

--------------------------------------------------------------------------
#psi4
#
memory 32 gb

molecule  {
-1 1
  O        1.5553730    -1.4489990    -0.0078940
  O       -2.4744110     1.3948030    -0.0154550
  O       -3.5371250    -0.6067510    -0.0268560
  N       -0.0146490     0.2143920     0.0158120
  C        2.3272120     0.8379530     0.0018960
  C        1.2455030    -0.2240550     0.0044360
  C       -1.1413463    -0.6561790     0.0179405
  C        3.7164760     0.2336920    -0.0114620
  C       -2.5073920     0.1288020     0.0323140
  H        2.1647820     1.4966320    -0.8622200
  H        2.1776990     1.4878210     0.8748480
  H       -1.1517560    -1.3070500    -0.8570610
  H       -1.1395970    -1.3178250     0.8849180
  H       -0.2744861     1.1988243     0.0239449
  H        3.8663740    -0.3931470     0.8680960
  H        3.8530680    -0.3842560    -0.8995260
  H        4.4669480     1.0276640    -0.0135300
units angstrom
no_reorient  #important for SAPT in psi4, default
symmetry c1  #important for SAPT in psi4, default
}

set PROPERTIES_ORIGIN ["COM"]
properties('MP2/aug-cc-pvtz', properties = ['dipole'])
--------------------------------------------------------------------------

    Molecular point group: c1
  Charge       = -1
  Multiplicity = 1
  Basis Set: AUG-CC-PVTZ
    Blend: AUG-CC-PVTZ
  Basis Set: (AUG-CC-PVTZ AUX)
    Blend: AUG-CC-PVTZ-JKFIT

    Orbital Energies [Eh]
    ---------------------

    Doubly Occupied:

       1A    -20.391279     2A    -20.322492     3A    -20.310809
       4A    -15.451250     5A    -11.227103     6A    -11.165041
       7A    -11.137493     8A    -11.124066     9A    -11.108121
      10A     -1.235176    11A     -1.186460    12A     -1.102234
      13A     -1.082223    14A     -0.952483    15A     -0.835777
      16A     -0.758273    17A     -0.659755    18A     -0.589114
      19A     -0.543470    20A     -0.535379    21A     -0.507892
      22A     -0.485203    23A     -0.474844    24A     -0.425596
      25A     -0.424309    26A     -0.417291    27A     -0.413686
      28A     -0.397697    29A     -0.380026    30A     -0.344924
      31A     -0.303117    32A     -0.258520    33A     -0.234806
      34A     -0.223583    35A     -0.213141

  @DF-RHF Final Energy:  -473.28170623916765

   => Energetics <=

    Nuclear Repulsion Energy =            433.2903679240952215
    One-Electron Energy =               -1518.6988835205247597
    Two-Electron Energy =                 612.1268093572617772
    Total Energy =                       -473.2817062391676473
  Basis Set: (AUG-CC-PVTZ AUX)
    Blend: AUG-CC-PVTZ-RI
    Molecular point group: c1

    Geometry (in Angstrom), charge = -1, multiplicity = 1:

       Center              X                  Y                   Z               Mass
    ------------   -----------------  -----------------  -----------------  -----------------
         O            1.660896322959    -1.434356435447    -0.007736431651    15.994914619570
         O           -2.368887677041     1.409445564553    -0.015297431651    15.994914619570
         O           -3.431601677041    -0.592108435447    -0.026698431651    15.994914619570
         N            0.090874322959     0.229034564553     0.015969568349    14.003074004430
         C            2.432735322959     0.852595564553     0.002053568349    12.000000000000
         C            1.351026322959    -0.209412435447     0.004593568349    12.000000000000
         C           -1.035822977041    -0.641536435447     0.018098068349    12.000000000000
         C            3.821999322959     0.248334564553    -0.011304431651    12.000000000000
         C           -2.401868677041     0.143444564553     0.032471568349    12.000000000000
         H            2.270305322959     1.511274564553    -0.862062431651     1.007825032230
         H            2.283222322959     1.502463564553     0.875005568349     1.007825032230
         H           -1.046232677041    -1.292407435447    -0.856903431651     1.007825032230
         H           -1.034073677041    -1.303182435447     0.885075568349     1.007825032230
         H           -0.168962777041     1.213466864553     0.024102468349     1.007825032230
         H            3.971897322959    -0.378504435447     0.868253568349     1.007825032230
         H            3.958591322959    -0.369613435447    -0.899368431651     1.007825032230
         H            4.572471322959     1.042306564553    -0.013372431651     1.007825032230

  Basis Set: AUG-CC-PVTZ
    Blend: AUG-CC-PVTZ
  Basis Set: (AUG-CC-PVTZ AUX)
    Blend: AUG-CC-PVTZ-JKFIT
	 Reference Energy          =    -473.2817062391676473 [Eh]
	 Singles Energy            =      -0.0000000000000000 [Eh]
	 Same-Spin Energy          =      -0.4761151986562324 [Eh]
	 Opposite-Spin Energy      =      -1.4653313464581745 [Eh]
	 Correlation Energy        =      -1.9414465451144070 [Eh]
	 Total Energy              =    -475.2231527842820356 [Eh]

	 ================> DF-SCS-MP2 Energies <==================
	-----------------------------------------------------------
	 SCS Same-Spin Scale       =       0.3333333333333333 [-]
	 SCS Opposite-Spin Scale   =       1.2000000000000000 [-]
	 SCS Same-Spin Energy      =      -0.1587050662187441 [Eh]
	 SCS Opposite-Spin Energy  =      -1.7583976157498094 [Eh]
	 SCS Correlation Energy    =      -1.9171026819685535 [Eh]
	 SCS Total Energy          =    -475.1988089211362194 [Eh]
	-----------------------------------------------------------

  Dipole Moment: [D]
     X:     9.8978      Y:     1.5630      Z:     0.1366     Total:    10.0214

*** Psi4 exiting successfully. Buy a developer a beer!
