                               Psi4 1.3.2 release

  ==> Input File <==

--------------------------------------------------------------------------
#psi4
#
memory 32 gb

molecule  {
-1 1
  O        1.5553730    -1.4489990    -0.0078940
  O       -2.4744110     1.3948030    -0.0154550
  O       -3.5107590    -0.6422236    -0.0282132
  N       -0.0146490     0.2143920     0.0158120
  C        2.3272120     0.8379530     0.0018960
  C        1.2455030    -0.2240550     0.0044360
  C       -1.1767620    -0.6931674     0.0150296
  C        3.7164760     0.2336920    -0.0114620
  C       -2.5073920     0.1288020     0.0323140
  H        2.1647820     1.4966320    -0.8622200
  H        2.1776990     1.4878210     0.8748480
  H       -1.1517560    -1.3070500    -0.8570610
  H       -1.1395970    -1.3178250     0.8849180
  H       -0.2830670     1.1965190     0.0239890
  H        3.8663740    -0.3931470     0.8680960
  H        3.8530680    -0.3842560    -0.8995260
  H        4.4669480     1.0276640    -0.0135300
units angstrom
no_reorient  #important for SAPT in psi4, default
symmetry c1  #important for SAPT in psi4, default
}

set PROPERTIES_ORIGIN ["COM"]
properties('MP2/aug-cc-pvtz', properties = ['dipole'])
--------------------------------------------------------------------------

    Molecular point group: c1
  Charge       = -1
  Multiplicity = 1
  Basis Set: AUG-CC-PVTZ
    Blend: AUG-CC-PVTZ
  Basis Set: (AUG-CC-PVTZ AUX)
    Blend: AUG-CC-PVTZ-JKFIT

    Orbital Energies [Eh]
    ---------------------

    Doubly Occupied:

       1A    -20.387913     2A    -20.326647     3A    -20.312099
       4A    -15.447445     5A    -11.223893     6A    -11.166215
       7A    -11.135215     8A    -11.122408     9A    -11.106895
      10A     -1.230835    11A     -1.187871    12A     -1.093262
      13A     -1.084180    14A     -0.949594    15A     -0.833458
      16A     -0.758715    17A     -0.654713    18A     -0.584940
      19A     -0.540039    20A     -0.532943    21A     -0.504846
      22A     -0.486837    23A     -0.471779    24A     -0.427390
      25A     -0.423787    26A     -0.418246    27A     -0.412807
      28A     -0.395511    29A     -0.379290    30A     -0.347798
      31A     -0.300064    32A     -0.259209    33A     -0.239625
      34A     -0.223198    35A     -0.215984

  @DF-RHF Final Energy:  -473.28157844968661

   => Energetics <=

    Nuclear Repulsion Energy =            432.8771532618336551
    One-Electron Energy =               -1517.9461587978926218
    Two-Electron Energy =                 611.7874270863723041
    Total Energy =                       -473.2815784496866627
  Basis Set: (AUG-CC-PVTZ AUX)
    Blend: AUG-CC-PVTZ-RI
    Molecular point group: c1

    Geometry (in Angstrom), charge = -1, multiplicity = 1:

       Center              X                  Y                   Z               Mass
    ------------   -----------------  -----------------  -----------------  -----------------
         O            1.660987937635    -1.426562801547    -0.007301256940    15.994914619570
         O           -2.368796062365     1.417239198453    -0.014862256940    15.994914619570
         O           -3.405144062365    -0.619787401547    -0.027620456940    15.994914619570
         N            0.090965937635     0.236828198453     0.016404743060    14.003074004430
         C            2.432826937635     0.860389198453     0.002488743060    12.000000000000
         C            1.351117937635    -0.201618801547     0.005028743060    12.000000000000
         C           -1.071147062365    -0.670731201547     0.015622343060    12.000000000000
         C            3.822090937635     0.256128198453    -0.010869256940    12.000000000000
         C           -2.401777062365     0.151238198453     0.032906743060    12.000000000000
         H            2.270396937635     1.519068198453    -0.861627256940     1.007825032230
         H            2.283313937635     1.510257198453     0.875440743060     1.007825032230
         H           -1.046141062365    -1.284613801547    -0.856468256940     1.007825032230
         H           -1.033982062365    -1.295388801547     0.885510743060     1.007825032230
         H           -0.177452062365     1.218955198453     0.024581743060     1.007825032230
         H            3.971988937635    -0.370710801547     0.868688743060     1.007825032230
         H            3.958682937635    -0.361819801547    -0.898933256940     1.007825032230
         H            4.572562937635     1.050100198453    -0.012937256940     1.007825032230

  Basis Set: AUG-CC-PVTZ
    Blend: AUG-CC-PVTZ
  Basis Set: (AUG-CC-PVTZ AUX)
    Blend: AUG-CC-PVTZ-JKFIT
	 Reference Energy          =    -473.2815784496866058 [Eh]
	 Singles Energy            =      -0.0000000000000000 [Eh]
	 Same-Spin Energy          =      -0.4758448271348874 [Eh]
	 Opposite-Spin Energy      =      -1.4654251167722734 [Eh]
	 Correlation Energy        =      -1.9412699439071608 [Eh]
	 Total Energy              =    -475.2228483935937788 [Eh]

	 ================> DF-SCS-MP2 Energies <==================
	-----------------------------------------------------------
	 SCS Same-Spin Scale       =       0.3333333333333333 [-]
	 SCS Opposite-Spin Scale   =       1.2000000000000000 [-]
	 SCS Same-Spin Energy      =      -0.1586149423782958 [Eh]
	 SCS Opposite-Spin Energy  =      -1.7585101401267280 [Eh]
	 SCS Correlation Energy    =      -1.9171250825050239 [Eh]
	 SCS Total Energy          =    -475.1987035321916437 [Eh]
	-----------------------------------------------------------

  Dipole Moment: [D]
     X:     9.6290      Y:     1.5642      Z:     0.1352     Total:     9.7562

*** Psi4 exiting successfully. Buy a developer a beer!
