                               Psi4 1.3.2 release

  ==> Input File <==

--------------------------------------------------------------------------
#psi4
#
memory 32 gb

molecule  {
-1 1
  O        1.5553730    -1.4489990    -0.0078940
  O       -2.4744110     1.3948030    -0.0154550
  O       -3.5371250    -0.6067510    -0.0268560
  N       -0.0146490     0.2143920     0.0158120
  C        2.3272120     0.8379530     0.0018960
  C        1.2667253    -0.1575017     0.0047153
  C       -1.1923887    -0.5857741     0.0187378
  C        3.7164760     0.2336920    -0.0114620
  C       -2.5073920     0.1288020     0.0323140
  H        2.1647820     1.4966320    -0.8622200
  H        2.1776990     1.4878210     0.8748480
  H       -1.1517560    -1.3070500    -0.8570610
  H       -1.1395970    -1.3178250     0.8849180
  H       -0.2830670     1.1965190     0.0239890
  H        3.8663740    -0.3931470     0.8680960
  H        3.8530680    -0.3842560    -0.8995260
  H        4.4669480     1.0276640    -0.0135300
units angstrom
no_reorient  #important for SAPT in psi4, default
symmetry c1  #important for SAPT in psi4, default
}

set PROPERTIES_ORIGIN ["COM"]
properties('MP2/aug-cc-pvtz', properties = ['dipole'])
--------------------------------------------------------------------------

    Molecular point group: c1
  Charge       = -1
  Multiplicity = 1
  Basis Set: AUG-CC-PVTZ
    Blend: AUG-CC-PVTZ
  Basis Set: (AUG-CC-PVTZ AUX)
    Blend: AUG-CC-PVTZ-JKFIT

    Orbital Energies [Eh]
    ---------------------

    Doubly Occupied:

       1A    -20.383318     2A    -20.321789     3A    -20.311219
       4A    -15.458025     5A    -11.232217     6A    -11.163063
       7A    -11.141607     8A    -11.127341     9A    -11.117242
      10A     -1.209772    11A     -1.188291    12A     -1.096561
      13A     -1.082336    14A     -0.964837    15A     -0.846841
      16A     -0.771426    17A     -0.657844    18A     -0.598979
      19A     -0.558160    20A     -0.541372    21A     -0.500164
      22A     -0.478071    23A     -0.466090    24A     -0.435185
      25A     -0.429727    26A     -0.418947    27A     -0.409466
      28A     -0.389366    29A     -0.374290    30A     -0.330187
      31A     -0.300049    32A     -0.250389    33A     -0.238270
      34A     -0.230482    35A     -0.213415

  @DF-RHF Final Energy:  -473.26101502667586

   => Energetics <=

    Nuclear Repulsion Energy =            433.6197647497941716
    One-Electron Energy =               -1519.2888818383780745
    Two-Electron Energy =                 612.4081020619079254
    Total Energy =                       -473.2610150266758637
  Basis Set: (AUG-CC-PVTZ AUX)
    Blend: AUG-CC-PVTZ-RI
    Molecular point group: c1

    Geometry (in Angstrom), charge = -1, multiplicity = 1:

       Center              X                  Y                   Z               Mass
    ------------   -----------------  -----------------  -----------------  -----------------
         O            1.663714378073    -1.446975964739    -0.007836113338    15.994914619570
         O           -2.366069621927     1.396826035261    -0.015397113338    15.994914619570
         O           -3.428783621927    -0.604727964739    -0.026798113338    15.994914619570
         N            0.093692378073     0.216415035261     0.015869886662    14.003074004430
         C            2.435553378073     0.839976035261     0.001953886662    12.000000000000
         C            1.375066678073    -0.155478664739     0.004773186662    12.000000000000
         C           -1.084047321927    -0.583751064739     0.018795686662    12.000000000000
         C            3.824817378073     0.235715035261    -0.011404113338    12.000000000000
         C           -2.399050621927     0.130825035261     0.032371886662    12.000000000000
         H            2.273123378073     1.498655035261    -0.862162113338     1.007825032230
         H            2.286040378073     1.489844035261     0.874905886662     1.007825032230
         H           -1.043414621927    -1.305026964739    -0.857003113338     1.007825032230
         H           -1.031255621927    -1.315801964739     0.884975886662     1.007825032230
         H           -0.174725621927     1.198542035261     0.024046886662     1.007825032230
         H            3.974715378073    -0.391123964739     0.868153886662     1.007825032230
         H            3.961409378073    -0.382232964739    -0.899468113338     1.007825032230
         H            4.575289378073     1.029687035261    -0.013472113338     1.007825032230

  Basis Set: AUG-CC-PVTZ
    Blend: AUG-CC-PVTZ
  Basis Set: (AUG-CC-PVTZ AUX)
    Blend: AUG-CC-PVTZ-JKFIT
	 Reference Energy          =    -473.2610150266758637 [Eh]
	 Singles Energy            =      -0.0000000000000000 [Eh]
	 Same-Spin Energy          =      -0.4782208229771305 [Eh]
	 Opposite-Spin Energy      =      -1.4693348207133625 [Eh]
	 Correlation Energy        =      -1.9475556436904931 [Eh]
	 Total Energy              =    -475.2085706703663845 [Eh]

	 ================> DF-SCS-MP2 Energies <==================
	-----------------------------------------------------------
	 SCS Same-Spin Scale       =       0.3333333333333333 [-]
	 SCS Opposite-Spin Scale   =       1.2000000000000000 [-]
	 SCS Same-Spin Energy      =      -0.1594069409923768 [Eh]
	 SCS Opposite-Spin Energy  =      -1.7632017848560351 [Eh]
	 SCS Correlation Energy    =      -1.9226087258484119 [Eh]
	 SCS Total Energy          =    -475.1836237525242836 [Eh]
	-----------------------------------------------------------

  Dipole Moment: [D]
     X:     9.9485      Y:     1.9268      Z:     0.1386     Total:    10.1343

*** Psi4 exiting successfully. Buy a developer a beer!
