                               Psi4 1.4a3.dev225

  ==> Input File <==

--------------------------------------------------------------------------
#psi4
#
memory 32 gb

molecule  {
-1 1
  O       -1.5186010     1.5599430    -0.1433510
  O        2.2638970    -1.4295650    -0.0456660
  O        3.5317420     0.4486470     0.1950180
  N        0.0040180    -0.1295860    -0.1151350
  C       -2.3384940    -0.6954940    -0.4149760
  C       -1.2508570     0.3439190    -0.2101810
  C        1.1754880     0.7048690     0.0403840
  C       -3.5055210    -0.4701880     0.5431350
  C        2.4494443    -0.1596063     0.0672955
  H       -2.6873130    -0.6028840    -1.4504550
  H       -1.9319890    -1.7056860    -0.3020050
  H        1.2516430     1.4279040    -0.7806770
  H        1.1211640     1.2868180     0.9683990
  H        0.2309340    -1.1197490    -0.1755670
  H       -3.1861080    -0.6022700     1.5809140
  H       -3.8905480     0.5449040     0.4307430
  H       -4.3152940    -1.1768540     0.3431720
units angstrom
no_reorient  #important for SAPT in psi4, default
symmetry c1  #important for SAPT in psi4, default
}

set PROPERTIES_ORIGIN ["COM"]
properties('MP2/aug-cc-pvtz', properties = ['dipole'])
--------------------------------------------------------------------------

    Molecular point group: c1
  Charge       = -1
  Multiplicity = 1
  Basis Set: AUG-CC-PVTZ
    Blend: AUG-CC-PVTZ
  Basis Set: (AUG-CC-PVTZ AUX)
    Blend: AUG-CC-PVTZ-JKFIT

    Orbital Energies [Eh]
    ---------------------

    Doubly Occupied:

       1A    -20.387106     2A    -20.318026     3A    -20.317677
       4A    -15.445075     5A    -11.222064     6A    -11.163989
       7A    -11.135239     8A    -11.127747     9A    -11.109884
      10A     -1.238389    11A     -1.189020    12A     -1.098201
      13A     -1.077818    14A     -0.949510    15A     -0.832793
      16A     -0.760832    17A     -0.652462    18A     -0.586217
      19A     -0.545971    20A     -0.526638    21A     -0.501877
      22A     -0.486089    23A     -0.474851    24A     -0.437278
      25A     -0.428654    26A     -0.419962    27A     -0.407191
      28A     -0.393095    29A     -0.380690    30A     -0.344035
      31A     -0.298695    32A     -0.256126    33A     -0.236334
      34A     -0.228326    35A     -0.215495

  @DF-RHF Final Energy:  -473.28699853679279

   => Energetics <=

    Nuclear Repulsion Energy =            435.1916574877603239
    One-Electron Energy =               -1522.5706009783411901
    Two-Electron Energy =                 614.0919449537881292
    Total Energy =                       -473.2869985367927939
  Basis Set: (AUG-CC-PVTZ AUX)
    Blend: AUG-CC-PVTZ-RI
    Molecular point group: c1

    Geometry (in Angstrom), charge = -1, multiplicity = 1:

       Center              X                  Y                   Z               Mass
    ------------   -----------------  -----------------  -----------------  -----------------
         O           -1.620987601848     1.543289529829    -0.138821712196    15.994914619570
         O            2.161510398152    -1.446218470171    -0.041136712196    15.994914619570
         O            3.429355398152     0.431993529829     0.199547287804    15.994914619570
         N           -0.098368601848    -0.146239470171    -0.110605712196    14.003074004430
         C           -2.440880601848    -0.712147470171    -0.410446712196    12.000000000000
         C           -1.353243601848     0.327265529829    -0.205651712196    12.000000000000
         C            1.073101398152     0.688215529829     0.044913287804    12.000000000000
         C           -3.607907601848    -0.486841470171     0.547664287804    12.000000000000
         C            2.347057698152    -0.176259770171     0.071824787804    12.000000000000
         H           -2.789699601848    -0.619537470171    -1.445925712196     1.007825032230
         H           -2.034375601848    -1.722339470171    -0.297475712196     1.007825032230
         H            1.149256398152     1.411250529829    -0.776147712196     1.007825032230
         H            1.018777398152     1.270164529829     0.972928287804     1.007825032230
         H            0.128547398152    -1.136402470171    -0.171037712196     1.007825032230
         H           -3.288494601848    -0.618923470171     1.585443287804     1.007825032230
         H           -3.992934601848     0.528250529829     0.435272287804     1.007825032230
         H           -4.417680601848    -1.193507470171     0.347701287804     1.007825032230

  Basis Set: AUG-CC-PVTZ
    Blend: AUG-CC-PVTZ
  Basis Set: (AUG-CC-PVTZ AUX)
    Blend: AUG-CC-PVTZ-JKFIT
	 Reference Energy          =    -473.2869985367927939 [Eh]
	 Singles Energy            =      -0.0000000000000000 [Eh]
	 Same-Spin Energy          =      -0.4759440675012641 [Eh]
	 Opposite-Spin Energy      =      -1.4650701043175121 [Eh]
	 Correlation Energy        =      -1.9410141718187761 [Eh]
	 Total Energy              =    -475.2280127086115726 [Eh]

	 ================> DF-SCS-MP2 Energies <==================
	-----------------------------------------------------------
	 SCS Same-Spin Scale       =       0.3333333333333333 [-]
	 SCS Opposite-Spin Scale   =       1.2000000000000000 [-]
	 SCS Same-Spin Energy      =      -0.1586480225004213 [Eh]
	 SCS Opposite-Spin Energy  =      -1.7580841251810144 [Eh]
	 SCS Correlation Energy    =      -1.9167321476814358 [Eh]
	 SCS Total Energy          =    -475.2037306844742375 [Eh]
	-----------------------------------------------------------

  Dipole Moment: [D]
     X:    -9.3112      Y:    -0.9634      Z:    -0.3929     Total:     9.3691

*** Psi4 exiting successfully. Buy a developer a beer!
