                               Psi4 1.3.2 release

  ==> Input File <==

--------------------------------------------------------------------------
#psi4
#
memory 32 gb

molecule  {
-1 1
  O        1.5979355    -1.4374365    -0.0080532
  O       -2.4744110     1.3948030    -0.0154550
  O       -3.5371250    -0.6067510    -0.0268560
  N        0.0014228     0.2581036     0.0160876
  C        2.3272120     0.8379530     0.0018960
  C        1.2455030    -0.2240550     0.0044360
  C       -1.1489000    -0.6463140     0.0180560
  C        3.7164760     0.2336920    -0.0114620
  C       -2.5073920     0.1288020     0.0323140
  H        2.1647820     1.4966320    -0.8622200
  H        2.1776990     1.4878210     0.8748480
  H       -1.1517560    -1.3070500    -0.8570610
  H       -1.1395970    -1.3178250     0.8849180
  H       -0.2830670     1.1965190     0.0239890
  H        3.8663740    -0.3931470     0.8680960
  H        3.8530680    -0.3842560    -0.8995260
  H        4.4669480     1.0276640    -0.0135300
units angstrom
no_reorient  #important for SAPT in psi4, default
symmetry c1  #important for SAPT in psi4, default
}

set PROPERTIES_ORIGIN ["COM"]
properties('MP2/aug-cc-pvtz', properties = ['dipole'])
--------------------------------------------------------------------------

    Molecular point group: c1
  Charge       = -1
  Multiplicity = 1
  Basis Set: AUG-CC-PVTZ
    Blend: AUG-CC-PVTZ
  Basis Set: (AUG-CC-PVTZ AUX)
    Blend: AUG-CC-PVTZ-JKFIT

    Orbital Energies [Eh]
    ---------------------

    Doubly Occupied:

       1A    -20.394427     2A    -20.323239     3A    -20.311991
       4A    -15.452133     5A    -11.229124     6A    -11.165812
       7A    -11.132959     8A    -11.121122     9A    -11.113706
      10A     -1.234988    11A     -1.187952    12A     -1.104431
      13A     -1.083472    14A     -0.948496    15A     -0.833240
      16A     -0.757978    17A     -0.673406    18A     -0.586942
      19A     -0.541298    20A     -0.533176    21A     -0.507945
      22A     -0.481091    23A     -0.475764    24A     -0.429714
      25A     -0.421499    26A     -0.416556    27A     -0.412673
      28A     -0.397073    29A     -0.379834    30A     -0.345174
      31A     -0.302690    32A     -0.264023    33A     -0.236271
      34A     -0.225551    35A     -0.214459

  @DF-RHF Final Energy:  -473.27941428239757

   => Energetics <=

    Nuclear Repulsion Energy =            432.8905240787618141
    One-Electron Energy =               -1517.8594555173574463
    Two-Electron Energy =                 611.6895171561978941
    Total Energy =                       -473.2794142823976244
  Basis Set: (AUG-CC-PVTZ AUX)
    Blend: AUG-CC-PVTZ-RI
    Molecular point group: c1

    Geometry (in Angstrom), charge = -1, multiplicity = 1:

       Center              X                  Y                   Z               Mass
    ------------   -----------------  -----------------  -----------------  -----------------
         O            1.697257030423    -1.429815017302    -0.007916725792    15.994914619570
         O           -2.375089469577     1.402424482698    -0.015318525792    15.994914619570
         O           -3.437803469577    -0.599129517302    -0.026719525792    15.994914619570
         N            0.100744330423     0.265725082698     0.016224074208    14.003074004430
         C            2.426533530423     0.845574482698     0.002032474208    12.000000000000
         C            1.344824530423    -0.216433517302     0.004572474208    12.000000000000
         C           -1.049578469577    -0.638692517302     0.018192474208    12.000000000000
         C            3.815797530423     0.241313482698    -0.011325525792    12.000000000000
         C           -2.408070469577     0.136423482698     0.032450474208    12.000000000000
         H            2.264103530423     1.504253482698    -0.862083525792     1.007825032230
         H            2.277020530423     1.495442482698     0.874984474208     1.007825032230
         H           -1.052434469577    -1.299428517302    -0.856924525792     1.007825032230
         H           -1.040275469577    -1.310203517302     0.885054474208     1.007825032230
         H           -0.183745469577     1.204140482698     0.024125474208     1.007825032230
         H            3.965695530423    -0.385525517302     0.868232474208     1.007825032230
         H            3.952389530423    -0.376634517302    -0.899389525792     1.007825032230
         H            4.566269530423     1.035285482698    -0.013393525792     1.007825032230

  Basis Set: AUG-CC-PVTZ
    Blend: AUG-CC-PVTZ
  Basis Set: (AUG-CC-PVTZ AUX)
    Blend: AUG-CC-PVTZ-JKFIT
	 Reference Energy          =    -473.2794142823975676 [Eh]
	 Singles Energy            =      -0.0000000000000000 [Eh]
	 Same-Spin Energy          =      -0.4757888742879133 [Eh]
	 Opposite-Spin Energy      =      -1.4652131347241073 [Eh]
	 Correlation Energy        =      -1.9410020090120206 [Eh]
	 Total Energy              =    -475.2204162914096059 [Eh]

	 ================> DF-SCS-MP2 Energies <==================
	-----------------------------------------------------------
	 SCS Same-Spin Scale       =       0.3333333333333333 [-]
	 SCS Opposite-Spin Scale   =       1.2000000000000000 [-]
	 SCS Same-Spin Energy      =      -0.1585962914293044 [Eh]
	 SCS Opposite-Spin Energy  =      -1.7582557616689287 [Eh]
	 SCS Correlation Energy    =      -1.9168520530982331 [Eh]
	 SCS Total Energy          =    -475.1962663354958067 [Eh]
	-----------------------------------------------------------

  Dipole Moment: [D]
     X:     9.7364      Y:     1.4502      Z:     0.1369     Total:     9.8448

*** Psi4 exiting successfully. Buy a developer a beer!
