                               Psi4 1.4a3.dev225

  ==> Input File <==

--------------------------------------------------------------------------
#psi4
#
memory 32 gb

molecule  {
-1 1
  O       -1.5186010     1.5599430    -0.1433510
  O        2.2638970    -1.4295650    -0.0456660
  O        3.5317420     0.4486470     0.1950180
  N        0.0040180    -0.1295860    -0.1151350
  C       -2.3384940    -0.6954940    -0.4149760
  C       -1.2508570     0.3439190    -0.2101810
  C        1.1754880     0.7048690     0.0403840
  C       -3.5055210    -0.4701880     0.5431350
  C        2.4465640    -0.1793200     0.0655420
  H       -2.6873130    -0.6028840    -1.4504550
  H       -1.9319890    -1.7056860    -0.3020050
  H        1.2516430     1.4279040    -0.7806770
  H        1.1186874     1.3133490     1.0107071
  H        0.2309340    -1.1197490    -0.1755670
  H       -3.1861080    -0.6022700     1.5809140
  H       -3.8905480     0.5449040     0.4307430
  H       -4.3152940    -1.1768540     0.3431720
units angstrom
no_reorient  #important for SAPT in psi4, default
symmetry c1  #important for SAPT in psi4, default
}

set PROPERTIES_ORIGIN ["COM"]
properties('MP2/aug-cc-pvtz', properties = ['dipole'])
--------------------------------------------------------------------------

    Molecular point group: c1
  Charge       = -1
  Multiplicity = 1
  Basis Set: AUG-CC-PVTZ
    Blend: AUG-CC-PVTZ
  Basis Set: (AUG-CC-PVTZ AUX)
    Blend: AUG-CC-PVTZ-JKFIT

    Orbital Energies [Eh]
    ---------------------

    Doubly Occupied:

       1A    -20.387320     2A    -20.322915     3A    -20.313780
       4A    -15.445607     5A    -11.222184     6A    -11.164272
       7A    -11.135476     8A    -11.127920     9A    -11.114860
      10A     -1.238515    11A     -1.190573    12A     -1.097483
      13A     -1.081946    14A     -0.949610    15A     -0.829252
      16A     -0.758834    17A     -0.651880    18A     -0.585680
      19A     -0.545518    20A     -0.525549    21A     -0.502233
      22A     -0.483424    23A     -0.473376    24A     -0.436079
      25A     -0.427447    26A     -0.419808    27A     -0.407691
      28A     -0.393533    29A     -0.380840    30A     -0.343813
      31A     -0.298710    32A     -0.255626    33A     -0.239061
      34A     -0.226156    35A     -0.216039

  @DF-RHF Final Energy:  -473.28568848832964

   => Energetics <=

    Nuclear Repulsion Energy =            434.9884578614812654
    One-Electron Energy =               -1522.1622693234696726
    Two-Electron Energy =                 613.8881229736587102
    Total Energy =                       -473.2856884883296971
  Basis Set: (AUG-CC-PVTZ AUX)
    Blend: AUG-CC-PVTZ-RI
    Molecular point group: c1

    Geometry (in Angstrom), charge = -1, multiplicity = 1:

       Center              X                  Y                   Z               Mass
    ------------   -----------------  -----------------  -----------------  -----------------
         O           -1.620702638677     1.544902948664    -0.138987779807    15.994914619570
         O            2.161795361323    -1.444605051336    -0.041302779807    15.994914619570
         O            3.429640361323     0.433606948664     0.199381220193    15.994914619570
         N           -0.098083638677    -0.144626051336    -0.110771779807    14.003074004430
         C           -2.440595638677    -0.710534051336    -0.410612779807    12.000000000000
         C           -1.352958638677     0.328878948664    -0.205817779807    12.000000000000
         C            1.073386361323     0.689828948664     0.044747220193    12.000000000000
         C           -3.607622638677    -0.485228051336     0.547498220193    12.000000000000
         C            2.344462361323    -0.194360051336     0.069905220193    12.000000000000
         H           -2.789414638677    -0.617924051336    -1.446091779807     1.007825032230
         H           -2.034090638677    -1.720726051336    -0.297641779807     1.007825032230
         H            1.149541361323     1.412863948664    -0.776313779807     1.007825032230
         H            1.016585761323     1.298308948664     1.015070320193     1.007825032230
         H            0.128832361323    -1.134789051336    -0.171203779807     1.007825032230
         H           -3.288209638677    -0.617310051336     1.585277220193     1.007825032230
         H           -3.992649638677     0.529863948664     0.435106220193     1.007825032230
         H           -4.417395638677    -1.191894051336     0.347535220193     1.007825032230

  Basis Set: AUG-CC-PVTZ
    Blend: AUG-CC-PVTZ
  Basis Set: (AUG-CC-PVTZ AUX)
    Blend: AUG-CC-PVTZ-JKFIT
	 Reference Energy          =    -473.2856884883296402 [Eh]
	 Singles Energy            =      -0.0000000000000000 [Eh]
	 Same-Spin Energy          =      -0.4758982260670753 [Eh]
	 Opposite-Spin Energy      =      -1.4651616523512327 [Eh]
	 Correlation Energy        =      -1.9410598784183080 [Eh]
	 Total Energy              =    -475.2267483667479269 [Eh]

	 ================> DF-SCS-MP2 Energies <==================
	-----------------------------------------------------------
	 SCS Same-Spin Scale       =       0.3333333333333333 [-]
	 SCS Opposite-Spin Scale   =       1.2000000000000000 [-]
	 SCS Same-Spin Energy      =      -0.1586327420223584 [Eh]
	 SCS Opposite-Spin Energy  =      -1.7581939828214792 [Eh]
	 SCS Correlation Energy    =      -1.9168267248438375 [Eh]
	 SCS Total Energy          =    -475.2025152131734558 [Eh]
	-----------------------------------------------------------

  Dipole Moment: [D]
     X:    -9.3884      Y:    -1.1574      Z:    -0.4329     Total:     9.4694

*** Psi4 exiting successfully. Buy a developer a beer!
