                               Psi4 1.3.2 release

  ==> Input File <==

--------------------------------------------------------------------------
#psi4
#
memory 32 gb

molecule  {
-1 1
  O        1.5553730    -1.4489990    -0.0078940
  O       -2.4744110     1.3948030    -0.0154550
  O       -3.5371250    -0.6067510    -0.0268560
  N       -0.0612466     0.2725727     0.0165035
  C        2.3272120     0.8379530     0.0018960
  C        1.2455030    -0.2240550     0.0044360
  C       -1.1489000    -0.6463140     0.0180560
  C        3.7164760     0.2336920    -0.0114620
  C       -2.4649608     0.1988397     0.0324725
  H        2.1647820     1.4966320    -0.8622200
  H        2.1776990     1.4878210     0.8748480
  H       -1.1517560    -1.3070500    -0.8570610
  H       -1.1395970    -1.3178250     0.8849180
  H       -0.2830670     1.1965190     0.0239890
  H        3.8663740    -0.3931470     0.8680960
  H        3.8530680    -0.3842560    -0.8995260
  H        4.4669480     1.0276640    -0.0135300
units angstrom
no_reorient  #important for SAPT in psi4, default
symmetry c1  #important for SAPT in psi4, default
}

set PROPERTIES_ORIGIN ["COM"]
properties('MP2/aug-cc-pvtz', properties = ['dipole'])
--------------------------------------------------------------------------

    Molecular point group: c1
  Charge       = -1
  Multiplicity = 1
  Basis Set: AUG-CC-PVTZ
    Blend: AUG-CC-PVTZ
  Basis Set: (AUG-CC-PVTZ AUX)
    Blend: AUG-CC-PVTZ-JKFIT

    Orbital Energies [Eh]
    ---------------------

    Doubly Occupied:

       1A    -20.406754     2A    -20.337065     3A    -20.287117
       4A    -15.445765     5A    -11.240386     6A    -11.158222
       7A    -11.140939     8A    -11.127251     9A    -11.106190
      10A     -1.239033    11A     -1.213565    12A     -1.099291
      13A     -1.051680    14A     -0.956021    15A     -0.829413
      16A     -0.760118    17A     -0.671128    18A     -0.591335
      19A     -0.537491    20A     -0.536673    21A     -0.514314
      22A     -0.486135    23A     -0.481052    24A     -0.433850
      25A     -0.424881    26A     -0.419052    27A     -0.418946
      28A     -0.398781    29A     -0.382197    30A     -0.351853
      31A     -0.310233    32A     -0.259730    33A     -0.232411
      34A     -0.205292    35A     -0.198889

  @DF-RHF Final Energy:  -473.26143229458086

   => Energetics <=

    Nuclear Repulsion Energy =            433.1023518098517116
    One-Electron Energy =               -1518.2214601660564313
    Two-Electron Energy =                 611.8576760616240335
    Total Energy =                       -473.2614322945807999
  Basis Set: (AUG-CC-PVTZ AUX)
    Blend: AUG-CC-PVTZ-RI
    Molecular point group: c1

    Geometry (in Angstrom), charge = -1, multiplicity = 1:

       Center              X                  Y                   Z               Mass
    ------------   -----------------  -----------------  -----------------  -----------------
         O            1.662761966227    -1.447975904990    -0.007836512611    15.994914619570
         O           -2.367022033773     1.395826095010    -0.015397512611    15.994914619570
         O           -3.429736033773    -0.605727904990    -0.026798512611    15.994914619570
         N            0.046142366227     0.273595795010     0.016560987389    14.003074004430
         C            2.434600966227     0.838976095010     0.001953487389    12.000000000000
         C            1.352891966227    -0.223031904990     0.004493487389    12.000000000000
         C           -1.041511033773    -0.645290904990     0.018113487389    12.000000000000
         C            3.823864966227     0.234715095010    -0.011404512611    12.000000000000
         C           -2.357571833773     0.199862795010     0.032529987389    12.000000000000
         H            2.272170966227     1.497655095010    -0.862162512611     1.007825032230
         H            2.285087966227     1.488844095010     0.874905487389     1.007825032230
         H           -1.044367033773    -1.306026904990    -0.857003512611     1.007825032230
         H           -1.032208033773    -1.316801904990     0.884975487389     1.007825032230
         H           -0.175678033773     1.197542095010     0.024046487389     1.007825032230
         H            3.973762966227    -0.392123904990     0.868153487389     1.007825032230
         H            3.960456966227    -0.383232904990    -0.899468512611     1.007825032230
         H            4.574336966227     1.028687095010    -0.013472512611     1.007825032230

  Basis Set: AUG-CC-PVTZ
    Blend: AUG-CC-PVTZ
  Basis Set: (AUG-CC-PVTZ AUX)
    Blend: AUG-CC-PVTZ-JKFIT
	 Reference Energy          =    -473.2614322945808567 [Eh]
	 Singles Energy            =      -0.0000000000000000 [Eh]
	 Same-Spin Energy          =      -0.4760205746892395 [Eh]
	 Opposite-Spin Energy      =      -1.4659229221133869 [Eh]
	 Correlation Energy        =      -1.9419434968026263 [Eh]
	 Total Energy              =    -475.2033757913835075 [Eh]

	 ================> DF-SCS-MP2 Energies <==================
	-----------------------------------------------------------
	 SCS Same-Spin Scale       =       0.3333333333333333 [-]
	 SCS Opposite-Spin Scale   =       1.2000000000000000 [-]
	 SCS Same-Spin Energy      =      -0.1586735248964132 [Eh]
	 SCS Opposite-Spin Energy  =      -1.7591075065360642 [Eh]
	 SCS Correlation Energy    =      -1.9177810314324772 [Eh]
	 SCS Total Energy          =    -475.1792133260133255 [Eh]
	-----------------------------------------------------------

  Dipole Moment: [D]
     X:    10.8397      Y:     2.1187      Z:     0.1374     Total:    11.0457

*** Psi4 exiting successfully. Buy a developer a beer!
