                               Psi4 1.3.2 release

  ==> Input File <==

--------------------------------------------------------------------------
#psi4
#
memory 32 gb

molecule  {
-1 1
  O        1.5553730    -1.4489990    -0.0078940
  O       -2.4744110     1.3948030    -0.0154550
  O       -3.5371250    -0.6067510    -0.0268560
  N       -0.0146490     0.2143920     0.0158120
  C        2.3272120     0.8379530     0.0018960
  C        1.2253509    -0.2023157    -0.0393933
  C       -1.1489000    -0.6463140     0.0180560
  C        3.7164760     0.2336920    -0.0114620
  C       -2.5073920     0.1288020     0.0323140
  H        2.1341587     1.4755732    -0.8716651
  H        2.1776990     1.4878210     0.8748480
  H       -1.1517560    -1.3070500    -0.8570610
  H       -1.1395970    -1.3178250     0.8849180
  H       -0.2830670     1.1965190     0.0239890
  H        3.8663740    -0.3931470     0.8680960
  H        3.8530680    -0.3842560    -0.8995260
  H        4.4669480     1.0276640    -0.0135300
units angstrom
no_reorient  #important for SAPT in psi4, default
symmetry c1  #important for SAPT in psi4, default
}

set PROPERTIES_ORIGIN ["COM"]
properties('MP2/aug-cc-pvtz', properties = ['dipole'])
--------------------------------------------------------------------------

    Molecular point group: c1
  Charge       = -1
  Multiplicity = 1
  Basis Set: AUG-CC-PVTZ
    Blend: AUG-CC-PVTZ
  Basis Set: (AUG-CC-PVTZ AUX)
    Blend: AUG-CC-PVTZ-JKFIT

    Orbital Energies [Eh]
    ---------------------

    Doubly Occupied:

       1A    -20.384408     2A    -20.324490     3A    -20.312641
       4A    -15.456801     5A    -11.225790     6A    -11.166772
       7A    -11.137941     8A    -11.123740     9A    -11.111805
      10A     -1.223289    11A     -1.188321    12A     -1.106523
      13A     -1.084577    14A     -0.951488    15A     -0.841609
      16A     -0.760922    17A     -0.665228    18A     -0.588905
      19A     -0.545246    20A     -0.535938    21A     -0.507174
      22A     -0.486931    23A     -0.469778    24A     -0.428001
      25A     -0.427138    26A     -0.416904    27A     -0.410435
      28A     -0.395459    29A     -0.378225    30A     -0.342299
      31A     -0.297375    32A     -0.259567    33A     -0.237166
      34A     -0.226855    35A     -0.215144

  @DF-RHF Final Energy:  -473.27653242332116

   => Energetics <=

    Nuclear Repulsion Energy =            433.4602754971789409
    One-Electron Energy =               -1519.0038458230105789
    Two-Electron Energy =                 612.2670379025105376
    Total Energy =                       -473.2765324233212141
  Basis Set: (AUG-CC-PVTZ AUX)
    Blend: AUG-CC-PVTZ-RI
    Molecular point group: c1

    Geometry (in Angstrom), charge = -1, multiplicity = 1:

       Center              X                  Y                   Z               Mass
    ------------   -----------------  -----------------  -----------------  -----------------
         O            1.663756602684    -1.437091564486    -0.003630022991    15.994914619570
         O           -2.366027397316     1.406710435514    -0.011191022991    15.994914619570
         O           -3.428741397316    -0.594843564486    -0.022592022991    15.994914619570
         N            0.093734602684     0.226299435514     0.020075977009    14.003074004430
         C            2.435595602684     0.849860435514     0.006159977009    12.000000000000
         C            1.333734502684    -0.190408264486    -0.035129322991    12.000000000000
         C           -1.040516397316    -0.634406564486     0.022319977009    12.000000000000
         C            3.824859602684     0.245599435514    -0.007198022991    12.000000000000
         C           -2.399008397316     0.140709435514     0.036577977009    12.000000000000
         H            2.242542302684     1.487480635514    -0.867401122991     1.007825032230
         H            2.286082602684     1.499728435514     0.879111977009     1.007825032230
         H           -1.043372397316    -1.295142564486    -0.852797022991     1.007825032230
         H           -1.031213397316    -1.305917564486     0.889181977009     1.007825032230
         H           -0.174683397316     1.208426435514     0.028252977009     1.007825032230
         H            3.974757602684    -0.381239564486     0.872359977009     1.007825032230
         H            3.961451602684    -0.372348564486    -0.895262022991     1.007825032230
         H            4.575331602684     1.039571435514    -0.009266022991     1.007825032230

  Basis Set: AUG-CC-PVTZ
    Blend: AUG-CC-PVTZ
  Basis Set: (AUG-CC-PVTZ AUX)
    Blend: AUG-CC-PVTZ-JKFIT
	 Reference Energy          =    -473.2765324233211572 [Eh]
	 Singles Energy            =      -0.0000000000000000 [Eh]
	 Same-Spin Energy          =      -0.4765981633355394 [Eh]
	 Opposite-Spin Energy      =      -1.4662927029432804 [Eh]
	 Correlation Energy        =      -1.9428908662788198 [Eh]
	 Total Energy              =    -475.2194232896000017 [Eh]

	 ================> DF-SCS-MP2 Energies <==================
	-----------------------------------------------------------
	 SCS Same-Spin Scale       =       0.3333333333333333 [-]
	 SCS Opposite-Spin Scale   =       1.2000000000000000 [-]
	 SCS Same-Spin Energy      =      -0.1588660544451798 [Eh]
	 SCS Opposite-Spin Energy  =      -1.7595512435319365 [Eh]
	 SCS Correlation Energy    =      -1.9184172979771164 [Eh]
	 SCS Total Energy          =    -475.1949497212982578 [Eh]
	-----------------------------------------------------------

  Dipole Moment: [D]
     X:     9.6605      Y:     1.7044      Z:     0.1031     Total:     9.8103

*** Psi4 exiting successfully. Buy a developer a beer!
