                               Psi4 1.3.2 release

  ==> Input File <==

--------------------------------------------------------------------------
#psi4
#
memory 32 gb

molecule  {
-1 1
  O        1.5553730    -1.4489990    -0.0078940
  O       -2.4744110     1.3948030    -0.0154550
  O       -3.5371250    -0.6067510    -0.0268560
  N       -0.0146490     0.2143920     0.0158120
  C        2.3272120     0.8379530     0.0018960
  C        1.2832235    -0.2611583     0.0039671
  C       -1.1489000    -0.6463140     0.0180560
  C        3.6945398     0.1855740    -0.0115468
  C       -2.5073920     0.1288020     0.0323140
  H        2.1647820     1.4966320    -0.8622200
  H        2.1776990     1.4878210     0.8748480
  H       -1.1517560    -1.3070500    -0.8570610
  H       -1.1395970    -1.3178250     0.8849180
  H       -0.2830670     1.1965190     0.0239890
  H        3.8663740    -0.3931470     0.8680960
  H        3.8530680    -0.3842560    -0.8995260
  H        4.4669480     1.0276640    -0.0135300
units angstrom
no_reorient  #important for SAPT in psi4, default
symmetry c1  #important for SAPT in psi4, default
}

set PROPERTIES_ORIGIN ["COM"]
properties('MP2/aug-cc-pvtz', properties = ['dipole'])
--------------------------------------------------------------------------

    Molecular point group: c1
  Charge       = -1
  Multiplicity = 1
  Basis Set: AUG-CC-PVTZ
    Blend: AUG-CC-PVTZ
  Basis Set: (AUG-CC-PVTZ AUX)
    Blend: AUG-CC-PVTZ-JKFIT

    Orbital Energies [Eh]
    ---------------------

    Doubly Occupied:

       1A    -20.403745     2A    -20.318738     3A    -20.307375
       4A    -15.440149     5A    -11.228978     6A    -11.160842
       7A    -11.137824     8A    -11.126270     9A    -11.103304
      10A     -1.263777    11A     -1.183554    12A     -1.090301
      13A     -1.077176    14A     -0.955320    15A     -0.827106
      16A     -0.754981    17A     -0.651249    18A     -0.590863
      19A     -0.541327    20A     -0.541014    21A     -0.512511
      22A     -0.481414    23A     -0.475935    24A     -0.428511
      25A     -0.426873    26A     -0.419893    27A     -0.409755
      28A     -0.392972    29A     -0.389444    30A     -0.345071
      31A     -0.310035    32A     -0.252033    33A     -0.231598
      34A     -0.220682    35A     -0.209484

  @DF-RHF Final Energy:  -473.27859231402101

   => Energetics <=

    Nuclear Repulsion Energy =            433.6786996537750838
    One-Electron Energy =               -1519.4943741536681046
    Two-Electron Energy =                 612.5370821858720092
    Total Energy =                       -473.2785923140210116
  Basis Set: (AUG-CC-PVTZ AUX)
    Blend: AUG-CC-PVTZ-RI
    Molecular point group: c1

    Geometry (in Angstrom), charge = -1, multiplicity = 1:

       Center              X                  Y                   Z               Mass
    ------------   -----------------  -----------------  -----------------  -----------------
         O            1.660203367446    -1.427385301081    -0.007696339854    15.994914619570
         O           -2.369580632554     1.416416698919    -0.015257339854    15.994914619570
         O           -3.432294632554    -0.585137301081    -0.026658339854    15.994914619570
         N            0.090181367446     0.236005698919     0.016009660146    14.003074004430
         C            2.432042367446     0.859566698919     0.002093660146    12.000000000000
         C            1.388053867446    -0.239544601081     0.004164760146    12.000000000000
         C           -1.044069632554    -0.624700301081     0.018253660146    12.000000000000
         C            3.799370167446     0.207187698919    -0.011349139854    12.000000000000
         C           -2.402561632554     0.150415698919     0.032511660146    12.000000000000
         H            2.269612367446     1.518245698919    -0.862022339854     1.007825032230
         H            2.282529367446     1.509434698919     0.875045660146     1.007825032230
         H           -1.046925632554    -1.285436301081    -0.856863339854     1.007825032230
         H           -1.034766632554    -1.296211301081     0.885115660146     1.007825032230
         H           -0.178236632554     1.218132698919     0.024186660146     1.007825032230
         H            3.971204367446    -0.371533301081     0.868293660146     1.007825032230
         H            3.957898367446    -0.362642301081    -0.899328339854     1.007825032230
         H            4.571778367446     1.049277698919    -0.013332339854     1.007825032230

  Basis Set: AUG-CC-PVTZ
    Blend: AUG-CC-PVTZ
  Basis Set: (AUG-CC-PVTZ AUX)
    Blend: AUG-CC-PVTZ-JKFIT
	 Reference Energy          =    -473.2785923140210116 [Eh]
	 Singles Energy            =      -0.0000000000000000 [Eh]
	 Same-Spin Energy          =      -0.4755906884177131 [Eh]
	 Opposite-Spin Energy      =      -1.4642927982615634 [Eh]
	 Correlation Energy        =      -1.9398834866792765 [Eh]
	 Total Energy              =    -475.2184758007002756 [Eh]

	 ================> DF-SCS-MP2 Energies <==================
	-----------------------------------------------------------
	 SCS Same-Spin Scale       =       0.3333333333333333 [-]
	 SCS Opposite-Spin Scale   =       1.2000000000000000 [-]
	 SCS Same-Spin Energy      =      -0.1585302294725710 [Eh]
	 SCS Opposite-Spin Energy  =      -1.7571513579138760 [Eh]
	 SCS Correlation Energy    =      -1.9156815873864470 [Eh]
	 SCS Total Energy          =    -475.1942739014074846 [Eh]
	-----------------------------------------------------------

  Dipole Moment: [D]
     X:    10.3164      Y:     1.2411      Z:     0.1318     Total:    10.3917

*** Psi4 exiting successfully. Buy a developer a beer!
