                               Psi4 1.3.2 release

  ==> Input File <==

--------------------------------------------------------------------------
#psi4
#
memory 32 gb

molecule  {
-1 1
  O        1.5553730    -1.4489990    -0.0078940
  O       -2.4744110     1.3948030    -0.0154550
  O       -3.5371250    -0.6067510    -0.0268560
  N       -0.0146490     0.2143920     0.0158120
  C        2.3272120     0.8379530     0.0018960
  C        1.2455030    -0.2240550     0.0044360
  C       -1.1489000    -0.6463140     0.0180560
  C        3.7164760     0.2336920    -0.0114620
  C       -2.5047896     0.2286970     0.0285447
  H        2.1647820     1.4966320    -0.8622200
  H        2.1776990     1.4878210     0.8748480
  H       -1.1517560    -1.3070500    -0.8570610
  H       -1.1395970    -1.3178250     0.8849180
  H       -0.2830670     1.1965190     0.0239890
  H        3.8663740    -0.3931470     0.8680960
  H        3.8530680    -0.3842560    -0.8995260
  H        4.4669480     1.0276640    -0.0135300
units angstrom
no_reorient  #important for SAPT in psi4, default
symmetry c1  #important for SAPT in psi4, default
}

set PROPERTIES_ORIGIN ["COM"]
properties('MP2/aug-cc-pvtz', properties = ['dipole'])
--------------------------------------------------------------------------

    Molecular point group: c1
  Charge       = -1
  Multiplicity = 1
  Basis Set: AUG-CC-PVTZ
    Blend: AUG-CC-PVTZ
  Basis Set: (AUG-CC-PVTZ AUX)
    Blend: AUG-CC-PVTZ-JKFIT

    Orbital Energies [Eh]
    ---------------------

    Doubly Occupied:

       1A    -20.390501     2A    -20.345765     3A    -20.291974
       4A    -15.449901     5A    -11.226233     6A    -11.162199
       7A    -11.137307     8A    -11.123891     9A    -11.102567
      10A     -1.240587    11A     -1.231653    12A     -1.100554
      13A     -1.065609    14A     -0.952065    15A     -0.829577
      16A     -0.752732    17A     -0.659754    18A     -0.586201
      19A     -0.543093    20A     -0.534755    21A     -0.511452
      22A     -0.480520    23A     -0.480386    24A     -0.434204
      25A     -0.424487    26A     -0.417913    27A     -0.414393
      28A     -0.403322    29A     -0.388275    30A     -0.357407
      31A     -0.301940    32A     -0.256819    33A     -0.237910
      34A     -0.208107    35A     -0.206265

  @DF-RHF Final Energy:  -473.26824724865588

   => Energetics <=

    Nuclear Repulsion Energy =            433.7032153419367546
    One-Electron Energy =               -1519.4422938197917574
    Two-Electron Energy =                 612.4708312291990069
    Total Energy =                       -473.2682472486559391
  Basis Set: (AUG-CC-PVTZ AUX)
    Blend: AUG-CC-PVTZ-RI
    Molecular point group: c1

    Geometry (in Angstrom), charge = -1, multiplicity = 1:

       Center              X                  Y                   Z               Mass
    ------------   -----------------  -----------------  -----------------  -----------------
         O            1.661419686488    -1.444466334976    -0.007399630312    15.994914619570
         O           -2.368364313512     1.399335665024    -0.014960630312    15.994914619570
         O           -3.431078313512    -0.602218334976    -0.026361630312    15.994914619570
         N            0.091397686488     0.218924665024     0.016306369688    14.003074004430
         C            2.433258686488     0.842485665024     0.002390369688    12.000000000000
         C            1.351549686488    -0.219522334976     0.004930369688    12.000000000000
         C           -1.042853313512    -0.641781334976     0.018550369688    12.000000000000
         C            3.822522686488     0.238224665024    -0.010967630312    12.000000000000
         C           -2.398742913512     0.233229665024     0.029039069688    12.000000000000
         H            2.270828686488     1.501164665024    -0.861725630312     1.007825032230
         H            2.283745686488     1.492353665024     0.875342369688     1.007825032230
         H           -1.045709313512    -1.302517334976    -0.856566630312     1.007825032230
         H           -1.033550313512    -1.313292334976     0.885412369688     1.007825032230
         H           -0.177020313512     1.201051665024     0.024483369688     1.007825032230
         H            3.972420686488    -0.388614334976     0.868590369688     1.007825032230
         H            3.959114686488    -0.379723334976    -0.899031630312     1.007825032230
         H            4.572994686488     1.032196665024    -0.013035630312     1.007825032230

  Basis Set: AUG-CC-PVTZ
    Blend: AUG-CC-PVTZ
  Basis Set: (AUG-CC-PVTZ AUX)
    Blend: AUG-CC-PVTZ-JKFIT
	 Reference Energy          =    -473.2682472486558822 [Eh]
	 Singles Energy            =      -0.0000000000000000 [Eh]
	 Same-Spin Energy          =      -0.4754929617685321 [Eh]
	 Opposite-Spin Energy      =      -1.4639408441809429 [Eh]
	 Correlation Energy        =      -1.9394338059494751 [Eh]
	 Total Energy              =    -475.2076810546053593 [Eh]

	 ================> DF-SCS-MP2 Energies <==================
	-----------------------------------------------------------
	 SCS Same-Spin Scale       =       0.3333333333333333 [-]
	 SCS Opposite-Spin Scale   =       1.2000000000000000 [-]
	 SCS Same-Spin Energy      =      -0.1584976539228440 [Eh]
	 SCS Opposite-Spin Energy  =      -1.7567290130171316 [Eh]
	 SCS Correlation Energy    =      -1.9152266669399756 [Eh]
	 SCS Total Energy          =    -475.1834739155958687 [Eh]
	-----------------------------------------------------------

  Dipole Moment: [D]
     X:    10.1238      Y:     2.5120      Z:     0.1375     Total:    10.4317

*** Psi4 exiting successfully. Buy a developer a beer!
