                               Psi4 1.3.2 release

  ==> Input File <==

--------------------------------------------------------------------------
#psi4
#
memory 32 gb

molecule  {
-1 1
  O        1.5553730    -1.4489990    -0.0078940
  O       -2.4633972     1.3945040    -0.0144957
  O       -3.5307162    -0.6157131    -0.0259465
  N       -0.0146490     0.2143920     0.0158120
  C        2.3272120     0.8379530     0.0018960
  C        1.2455030    -0.2240550     0.0044360
  C       -1.1489000    -0.6463140     0.0180560
  C        3.7164760     0.2336920    -0.0114620
  C       -2.5073920     0.1288020     0.0323140
  H        2.1647820     1.4966320    -0.8622200
  H        2.1776990     1.4878210     0.8748480
  H       -1.1517560    -1.3070500    -0.8570610
  H       -1.1395970    -1.3178250     0.8849180
  H       -0.2830670     1.1965190     0.0239890
  H        3.8663740    -0.3931470     0.8680960
  H        3.8530680    -0.3842560    -0.8995260
  H        4.4669480     1.0276640    -0.0135300
units angstrom
no_reorient  #important for SAPT in psi4, default
symmetry c1  #important for SAPT in psi4, default
}

set PROPERTIES_ORIGIN ["COM"]
properties('MP2/aug-cc-pvtz', properties = ['dipole'])
--------------------------------------------------------------------------

    Molecular point group: c1
  Charge       = -1
  Multiplicity = 1
  Basis Set: AUG-CC-PVTZ
    Blend: AUG-CC-PVTZ
  Basis Set: (AUG-CC-PVTZ AUX)
    Blend: AUG-CC-PVTZ-JKFIT

    Orbital Energies [Eh]
    ---------------------

    Doubly Occupied:

       1A    -20.390863     2A    -20.323555     3A    -20.311860
       4A    -15.450427     5A    -11.226940     6A    -11.165309
       7A    -11.137167     8A    -11.123796     9A    -11.107620
      10A     -1.234659    11A     -1.187244    12A     -1.101894
      13A     -1.084091    14A     -0.952141    15A     -0.835557
      16A     -0.758012    17A     -0.659559    18A     -0.589467
      19A     -0.544579    20A     -0.534899    21A     -0.506947
      22A     -0.483569    23A     -0.474785    24A     -0.425768
      25A     -0.425009    26A     -0.416816    27A     -0.413843
      28A     -0.396934    29A     -0.379977    30A     -0.344023
      31A     -0.302831    32A     -0.257269    33A     -0.236626
      34A     -0.224560    35A     -0.214412

  @DF-RHF Final Energy:  -473.28211649480636

   => Energetics <=

    Nuclear Repulsion Energy =            433.5286895544327876
    One-Electron Energy =               -1519.1755919226256992
    Two-Electron Energy =                 612.3647858733866087
    Total Energy =                       -473.2821164948063597
  Basis Set: (AUG-CC-PVTZ AUX)
    Blend: AUG-CC-PVTZ-RI
    Molecular point group: c1

    Geometry (in Angstrom), charge = -1, multiplicity = 1:

       Center              X                  Y                   Z               Mass
    ------------   -----------------  -----------------  -----------------  -----------------
         O            1.659517007489    -1.434109809228    -0.007977274717    15.994914619570
         O           -2.359253192511     1.409393190772    -0.014578974717    15.994914619570
         O           -3.426572192511    -0.600823909228    -0.026029774717    15.994914619570
         N            0.089495007489     0.229281190772     0.015728725283    14.003074004430
         C            2.431356007489     0.852842190772     0.001812725283    12.000000000000
         C            1.349647007489    -0.209165809228     0.004352725283    12.000000000000
         C           -1.044755992511    -0.631424809228     0.017972725283    12.000000000000
         C            3.820620007489     0.248581190772    -0.011545274717    12.000000000000
         C           -2.403247992511     0.143691190772     0.032230725283    12.000000000000
         H            2.268926007489     1.511521190772    -0.862303274717     1.007825032230
         H            2.281843007489     1.502710190772     0.874764725283     1.007825032230
         H           -1.047611992511    -1.292160809228    -0.857144274717     1.007825032230
         H           -1.035452992511    -1.302935809228     0.884834725283     1.007825032230
         H           -0.178922992511     1.211408190772     0.023905725283     1.007825032230
         H            3.970518007489    -0.378257809228     0.868012725283     1.007825032230
         H            3.957212007489    -0.369366809228    -0.899609274717     1.007825032230
         H            4.571092007489     1.042553190772    -0.013613274717     1.007825032230

  Basis Set: AUG-CC-PVTZ
    Blend: AUG-CC-PVTZ
  Basis Set: (AUG-CC-PVTZ AUX)
    Blend: AUG-CC-PVTZ-JKFIT
	 Reference Energy          =    -473.2821164948063597 [Eh]
	 Singles Energy            =      -0.0000000000000000 [Eh]
	 Same-Spin Energy          =      -0.4761996811817781 [Eh]
	 Opposite-Spin Energy      =      -1.4654273081844349 [Eh]
	 Correlation Energy        =      -1.9416269893662130 [Eh]
	 Total Energy              =    -475.2237434841725872 [Eh]

	 ================> DF-SCS-MP2 Energies <==================
	-----------------------------------------------------------
	 SCS Same-Spin Scale       =       0.3333333333333333 [-]
	 SCS Opposite-Spin Scale   =       1.2000000000000000 [-]
	 SCS Same-Spin Energy      =      -0.1587332270605927 [Eh]
	 SCS Opposite-Spin Energy  =      -1.7585127698213219 [Eh]
	 SCS Correlation Energy    =      -1.9172459968819147 [Eh]
	 SCS Total Energy          =    -475.1993624916882482 [Eh]
	-----------------------------------------------------------

  Dipole Moment: [D]
     X:     9.8284      Y:     1.5905      Z:     0.1335     Total:     9.9572

*** Psi4 exiting successfully. Buy a developer a beer!
