                               Psi4 1.4a3.dev225

  ==> Input File <==

--------------------------------------------------------------------------
#psi4
#
memory 32 gb

molecule  {
-1 1
  O       -1.5186010     1.5599430    -0.1433510
  O        2.2638970    -1.4295650    -0.0456660
  O        3.5317420     0.4486470     0.1950180
  N        0.0040180    -0.1295860    -0.1151350
  C       -2.3384940    -0.6954940    -0.4149760
  C       -1.2508570     0.3439190    -0.2101810
  C        1.1754880     0.7048690     0.0403840
  C       -3.5055210    -0.4701880     0.5431350
  C        2.4465640    -0.1793200     0.0655420
  H       -2.6873130    -0.6028840    -1.4504550
  H       -1.9319890    -1.7056860    -0.3020050
  H        1.2516430     1.4279040    -0.7806770
  H        1.1221546     1.2762056     0.9514758
  H        0.2309340    -1.1197490    -0.1755670
  H       -3.1861080    -0.6022700     1.5809140
  H       -3.8905480     0.5449040     0.4307430
  H       -4.3152940    -1.1768540     0.3431720
units angstrom
no_reorient  #important for SAPT in psi4, default
symmetry c1  #important for SAPT in psi4, default
}

set PROPERTIES_ORIGIN ["COM"]
properties('MP2/aug-cc-pvtz', properties = ['dipole'])
--------------------------------------------------------------------------

    Molecular point group: c1
  Charge       = -1
  Multiplicity = 1
  Basis Set: AUG-CC-PVTZ
    Blend: AUG-CC-PVTZ
  Basis Set: (AUG-CC-PVTZ AUX)
    Blend: AUG-CC-PVTZ-JKFIT

    Orbital Energies [Eh]
    ---------------------

    Doubly Occupied:

       1A    -20.386983     2A    -20.322509     3A    -20.313822
       4A    -15.444739     5A    -11.221890     6A    -11.163728
       7A    -11.135233     8A    -11.127776     9A    -11.106461
      10A     -1.238273    11A     -1.190386    12A     -1.097208
      13A     -1.081756    14A     -0.949530    15A     -0.832339
      16A     -0.760399    17A     -0.652911    18A     -0.585387
      19A     -0.545150    20A     -0.527506    21A     -0.502023
      22A     -0.486755    23A     -0.475659    24A     -0.437688
      25A     -0.427851    26A     -0.419824    27A     -0.407506
      28A     -0.395057    29A     -0.380809    30A     -0.346026
      31A     -0.298489    32A     -0.256496    33A     -0.238885
      34A     -0.225822    35A     -0.216068

  @DF-RHF Final Energy:  -473.28813293108578

   => Energetics <=

    Nuclear Repulsion Energy =            435.3356766260446875
    One-Electron Energy =               -1522.8497285787284454
    Two-Electron Energy =                 614.2259190215979743
    Total Energy =                       -473.2881329310857836
  Basis Set: (AUG-CC-PVTZ AUX)
    Blend: AUG-CC-PVTZ-RI
    Molecular point group: c1

    Geometry (in Angstrom), charge = -1, multiplicity = 1:

       Center              X                  Y                   Z               Mass
    ------------   -----------------  -----------------  -----------------  -----------------
         O           -1.620729507726     1.545190791247    -0.138528767158    15.994914619570
         O            2.161768492274    -1.444317208753    -0.040843767158    15.994914619570
         O            3.429613492274     0.433894791247     0.199840232842    15.994914619570
         N           -0.098110507726    -0.144338208753    -0.110312767158    14.003074004430
         C           -2.440622507726    -0.710246208753    -0.410153767158    12.000000000000
         C           -1.352985507726     0.329166791247    -0.205358767158    12.000000000000
         C            1.073359492274     0.690116791247     0.045206232842    12.000000000000
         C           -3.607649507726    -0.484940208753     0.547957232842    12.000000000000
         C            2.344435492274    -0.194072208753     0.070364232842    12.000000000000
         H           -2.789441507726    -0.617636208753    -1.445632767158     1.007825032230
         H           -2.034117507726    -1.720438208753    -0.297182767158     1.007825032230
         H            1.149514492274     1.413151791247    -0.775854767158     1.007825032230
         H            1.020026092274     1.261453391247     0.956298032842     1.007825032230
         H            0.128805492274    -1.134501208753    -0.170744767158     1.007825032230
         H           -3.288236507726    -0.617022208753     1.585736232842     1.007825032230
         H           -3.992676507726     0.530151791247     0.435565232842     1.007825032230
         H           -4.417422507726    -1.191606208753     0.347994232842     1.007825032230

  Basis Set: AUG-CC-PVTZ
    Blend: AUG-CC-PVTZ
  Basis Set: (AUG-CC-PVTZ AUX)
    Blend: AUG-CC-PVTZ-JKFIT
	 Reference Energy          =    -473.2881329310857836 [Eh]
	 Singles Energy            =      -0.0000000000000000 [Eh]
	 Same-Spin Energy          =      -0.4758087425140634 [Eh]
	 Opposite-Spin Energy      =      -1.4646540277460622 [Eh]
	 Correlation Energy        =      -1.9404627702601256 [Eh]
	 Total Energy              =    -475.2285957013459097 [Eh]

	 ================> DF-SCS-MP2 Energies <==================
	-----------------------------------------------------------
	 SCS Same-Spin Scale       =       0.3333333333333333 [-]
	 SCS Opposite-Spin Scale   =       1.2000000000000000 [-]
	 SCS Same-Spin Energy      =      -0.1586029141713544 [Eh]
	 SCS Opposite-Spin Energy  =      -1.7575848332952746 [Eh]
	 SCS Correlation Energy    =      -1.9161877474666291 [Eh]
	 SCS Total Energy          =    -475.2043206785523921 [Eh]
	-----------------------------------------------------------

  Dipole Moment: [D]
     X:    -9.3745      Y:    -1.1327      Z:    -0.4046     Total:     9.4514

*** Psi4 exiting successfully. Buy a developer a beer!
