                               Psi4 1.3.2 release

  ==> Input File <==

--------------------------------------------------------------------------
#psi4
#
memory 32 gb

molecule  {
-1 1
  O        1.5553730    -1.4489990    -0.0078940
  O       -2.5405170     1.3945723    -0.0211319
  O       -3.5739144    -0.5518265    -0.0322159
  N       -0.0146490     0.2143920     0.0158120
  C        2.3272120     0.8379530     0.0018960
  C        1.2455030    -0.2240550     0.0044360
  C       -1.1489000    -0.6463140     0.0180560
  C        3.7164760     0.2336920    -0.0114620
  C       -2.5073920     0.1288020     0.0323140
  H        2.1647820     1.4966320    -0.8622200
  H        2.1776990     1.4878210     0.8748480
  H       -1.1517560    -1.3070500    -0.8570610
  H       -1.1395970    -1.3178250     0.8849180
  H       -0.2830670     1.1965190     0.0239890
  H        3.8663740    -0.3931470     0.8680960
  H        3.8530680    -0.3842560    -0.8995260
  H        4.4669480     1.0276640    -0.0135300
units angstrom
no_reorient  #important for SAPT in psi4, default
symmetry c1  #important for SAPT in psi4, default
}

set PROPERTIES_ORIGIN ["COM"]
properties('MP2/aug-cc-pvtz', properties = ['dipole'])
--------------------------------------------------------------------------

    Molecular point group: c1
  Charge       = -1
  Multiplicity = 1
  Basis Set: AUG-CC-PVTZ
    Blend: AUG-CC-PVTZ
  Basis Set: (AUG-CC-PVTZ AUX)
    Blend: AUG-CC-PVTZ-JKFIT

    Orbital Energies [Eh]
    ---------------------

    Doubly Occupied:

       1A    -20.394708     2A    -20.315944     3A    -20.304352
       4A    -15.455891     5A    -11.231000     6A    -11.161448
       7A    -11.139784     8A    -11.125813     9A    -11.116358
      10A     -1.238529    11A     -1.185988    12A     -1.106080
      13A     -1.070733    14A     -0.954841    15A     -0.840891
      16A     -0.761671    17A     -0.664141    18A     -0.592738
      19A     -0.546220    20A     -0.537717    21A     -0.508495
      22A     -0.487673    23A     -0.475381    24A     -0.426827
      25A     -0.426258    26A     -0.419008    27A     -0.414080
      28A     -0.393899    29A     -0.381475    30A     -0.343802
      31A     -0.306127    32A     -0.261246    33A     -0.233796
      34A     -0.218270    35A     -0.205410

  @DF-RHF Final Energy:  -473.27628843029044

   => Energetics <=

    Nuclear Repulsion Energy =            432.6056799666270649
    One-Electron Energy =               -1517.2707472164033788
    Two-Electron Energy =                 611.3887788194858786
    Total Energy =                       -473.2762884302903785
  Basis Set: (AUG-CC-PVTZ AUX)
    Blend: AUG-CC-PVTZ-RI
    Molecular point group: c1

    Geometry (in Angstrom), charge = -1, multiplicity = 1:

       Center              X                  Y                   Z               Mass
    ------------   -----------------  -----------------  -----------------  -----------------
         O            1.674314930979    -1.441975629114    -0.006390013614    15.994914619570
         O           -2.421575069021     1.401595670886    -0.019627913614    15.994914619570
         O           -3.454972469021    -0.544803129114    -0.030711913614    15.994914619570
         N            0.104292930979     0.221415370886     0.017315986386    14.003074004430
         C            2.446153930979     0.844976370886     0.003399986386    12.000000000000
         C            1.364444930979    -0.217031629114     0.005939986386    12.000000000000
         C           -1.029958069021    -0.639290629114     0.019559986386    12.000000000000
         C            3.835417930979     0.240715370886    -0.009958013614    12.000000000000
         C           -2.388450069021     0.135825370886     0.033817986386    12.000000000000
         H            2.283723930979     1.503655370886    -0.860716013614     1.007825032230
         H            2.296640930979     1.494844370886     0.876351986386     1.007825032230
         H           -1.032814069021    -1.300026629114    -0.855557013614     1.007825032230
         H           -1.020655069021    -1.310801629114     0.886421986386     1.007825032230
         H           -0.164125069021     1.203542370886     0.025492986386     1.007825032230
         H            3.985315930979    -0.386123629114     0.869599986386     1.007825032230
         H            3.972009930979    -0.377232629114    -0.898022013614     1.007825032230
         H            4.585889930979     1.034687370886    -0.012026013614     1.007825032230

  Basis Set: AUG-CC-PVTZ
    Blend: AUG-CC-PVTZ
  Basis Set: (AUG-CC-PVTZ AUX)
    Blend: AUG-CC-PVTZ-JKFIT
	 Reference Energy          =    -473.2762884302904354 [Eh]
	 Singles Energy            =      -0.0000000000000000 [Eh]
	 Same-Spin Energy          =      -0.4760651349119680 [Eh]
	 Opposite-Spin Energy      =      -1.4654280360452541 [Eh]
	 Correlation Energy        =      -1.9414931709572221 [Eh]
	 Total Energy              =    -475.2177816012476796 [Eh]

	 ================> DF-SCS-MP2 Energies <==================
	-----------------------------------------------------------
	 SCS Same-Spin Scale       =       0.3333333333333333 [-]
	 SCS Opposite-Spin Scale   =       1.2000000000000000 [-]
	 SCS Same-Spin Energy      =      -0.1586883783039893 [Eh]
	 SCS Opposite-Spin Energy  =      -1.7585136432543049 [Eh]
	 SCS Correlation Energy    =      -1.9172020215582943 [Eh]
	 SCS Total Energy          =    -475.1934904518487315 [Eh]
	-----------------------------------------------------------

  Dipole Moment: [D]
     X:    10.2860      Y:     1.4034      Z:     0.1551     Total:    10.3825

*** Psi4 exiting successfully. Buy a developer a beer!
