                               Psi4 1.3.2 release

  ==> Input File <==

--------------------------------------------------------------------------
#psi4
#
memory 32 gb

molecule  {
-1 1
  O        1.5553730    -1.4489990    -0.0078940
  O       -2.4744110     1.3948030    -0.0154550
  O       -3.5371250    -0.6067510    -0.0268560
  N       -0.0222027     0.2242570     0.0159269
  C        2.3272120     0.8379530     0.0018960
  C        1.2455030    -0.2240550     0.0044360
  C       -1.1489000    -0.6463140     0.0180560
  C        3.7164760     0.2336920    -0.0114620
  C       -2.5005757     0.1406277     0.0323431
  H        2.1647820     1.4966320    -0.8622200
  H        2.1776990     1.4878210     0.8748480
  H       -1.1517560    -1.3070500    -0.8570610
  H       -1.1395970    -1.3178250     0.8849180
  H       -0.2830670     1.1965190     0.0239890
  H        3.8663740    -0.3931470     0.8680960
  H        3.8530680    -0.3842560    -0.8995260
  H        4.4669480     1.0276640    -0.0135300
units angstrom
no_reorient  #important for SAPT in psi4, default
symmetry c1  #important for SAPT in psi4, default
}

set PROPERTIES_ORIGIN ["COM"]
properties('MP2/aug-cc-pvtz', properties = ['dipole'])
--------------------------------------------------------------------------

    Molecular point group: c1
  Charge       = -1
  Multiplicity = 1
  Basis Set: AUG-CC-PVTZ
    Blend: AUG-CC-PVTZ
  Basis Set: (AUG-CC-PVTZ AUX)
    Blend: AUG-CC-PVTZ-JKFIT

    Orbital Energies [Eh]
    ---------------------

    Doubly Occupied:

       1A    -20.394017     2A    -20.324937     3A    -20.306828
       4A    -15.450389     5A    -11.229747     6A    -11.163797
       7A    -11.138103     8A    -11.124620     9A    -11.108328
      10A     -1.235622    11A     -1.188273    12A     -1.101145
      13A     -1.080460    14A     -0.953106    15A     -0.835023
      16A     -0.758621    17A     -0.662119    18A     -0.590059
      19A     -0.543479    20A     -0.535477    21A     -0.508280
      22A     -0.483531    23A     -0.476508    24A     -0.425897
      25A     -0.424991    26A     -0.417285    27A     -0.414115
      28A     -0.398257    29A     -0.380136    30A     -0.344447
      31A     -0.304583    32A     -0.258254    33A     -0.235664
      34A     -0.222183    35A     -0.211521

  @DF-RHF Final Energy:  -473.28113676775450

   => Energetics <=

    Nuclear Repulsion Energy =            433.3157428335573513
    One-Electron Energy =               -1518.7341593221260609
    Two-Electron Energy =                 612.1372797208142629
    Total Energy =                       -473.2811367677544467
  Basis Set: (AUG-CC-PVTZ AUX)
    Blend: AUG-CC-PVTZ-RI
    Molecular point group: c1

    Geometry (in Angstrom), charge = -1, multiplicity = 1:

       Center              X                  Y                   Z               Mass
    ------------   -----------------  -----------------  -----------------  -----------------
         O            1.661844200465    -1.437402218703    -0.007762487686    15.994914619570
         O           -2.367939799535     1.406399781297    -0.015323487686    15.994914619570
         O           -3.430653799535    -0.595154218703    -0.026724487686    15.994914619570
         N            0.084268500465     0.235853781297     0.016058412314    14.003074004430
         C            2.433683200465     0.849549781297     0.002027512314    12.000000000000
         C            1.351974200465    -0.212458218703     0.004567512314    12.000000000000
         C           -1.042428799535    -0.634717218703     0.018187512314    12.000000000000
         C            3.822947200465     0.245288781297    -0.011330487686    12.000000000000
         C           -2.394104499535     0.152224481297     0.032474612314    12.000000000000
         H            2.271253200465     1.508228781297    -0.862088487686     1.007825032230
         H            2.284170200465     1.499417781297     0.874979512314     1.007825032230
         H           -1.045284799535    -1.295453218703    -0.856929487686     1.007825032230
         H           -1.033125799535    -1.306228218703     0.885049512314     1.007825032230
         H           -0.176595799535     1.208115781297     0.024120512314     1.007825032230
         H            3.972845200465    -0.381550218703     0.868227512314     1.007825032230
         H            3.959539200465    -0.372659218703    -0.899394487686     1.007825032230
         H            4.573419200465     1.039260781297    -0.013398487686     1.007825032230

  Basis Set: AUG-CC-PVTZ
    Blend: AUG-CC-PVTZ
  Basis Set: (AUG-CC-PVTZ AUX)
    Blend: AUG-CC-PVTZ-JKFIT
	 Reference Energy          =    -473.2811367677545036 [Eh]
	 Singles Energy            =      -0.0000000000000000 [Eh]
	 Same-Spin Energy          =      -0.4761131798305794 [Eh]
	 Opposite-Spin Energy      =      -1.4653960962618360 [Eh]
	 Correlation Energy        =      -1.9415092760924155 [Eh]
	 Total Energy              =    -475.2226460438469076 [Eh]

	 ================> DF-SCS-MP2 Energies <==================
	-----------------------------------------------------------
	 SCS Same-Spin Scale       =       0.3333333333333333 [-]
	 SCS Opposite-Spin Scale   =       1.2000000000000000 [-]
	 SCS Same-Spin Energy      =      -0.1587043932768598 [Eh]
	 SCS Opposite-Spin Energy  =      -1.7584753155142032 [Eh]
	 SCS Correlation Energy    =      -1.9171797087910631 [Eh]
	 SCS Total Energy          =    -475.1983164765455854 [Eh]
	-----------------------------------------------------------

  Dipole Moment: [D]
     X:    10.0491      Y:     1.6572      Z:     0.1368     Total:    10.1857

*** Psi4 exiting successfully. Buy a developer a beer!
