                               Psi4 1.4a3.dev225

  ==> Input File <==

--------------------------------------------------------------------------
#psi4
#
memory 32 gb

molecule  {
-1 1
  O       -1.5186010     1.5599430    -0.1433510
  O        2.2638970    -1.4295650    -0.0456660
  O        3.5317420     0.4486470     0.1950180
  N        0.0040180    -0.1295860    -0.1151350
  C       -2.3384940    -0.6954940    -0.4149760
  C       -1.2150397     0.3781482    -0.2034368
  C        1.1754880     0.7048690     0.0403840
  C       -3.5055210    -0.4701880     0.5431350
  C        2.4465640    -0.1793200     0.0655420
  H       -2.6873130    -0.6028840    -1.4504550
  H       -1.9319890    -1.7056860    -0.3020050
  H        1.2516430     1.4279040    -0.7806770
  H        1.1211640     1.2868180     0.9683990
  H        0.2309340    -1.1197490    -0.1755670
  H       -3.1861080    -0.6022700     1.5809140
  H       -3.8905480     0.5449040     0.4307430
  H       -4.3152940    -1.1768540     0.3431720
units angstrom
no_reorient  #important for SAPT in psi4, default
symmetry c1  #important for SAPT in psi4, default
}

set PROPERTIES_ORIGIN ["COM"]
properties('MP2/aug-cc-pvtz', properties = ['dipole'])
--------------------------------------------------------------------------

    Molecular point group: c1
  Charge       = -1
  Multiplicity = 1
  Basis Set: AUG-CC-PVTZ
    Blend: AUG-CC-PVTZ
  Basis Set: (AUG-CC-PVTZ AUX)
    Blend: AUG-CC-PVTZ-JKFIT

    Orbital Energies [Eh]
    ---------------------

    Doubly Occupied:

       1A    -20.389329     2A    -20.323976     3A    -20.314661
       4A    -15.445467     5A    -11.219131     6A    -11.164841
       7A    -11.131652     8A    -11.124499     9A    -11.109628
      10A     -1.253485    11A     -1.191834    12A     -1.103753
      13A     -1.086474    14A     -0.940193    15A     -0.830964
      16A     -0.752988    17A     -0.659107    18A     -0.583791
      19A     -0.542722    20A     -0.524294    21A     -0.505549
      22A     -0.490429    23A     -0.476734    24A     -0.435082
      25A     -0.429096    26A     -0.418909    27A     -0.407567
      28A     -0.394477    29A     -0.384424    30A     -0.348346
      31A     -0.293509    32A     -0.261019    33A     -0.240314
      34A     -0.226569    35A     -0.217339

  @DF-RHF Final Energy:  -473.28859847299339

   => Energetics <=

    Nuclear Repulsion Energy =            435.5763932577750666
    One-Electron Energy =               -1523.2856766886720834
    Two-Electron Energy =                 614.4206849579035179
    Total Energy =                       -473.2885984729933853
  Basis Set: (AUG-CC-PVTZ AUX)
    Blend: AUG-CC-PVTZ-RI
    Molecular point group: c1

    Geometry (in Angstrom), charge = -1, multiplicity = 1:

       Center              X                  Y                   Z               Mass
    ------------   -----------------  -----------------  -----------------  -----------------
         O           -1.624026761627     1.541950156973    -0.139282213598    15.994914619570
         O            2.158471238373    -1.447557843027    -0.041597213598    15.994914619570
         O            3.426316238373     0.430654156973     0.199086786402    15.994914619570
         N           -0.101407761627    -0.147578843027    -0.111066213598    14.003074004430
         C           -2.443919761627    -0.713486843027    -0.410907213598    12.000000000000
         C           -1.320465461627     0.360155356973    -0.199368013598    12.000000000000
         C            1.070062238373     0.686876156973     0.044452786402    12.000000000000
         C           -3.610946761627    -0.488180843027     0.547203786402    12.000000000000
         C            2.341138238373    -0.197312843027     0.069610786402    12.000000000000
         H           -2.792738761627    -0.620876843027    -1.446386213598     1.007825032230
         H           -2.037414761627    -1.723678843027    -0.297936213598     1.007825032230
         H            1.146217238373     1.409911156973    -0.776608213598     1.007825032230
         H            1.015738238373     1.268825156973     0.972467786402     1.007825032230
         H            0.125508238373    -1.137741843027    -0.171498213598     1.007825032230
         H           -3.291533761627    -0.620262843027     1.584982786402     1.007825032230
         H           -3.995973761627     0.526911156973     0.434811786402     1.007825032230
         H           -4.420719761627    -1.194846843027     0.347240786402     1.007825032230

  Basis Set: AUG-CC-PVTZ
    Blend: AUG-CC-PVTZ
  Basis Set: (AUG-CC-PVTZ AUX)
    Blend: AUG-CC-PVTZ-JKFIT
	 Reference Energy          =    -473.2885984729933853 [Eh]
	 Singles Energy            =      -0.0000000000000000 [Eh]
	 Same-Spin Energy          =      -0.4751308183698605 [Eh]
	 Opposite-Spin Energy      =      -1.4634048766761993 [Eh]
	 Correlation Energy        =      -1.9385356950460597 [Eh]
	 Total Energy              =    -475.2271341680394698 [Eh]

	 ================> DF-SCS-MP2 Energies <==================
	-----------------------------------------------------------
	 SCS Same-Spin Scale       =       0.3333333333333333 [-]
	 SCS Opposite-Spin Scale   =       1.2000000000000000 [-]
	 SCS Same-Spin Energy      =      -0.1583769394566202 [Eh]
	 SCS Opposite-Spin Energy  =      -1.7560858520114391 [Eh]
	 SCS Correlation Energy    =      -1.9144627914680592 [Eh]
	 SCS Total Energy          =    -475.2030612644614394 [Eh]
	-----------------------------------------------------------

  Dipole Moment: [D]
     X:    -9.1627      Y:    -0.9536      Z:    -0.3861     Total:     9.2203

*** Psi4 exiting successfully. Buy a developer a beer!
