                               Psi4 1.3.2 release

  ==> Input File <==

--------------------------------------------------------------------------
#psi4
#
memory 32 gb

molecule  {
-1 1
  O        1.5553730    -1.4489990    -0.0078940
  O       -2.4744110     1.3948030    -0.0154550
  O       -3.5435217    -0.5977411    -0.0265054
  N       -0.0146490     0.2143920     0.0158120
  C        2.3272120     0.8379530     0.0018960
  C        1.2455030    -0.2240550     0.0044360
  C       -1.1421918    -0.6344508     0.0188155
  C        3.7164760     0.2336920    -0.0114620
  C       -2.5073920     0.1288020     0.0323140
  H        2.1647820     1.4966320    -0.8622200
  H        2.1776990     1.4878210     0.8748480
  H       -1.1517560    -1.3070500    -0.8570610
  H       -1.1395970    -1.3178250     0.8849180
  H       -0.2830670     1.1965190     0.0239890
  H        3.8663740    -0.3931470     0.8680960
  H        3.8530680    -0.3842560    -0.8995260
  H        4.4669480     1.0276640    -0.0135300
units angstrom
no_reorient  #important for SAPT in psi4, default
symmetry c1  #important for SAPT in psi4, default
}

set PROPERTIES_ORIGIN ["COM"]
properties('MP2/aug-cc-pvtz', properties = ['dipole'])
--------------------------------------------------------------------------

    Molecular point group: c1
  Charge       = -1
  Multiplicity = 1
  Basis Set: AUG-CC-PVTZ
    Blend: AUG-CC-PVTZ
  Basis Set: (AUG-CC-PVTZ AUX)
    Blend: AUG-CC-PVTZ-JKFIT

    Orbital Energies [Eh]
    ---------------------

    Doubly Occupied:

       1A    -20.392293     2A    -20.321503     3A    -20.310575
       4A    -15.452056     5A    -11.228415     6A    -11.164469
       7A    -11.138109     8A    -11.124492     9A    -11.109592
      10A     -1.236347    11A     -1.186883    12A     -1.105371
      13A     -1.081471    14A     -0.953257    15A     -0.837160
      16A     -0.758474    17A     -0.661593    18A     -0.591349
      19A     -0.546508    20A     -0.535908    21A     -0.507233
      22A     -0.483864    23A     -0.475617    24A     -0.426140
      25A     -0.425052    26A     -0.416806    27A     -0.414085
      28A     -0.396561    29A     -0.380315    30A     -0.343227
      31A     -0.304104    32A     -0.257100    33A     -0.234263
      34A     -0.225070    35A     -0.212570

  @DF-RHF Final Energy:  -473.28056235664030

   => Energetics <=

    Nuclear Repulsion Energy =            433.5203118223227534
    One-Electron Energy =               -1519.1260897738445692
    Two-Electron Energy =                 612.3252155948814561
    Total Energy =                       -473.2805623566403028
  Basis Set: (AUG-CC-PVTZ AUX)
    Blend: AUG-CC-PVTZ-RI
    Molecular point group: c1

    Geometry (in Angstrom), charge = -1, multiplicity = 1:

       Center              X                  Y                   Z               Mass
    ------------   -----------------  -----------------  -----------------  -----------------
         O            1.661827567302    -1.437451601522    -0.007860631652    15.994914619570
         O           -2.367956432698     1.406350398478    -0.015421631652    15.994914619570
         O           -3.437067132698    -0.586193701522    -0.026472031652    15.994914619570
         N            0.091805567302     0.225939398478     0.015845368348    14.003074004430
         C            2.433666567302     0.849500398478     0.001929368348    12.000000000000
         C            1.351957567302    -0.212507601522     0.004469368348    12.000000000000
         C           -1.035737232698    -0.622903401522     0.018848868348    12.000000000000
         C            3.822930567302     0.245239398478    -0.011428631652    12.000000000000
         C           -2.400937432698     0.140349398478     0.032347368348    12.000000000000
         H            2.271236567302     1.508179398478    -0.862186631652     1.007825032230
         H            2.284153567302     1.499368398478     0.874881368348     1.007825032230
         H           -1.045301432698    -1.295502601522    -0.857027631652     1.007825032230
         H           -1.033142432698    -1.306277601522     0.884951368348     1.007825032230
         H           -0.176612432698     1.208066398478     0.024022368348     1.007825032230
         H            3.972828567302    -0.381599601522     0.868129368348     1.007825032230
         H            3.959522567302    -0.372708601522    -0.899492631652     1.007825032230
         H            4.573402567302     1.039211398478    -0.013496631652     1.007825032230

  Basis Set: AUG-CC-PVTZ
    Blend: AUG-CC-PVTZ
  Basis Set: (AUG-CC-PVTZ AUX)
    Blend: AUG-CC-PVTZ-JKFIT
	 Reference Energy          =    -473.2805623566403028 [Eh]
	 Singles Energy            =      -0.0000000000000000 [Eh]
	 Same-Spin Energy          =      -0.4762868260829582 [Eh]
	 Opposite-Spin Energy      =      -1.4654665339653432 [Eh]
	 Correlation Energy        =      -1.9417533600483015 [Eh]
	 Total Energy              =    -475.2223157166886267 [Eh]

	 ================> DF-SCS-MP2 Energies <==================
	-----------------------------------------------------------
	 SCS Same-Spin Scale       =       0.3333333333333333 [-]
	 SCS Opposite-Spin Scale   =       1.2000000000000000 [-]
	 SCS Same-Spin Energy      =      -0.1587622753609861 [Eh]
	 SCS Opposite-Spin Energy  =      -1.7585598407584118 [Eh]
	 SCS Correlation Energy    =      -1.9173221161193978 [Eh]
	 SCS Total Energy          =    -475.1978844727597107 [Eh]
	-----------------------------------------------------------

  Dipole Moment: [D]
     X:     9.9576      Y:     1.5636      Z:     0.1370     Total:    10.0805

*** Psi4 exiting successfully. Buy a developer a beer!
