                               Psi4 1.3.2 release

  ==> Input File <==

--------------------------------------------------------------------------
#psi4
#
memory 32 gb

molecule  {
-1 1
  O        1.5553730    -1.4489990    -0.0078940
  O       -2.4744110     1.3948030    -0.0154550
  O       -3.5371250    -0.6067510    -0.0268560
  N       -0.0146490     0.2143920     0.0158120
  C        2.3272120     0.8379530     0.0018960
  C        1.2403404    -0.2187405    -0.0065231
  C       -1.1489000    -0.6463140     0.0180560
  C        3.7164760     0.2336920    -0.0114620
  C       -2.5073920     0.1288020     0.0323140
  H        2.1571062     1.4914415    -0.8646804
  H        2.1776990     1.4878210     0.8748480
  H       -1.1517560    -1.3070500    -0.8570610
  H       -1.1395970    -1.3178250     0.8849180
  H       -0.2830670     1.1965190     0.0239890
  H        3.8663740    -0.3931470     0.8680960
  H        3.8530680    -0.3842560    -0.8995260
  H        4.4669480     1.0276640    -0.0135300
units angstrom
no_reorient  #important for SAPT in psi4, default
symmetry c1  #important for SAPT in psi4, default
}

set PROPERTIES_ORIGIN ["COM"]
properties('MP2/aug-cc-pvtz', properties = ['dipole'])
--------------------------------------------------------------------------

    Molecular point group: c1
  Charge       = -1
  Multiplicity = 1
  Basis Set: AUG-CC-PVTZ
    Blend: AUG-CC-PVTZ
  Basis Set: (AUG-CC-PVTZ AUX)
    Blend: AUG-CC-PVTZ-JKFIT

    Orbital Energies [Eh]
    ---------------------

    Doubly Occupied:

       1A    -20.389644     2A    -20.323010     3A    -20.311283
       4A    -15.452625     5A    -11.227058     6A    -11.165257
       7A    -11.137613     8A    -11.123995     9A    -11.109627
      10A     -1.231943    11A     -1.187383    12A     -1.103708
      13A     -1.082975    14A     -0.952250    15A     -0.837651
      16A     -0.759135    17A     -0.661473    18A     -0.589588
      19A     -0.544941    20A     -0.535482    21A     -0.507010
      22A     -0.484859    23A     -0.473717    24A     -0.426161
      25A     -0.425804    26A     -0.417048    27A     -0.412853
      28A     -0.396722    29A     -0.379628    30A     -0.343671
      31A     -0.301905    32A     -0.258383    33A     -0.235756
      34A     -0.225343    35A     -0.213707

  @DF-RHF Final Energy:  -473.28096884931222

   => Energetics <=

    Nuclear Repulsion Energy =            433.4083408947304861
    One-Electron Energy =               -1518.9202040021323228
    Two-Electron Energy =                 612.2308942580897337
    Total Energy =                       -473.2809688493122167
  Basis Set: (AUG-CC-PVTZ AUX)
    Blend: AUG-CC-PVTZ-RI
    Molecular point group: c1

    Geometry (in Angstrom), charge = -1, multiplicity = 1:

       Center              X                  Y                   Z               Mass
    ------------   -----------------  -----------------  -----------------  -----------------
         O            1.662195661413    -1.435698988186    -0.006717146903    15.994914619570
         O           -2.367588338587     1.408103011814    -0.014278146903    15.994914619570
         O           -3.430302338587    -0.593450988186    -0.025679146903    15.994914619570
         N            0.092173661413     0.227692011814     0.016988853097    14.003074004430
         C            2.434034661413     0.851253011814     0.003072853097    12.000000000000
         C            1.347163061413    -0.205440488186    -0.005346246903    12.000000000000
         C           -1.042077338587    -0.633013988186     0.019232853097    12.000000000000
         C            3.823298661413     0.246992011814    -0.010285146903    12.000000000000
         C           -2.400569338587     0.142102011814     0.033490853097    12.000000000000
         H            2.263928861413     1.504741511814    -0.863503546903     1.007825032230
         H            2.284521661413     1.501121011814     0.876024853097     1.007825032230
         H           -1.044933338587    -1.293749988186    -0.855884146903     1.007825032230
         H           -1.032774338587    -1.304524988186     0.886094853097     1.007825032230
         H           -0.176244338587     1.209819011814     0.025165853097     1.007825032230
         H            3.973196661413    -0.379846988186     0.869272853097     1.007825032230
         H            3.959890661413    -0.370955988186    -0.898349146903     1.007825032230
         H            4.573770661413     1.040964011814    -0.012353146903     1.007825032230

  Basis Set: AUG-CC-PVTZ
    Blend: AUG-CC-PVTZ
  Basis Set: (AUG-CC-PVTZ AUX)
    Blend: AUG-CC-PVTZ-JKFIT
	 Reference Energy          =    -473.2809688493122167 [Eh]
	 Singles Energy            =      -0.0000000000000000 [Eh]
	 Same-Spin Energy          =      -0.4762531298685908 [Eh]
	 Opposite-Spin Energy      =      -1.4655749255796111 [Eh]
	 Correlation Energy        =      -1.9418280554482019 [Eh]
	 Total Energy              =    -475.2227969047604006 [Eh]

	 ================> DF-SCS-MP2 Energies <==================
	-----------------------------------------------------------
	 SCS Same-Spin Scale       =       0.3333333333333333 [-]
	 SCS Opposite-Spin Scale   =       1.2000000000000000 [-]
	 SCS Same-Spin Energy      =      -0.1587510432895302 [Eh]
	 SCS Opposite-Spin Energy  =      -1.7586899106955334 [Eh]
	 SCS Correlation Energy    =      -1.9174409539850636 [Eh]
	 SCS Total Energy          =    -475.1984098032972952 [Eh]
	-----------------------------------------------------------

  Dipole Moment: [D]
     X:     9.8359      Y:     1.5989      Z:     0.1275     Total:     9.9658

*** Psi4 exiting successfully. Buy a developer a beer!
