                               Psi4 1.4a3.dev225

  ==> Input File <==

--------------------------------------------------------------------------
#psi4
#
memory 32 gb

molecule  {
-1 1
  O       -1.5186010     1.5599430    -0.1433510
  O        2.2638970    -1.4295650    -0.0456660
  O        3.5317420     0.4486470     0.1950180
  N        0.0040180    -0.1295860    -0.1151350
  C       -2.3384940    -0.6954940    -0.4149760
  C       -1.2508570     0.3439190    -0.2101810
  C        1.1349994     0.6760284     0.0350089
  C       -3.5055210    -0.4701880     0.5431350
  C        2.4465640    -0.1793200     0.0655420
  H       -2.6873130    -0.6028840    -1.4504550
  H       -1.9319890    -1.7056860    -0.3020050
  H        1.2516430     1.4279040    -0.7806770
  H        1.1211640     1.2868180     0.9683990
  H        0.2309340    -1.1197490    -0.1755670
  H       -3.1861080    -0.6022700     1.5809140
  H       -3.8905480     0.5449040     0.4307430
  H       -4.3152940    -1.1768540     0.3431720
units angstrom
no_reorient  #important for SAPT in psi4, default
symmetry c1  #important for SAPT in psi4, default
}

set PROPERTIES_ORIGIN ["COM"]
properties('MP2/aug-cc-pvtz', properties = ['dipole'])
--------------------------------------------------------------------------

    Molecular point group: c1
  Charge       = -1
  Multiplicity = 1
  Basis Set: AUG-CC-PVTZ
    Blend: AUG-CC-PVTZ
  Basis Set: (AUG-CC-PVTZ AUX)
    Blend: AUG-CC-PVTZ-JKFIT

    Orbital Energies [Eh]
    ---------------------

    Doubly Occupied:

       1A    -20.389518     2A    -20.321684     3A    -20.314234
       4A    -15.446688     5A    -11.224076     6A    -11.164284
       7A    -11.136667     8A    -11.128804     9A    -11.107508
      10A     -1.241606    11A     -1.189762    12A     -1.104814
      13A     -1.084996    14A     -0.951658    15A     -0.831771
      16A     -0.758193    17A     -0.656692    18A     -0.588959
      19A     -0.549379    20A     -0.526467    21A     -0.504743
      22A     -0.486256    23A     -0.477134    24A     -0.436693
      25A     -0.425158    26A     -0.420235    27A     -0.407553
      28A     -0.396633    29A     -0.380989    30A     -0.343425
      31A     -0.300745    32A     -0.253965    33A     -0.237637
      34A     -0.224029    35A     -0.215755

  @DF-RHF Final Energy:  -473.28469453766911

   => Energetics <=

    Nuclear Repulsion Energy =            435.8192049680917535
    One-Electron Energy =               -1523.7503771365566081
    Two-Electron Energy =                 614.6464776307957436
    Total Energy =                       -473.2846945376691110
  Basis Set: (AUG-CC-PVTZ AUX)
    Blend: AUG-CC-PVTZ-RI
    Molecular point group: c1

    Geometry (in Angstrom), charge = -1, multiplicity = 1:

       Center              X                  Y                   Z               Mass
    ------------   -----------------  -----------------  -----------------  -----------------
         O           -1.616985870769     1.547769727651    -0.138163942684    15.994914619570
         O            2.165512129231    -1.441738272349    -0.040478942684    15.994914619570
         O            3.433357129231     0.436473727651     0.200205057316    15.994914619570
         N           -0.094366870769    -0.141759272349    -0.109947942684    14.003074004430
         C           -2.436878870769    -0.707667272349    -0.409788942684    12.000000000000
         C           -1.349241870769     0.331745727651    -0.204993942684    12.000000000000
         C            1.036614529231     0.663855127651     0.040195957316    12.000000000000
         C           -3.603905870769    -0.482361272349     0.548322057316    12.000000000000
         C            2.348179129231    -0.191493272349     0.070729057316    12.000000000000
         H           -2.785697870769    -0.615057272349    -1.445267942684     1.007825032230
         H           -2.030373870769    -1.717859272349    -0.296817942684     1.007825032230
         H            1.153258129231     1.415730727651    -0.775489942684     1.007825032230
         H            1.022779129231     1.274644727651     0.973586057316     1.007825032230
         H            0.132549129231    -1.131922272349    -0.170379942684     1.007825032230
         H           -3.284492870769    -0.614443272349     1.586101057316     1.007825032230
         H           -3.988932870769     0.532730727651     0.435930057316     1.007825032230
         H           -4.413678870769    -1.189027272349     0.348359057316     1.007825032230

  Basis Set: AUG-CC-PVTZ
    Blend: AUG-CC-PVTZ
  Basis Set: (AUG-CC-PVTZ AUX)
    Blend: AUG-CC-PVTZ-JKFIT
	 Reference Energy          =    -473.2846945376691110 [Eh]
	 Singles Energy            =      -0.0000000000000000 [Eh]
	 Same-Spin Energy          =      -0.4763170735212751 [Eh]
	 Opposite-Spin Energy      =      -1.4650148562472232 [Eh]
	 Correlation Energy        =      -1.9413319297684981 [Eh]
	 Total Energy              =    -475.2260264674376344 [Eh]

	 ================> DF-SCS-MP2 Energies <==================
	-----------------------------------------------------------
	 SCS Same-Spin Scale       =       0.3333333333333333 [-]
	 SCS Opposite-Spin Scale   =       1.2000000000000000 [-]
	 SCS Same-Spin Energy      =      -0.1587723578404250 [Eh]
	 SCS Opposite-Spin Energy  =      -1.7580178274966678 [Eh]
	 SCS Correlation Energy    =      -1.9167901853370928 [Eh]
	 SCS Total Energy          =    -475.2014847230062173 [Eh]
	-----------------------------------------------------------

  Dipole Moment: [D]
     X:    -9.5042      Y:    -1.2159      Z:    -0.4262     Total:     9.5911

*** Psi4 exiting successfully. Buy a developer a beer!
