                               Psi4 1.3.2 release

  ==> Input File <==

--------------------------------------------------------------------------
#psi4
#
memory 32 gb

molecule  {
-1 1
  O        1.5553730    -1.4489990    -0.0078940
  O       -2.4744110     1.3948030    -0.0154550
  O       -3.5371250    -0.6067510    -0.0268560
  N       -0.0146490     0.2143920     0.0158120
  C        2.3272120     0.8379530     0.0018960
  C        1.2700260    -0.3209966     0.0034602
  C       -1.1489000    -0.6463140     0.0180560
  C        3.7164760     0.2336920    -0.0114620
  C       -2.5073920     0.1288020     0.0323140
  H        2.1647820     1.4966320    -0.8622200
  H        2.1776990     1.4878210     0.8748480
  H       -1.1517560    -1.3070500    -0.8570610
  H       -1.1395970    -1.3178250     0.8849180
  H       -0.2830670     1.1965190     0.0239890
  H        3.8663740    -0.3931470     0.8680960
  H        3.8530680    -0.3842560    -0.8995260
  H        4.4669480     1.0276640    -0.0135300
units angstrom
no_reorient  #important for SAPT in psi4, default
symmetry c1  #important for SAPT in psi4, default
}

set PROPERTIES_ORIGIN ["COM"]
properties('MP2/aug-cc-pvtz', properties = ['dipole'])
--------------------------------------------------------------------------

    Molecular point group: c1
  Charge       = -1
  Multiplicity = 1
  Basis Set: AUG-CC-PVTZ
    Blend: AUG-CC-PVTZ
  Basis Set: (AUG-CC-PVTZ AUX)
    Blend: AUG-CC-PVTZ-JKFIT

    Orbital Energies [Eh]
    ---------------------

    Doubly Occupied:

       1A    -20.413252     2A    -20.317813     3A    -20.306251
       4A    -15.434723     5A    -11.227489     6A    -11.159558
       7A    -11.133158     8A    -11.123225     9A    -11.101102
      10A     -1.303562    11A     -1.182588    12A     -1.089122
      13A     -1.076048    14A     -0.945987    15A     -0.819869
      16A     -0.747310    17A     -0.652273    18A     -0.591455
      19A     -0.541928    20A     -0.533711    21A     -0.525214
      22A     -0.480981    23A     -0.480729    24A     -0.427099
      25A     -0.426421    26A     -0.420252    27A     -0.419388
      28A     -0.394412    29A     -0.394093    30A     -0.346547
      31A     -0.305152    32A     -0.251785    33A     -0.230680
      34A     -0.218920    35A     -0.208447

  @DF-RHF Final Energy:  -473.27662640993731

   => Energetics <=

    Nuclear Repulsion Energy =            433.7049718094494324
    One-Electron Energy =               -1519.5021106000326654
    Two-Electron Energy =                 612.5205123806458687
    Total Energy =                       -473.2766264099373075
  Basis Set: (AUG-CC-PVTZ AUX)
    Blend: AUG-CC-PVTZ-RI
    Molecular point group: c1

    Geometry (in Angstrom), charge = -1, multiplicity = 1:

       Center              X                  Y                   Z               Mass
    ------------   -----------------  -----------------  -----------------  -----------------
         O            1.659397030938    -1.426303846657    -0.007657391882    15.994914619570
         O           -2.370386969062     1.417498153343    -0.015218391882    15.994914619570
         O           -3.433100969062    -0.584055846657    -0.026619391882    15.994914619570
         N            0.089375030938     0.237087153343     0.016048608118    14.003074004430
         C            2.431236030938     0.860648153343     0.002132608118    12.000000000000
         C            1.374050030938    -0.298301446657     0.003696808118    12.000000000000
         C           -1.044875969062    -0.623618846657     0.018292608118    12.000000000000
         C            3.820500030938     0.256387153343    -0.011225391882    12.000000000000
         C           -2.403367969062     0.151497153343     0.032550608118    12.000000000000
         H            2.268806030938     1.519327153343    -0.861983391882     1.007825032230
         H            2.281723030938     1.510516153343     0.875084608118     1.007825032230
         H           -1.047731969062    -1.284354846657    -0.856824391882     1.007825032230
         H           -1.035572969062    -1.295129846657     0.885154608118     1.007825032230
         H           -0.179042969062     1.219214153343     0.024225608118     1.007825032230
         H            3.970398030938    -0.370451846657     0.868332608118     1.007825032230
         H            3.957092030938    -0.361560846657    -0.899289391882     1.007825032230
         H            4.570972030938     1.050359153343    -0.013293391882     1.007825032230

  Basis Set: AUG-CC-PVTZ
    Blend: AUG-CC-PVTZ
  Basis Set: (AUG-CC-PVTZ AUX)
    Blend: AUG-CC-PVTZ-JKFIT
	 Reference Energy          =    -473.2766264099373075 [Eh]
	 Singles Energy            =      -0.0000000000000000 [Eh]
	 Same-Spin Energy          =      -0.4743653719300837 [Eh]
	 Opposite-Spin Energy      =      -1.4618401381317132 [Eh]
	 Correlation Energy        =      -1.9362055100617970 [Eh]
	 Total Energy              =    -475.2128319199991324 [Eh]

	 ================> DF-SCS-MP2 Energies <==================
	-----------------------------------------------------------
	 SCS Same-Spin Scale       =       0.3333333333333333 [-]
	 SCS Opposite-Spin Scale   =       1.2000000000000000 [-]
	 SCS Same-Spin Energy      =      -0.1581217906433612 [Eh]
	 SCS Opposite-Spin Energy  =      -1.7542081657580557 [Eh]
	 SCS Correlation Energy    =      -1.9123299564014169 [Eh]
	 SCS Total Energy          =    -475.1889563663387435 [Eh]
	-----------------------------------------------------------

  Dipole Moment: [D]
     X:    10.4053      Y:     0.9106      Z:     0.1288     Total:    10.4459

*** Psi4 exiting successfully. Buy a developer a beer!
