                               Psi4 1.3.2 release

  ==> Input File <==

--------------------------------------------------------------------------
#psi4
#
memory 32 gb

molecule  {
-1 1
  O        1.5553730    -1.4489990    -0.0078940
  O       -2.4744110     1.3948030    -0.0154550
  O       -3.5371250    -0.6067510    -0.0268560
  N        0.0100266     0.2797441     0.0159606
  C        2.2701512     0.8931086     0.0025884
  C        1.2455030    -0.2240550     0.0044360
  C       -1.1489000    -0.6463140     0.0180560
  C        3.7164760     0.2336920    -0.0114620
  C       -2.5073920     0.1288020     0.0323140
  H        2.1647820     1.4966320    -0.8622200
  H        2.1776990     1.4878210     0.8748480
  H       -1.1517560    -1.3070500    -0.8570610
  H       -1.1395970    -1.3178250     0.8849180
  H       -0.2830670     1.1965190     0.0239890
  H        3.8663740    -0.3931470     0.8680960
  H        3.8530680    -0.3842560    -0.8995260
  H        4.4669480     1.0276640    -0.0135300
units angstrom
no_reorient  #important for SAPT in psi4, default
symmetry c1  #important for SAPT in psi4, default
}

set PROPERTIES_ORIGIN ["COM"]
properties('MP2/aug-cc-pvtz', properties = ['dipole'])
--------------------------------------------------------------------------

    Molecular point group: c1
  Charge       = -1
  Multiplicity = 1
  Basis Set: AUG-CC-PVTZ
    Blend: AUG-CC-PVTZ
  Basis Set: (AUG-CC-PVTZ AUX)
    Blend: AUG-CC-PVTZ-JKFIT

    Orbital Energies [Eh]
    ---------------------

    Doubly Occupied:

       1A    -20.396722     2A    -20.322078     3A    -20.311094
       4A    -15.449028     5A    -11.229940     6A    -11.164543
       7A    -11.130825     8A    -11.124405     9A    -11.113313
      10A     -1.235042    11A     -1.186845    12A     -1.102888
      13A     -1.082450    14A     -0.940528    15A     -0.829376
      16A     -0.761441    17A     -0.680002    18A     -0.587840
      19A     -0.539961    20A     -0.536349    21A     -0.507199
      22A     -0.478325    23A     -0.471849    24A     -0.429909
      25A     -0.423045    26A     -0.418305    27A     -0.406328
      28A     -0.388992    29A     -0.385699    30A     -0.344398
      31A     -0.305380    32A     -0.264790    33A     -0.235132
      34A     -0.224172    35A     -0.213658

  @DF-RHF Final Energy:  -473.27186754547796

   => Energetics <=

    Nuclear Repulsion Energy =            432.5043830205383983
    One-Electron Energy =               -1517.1087998694281396
    Two-Electron Energy =                 611.3325493034118381
    Total Energy =                       -473.2718675454779031
  Basis Set: (AUG-CC-PVTZ AUX)
    Blend: AUG-CC-PVTZ-RI
    Molecular point group: c1

    Geometry (in Angstrom), charge = -1, multiplicity = 1:

       Center              X                  Y                   Z               Mass
    ------------   -----------------  -----------------  -----------------  -----------------
         O            1.664267998339    -1.447374879971    -0.007827320262    15.994914619570
         O           -2.365516001661     1.396427120029    -0.015388320262    15.994914619570
         O           -3.428230001661    -0.605126879971    -0.026789320262    15.994914619570
         N            0.118921598339     0.281368220029     0.016027279738    14.003074004430
         C            2.379046198339     0.894732720029     0.002655079738    12.000000000000
         C            1.354397998339    -0.222430879971     0.004502679738    12.000000000000
         C           -1.040005001661    -0.644689879971     0.018122679738    12.000000000000
         C            3.825370998339     0.235316120029    -0.011395320262    12.000000000000
         C           -2.398497001661     0.130426120029     0.032380679738    12.000000000000
         H            2.273676998339     1.498256120029    -0.862153320262     1.007825032230
         H            2.286593998339     1.489445120029     0.874914679738     1.007825032230
         H           -1.042861001661    -1.305425879971    -0.856994320262     1.007825032230
         H           -1.030702001661    -1.316200879971     0.884984679738     1.007825032230
         H           -0.174172001661     1.198143120029     0.024055679738     1.007825032230
         H            3.975268998339    -0.391522879971     0.868162679738     1.007825032230
         H            3.961962998339    -0.382631879971    -0.899459320262     1.007825032230
         H            4.575842998339     1.029288120029    -0.013463320262     1.007825032230

  Basis Set: AUG-CC-PVTZ
    Blend: AUG-CC-PVTZ
  Basis Set: (AUG-CC-PVTZ AUX)
    Blend: AUG-CC-PVTZ-JKFIT
	 Reference Energy          =    -473.2718675454779600 [Eh]
	 Singles Energy            =      -0.0000000000000000 [Eh]
	 Same-Spin Energy          =      -0.4755003680809776 [Eh]
	 Opposite-Spin Energy      =      -1.4654876371848462 [Eh]
	 Correlation Energy        =      -1.9409880052658237 [Eh]
	 Total Energy              =    -475.2128555507437682 [Eh]

	 ================> DF-SCS-MP2 Energies <==================
	-----------------------------------------------------------
	 SCS Same-Spin Scale       =       0.3333333333333333 [-]
	 SCS Opposite-Spin Scale   =       1.2000000000000000 [-]
	 SCS Same-Spin Energy      =      -0.1585001226936592 [Eh]
	 SCS Opposite-Spin Energy  =      -1.7585851646218154 [Eh]
	 SCS Correlation Energy    =      -1.9170852873154745 [Eh]
	 SCS Total Energy          =    -475.1889528327934613 [Eh]
	-----------------------------------------------------------

  Dipole Moment: [D]
     X:     9.7734      Y:     1.4863      Z:     0.1378     Total:     9.8867

*** Psi4 exiting successfully. Buy a developer a beer!
