                               Psi4 1.3.2 release

  ==> Input File <==

--------------------------------------------------------------------------
#psi4
#
memory 32 gb

molecule  {
-1 1
  O        1.5446714    -1.4516570    -0.0078518
  O       -2.4744110     1.3948030    -0.0154550
  O       -3.5371250    -0.6067510    -0.0268560
  N       -0.0184278     0.2033785     0.0157409
  C        2.3272120     0.8379530     0.0018960
  C        1.2455030    -0.2240550     0.0044360
  C       -1.1489000    -0.6463140     0.0180560
  C        3.7164760     0.2336920    -0.0114620
  C       -2.5073920     0.1288020     0.0323140
  H        2.1647820     1.4966320    -0.8622200
  H        2.1776990     1.4878210     0.8748480
  H       -1.1517560    -1.3070500    -0.8570610
  H       -1.1395970    -1.3178250     0.8849180
  H       -0.2830670     1.1965190     0.0239890
  H        3.8663740    -0.3931470     0.8680960
  H        3.8530680    -0.3842560    -0.8995260
  H        4.4669480     1.0276640    -0.0135300
units angstrom
no_reorient  #important for SAPT in psi4, default
symmetry c1  #important for SAPT in psi4, default
}

set PROPERTIES_ORIGIN ["COM"]
properties('MP2/aug-cc-pvtz', properties = ['dipole'])
--------------------------------------------------------------------------

    Molecular point group: c1
  Charge       = -1
  Multiplicity = 1
  Basis Set: AUG-CC-PVTZ
    Blend: AUG-CC-PVTZ
  Basis Set: (AUG-CC-PVTZ AUX)
    Blend: AUG-CC-PVTZ-JKFIT

    Orbital Energies [Eh]
    ---------------------

    Doubly Occupied:

       1A    -20.390669     2A    -20.322335     3A    -20.310549
       4A    -15.450990     5A    -11.227217     6A    -11.164495
       7A    -11.138684     8A    -11.124825     9A    -11.107711
      10A     -1.235386    11A     -1.186765    12A     -1.101963
      13A     -1.082147    14A     -0.953541    15A     -0.837136
      16A     -0.758803    17A     -0.657033    18A     -0.590659
      19A     -0.545817    20A     -0.535864    21A     -0.506894
      22A     -0.484992    23A     -0.474591    24A     -0.426494
      25A     -0.424804    26A     -0.417324    27A     -0.413843
      28A     -0.396290    29A     -0.380217    30A     -0.343771
      31A     -0.303312    32A     -0.256213    33A     -0.235029
      34A     -0.224636    35A     -0.212900

  @DF-RHF Final Energy:  -473.28110220099762

   => Energetics <=

    Nuclear Repulsion Energy =            433.5170249427939098
    One-Electron Energy =               -1519.1484547029767782
    Two-Electron Energy =                 612.3503275591853026
    Total Energy =                       -473.2811022009976796
  Basis Set: (AUG-CC-PVTZ AUX)
    Blend: AUG-CC-PVTZ-RI
    Molecular point group: c1

    Geometry (in Angstrom), charge = -1, multiplicity = 1:

       Center              X                  Y                   Z               Mass
    ------------   -----------------  -----------------  -----------------  -----------------
         O            1.652681285054    -1.436394055453    -0.007702765356    15.994914619570
         O           -2.366401114946     1.410065944547    -0.015305965356    15.994914619570
         O           -3.429115114946    -0.591488055453    -0.026706965356    15.994914619570
         N            0.089582085054     0.218641444547     0.015889934644    14.003074004430
         C            2.435221885054     0.853215944547     0.002045034644    12.000000000000
         C            1.353512885054    -0.208792055453     0.004585034644    12.000000000000
         C           -1.040890114946    -0.631051055453     0.018205034644    12.000000000000
         C            3.824485885054     0.248954944547    -0.011312965356    12.000000000000
         C           -2.399382114946     0.144064944547     0.032463034644    12.000000000000
         H            2.272791885054     1.511894944547    -0.862070965356     1.007825032230
         H            2.285708885054     1.503083944547     0.874997034644     1.007825032230
         H           -1.043746114946    -1.291787055453    -0.856911965356     1.007825032230
         H           -1.031587114946    -1.302562055453     0.885067034644     1.007825032230
         H           -0.175057114946     1.211781944547     0.024138034644     1.007825032230
         H            3.974383885054    -0.377884055453     0.868245034644     1.007825032230
         H            3.961077885054    -0.368993055453    -0.899376965356     1.007825032230
         H            4.574957885054     1.042926944547    -0.013380965356     1.007825032230

  Basis Set: AUG-CC-PVTZ
    Blend: AUG-CC-PVTZ
  Basis Set: (AUG-CC-PVTZ AUX)
    Blend: AUG-CC-PVTZ-JKFIT
	 Reference Energy          =    -473.2811022009976227 [Eh]
	 Singles Energy            =      -0.0000000000000000 [Eh]
	 Same-Spin Energy          =      -0.4762985223483621 [Eh]
	 Opposite-Spin Energy      =      -1.4655329319460897 [Eh]
	 Correlation Energy        =      -1.9418314542944517 [Eh]
	 Total Energy              =    -475.2229336552920813 [Eh]

	 ================> DF-SCS-MP2 Energies <==================
	-----------------------------------------------------------
	 SCS Same-Spin Scale       =       0.3333333333333333 [-]
	 SCS Opposite-Spin Scale   =       1.2000000000000000 [-]
	 SCS Same-Spin Energy      =      -0.1587661741161207 [Eh]
	 SCS Opposite-Spin Energy  =      -1.7586395183353076 [Eh]
	 SCS Correlation Energy    =      -1.9174056924514282 [Eh]
	 SCS Total Energy          =    -475.1985078934490616 [Eh]
	-----------------------------------------------------------

  Dipole Moment: [D]
     X:     9.9337      Y:     1.5905      Z:     0.1365     Total:    10.0611

*** Psi4 exiting successfully. Buy a developer a beer!
