                               Psi4 1.3.2 release

  ==> Input File <==

--------------------------------------------------------------------------
#psi4
#
memory 32 gb

molecule  {
-1 1
  O        1.5553730    -1.4489990    -0.0078940
  O       -2.4744110     1.3948030    -0.0154550
  O       -3.5371250    -0.6067510    -0.0268560
  N       -0.0146490     0.2143920     0.0158120
  C        2.3272120     0.8379530     0.0018960
  C        1.2208267    -0.2894066     0.0041879
  C       -1.1023024    -0.7044948     0.0173680
  C        3.7164760     0.2336920    -0.0114620
  C       -2.5073920     0.1288020     0.0323140
  H        2.1647820     1.4966320    -0.8622200
  H        2.1776990     1.4878210     0.8748480
  H       -1.1517560    -1.3070500    -0.8570610
  H       -1.1395970    -1.3178250     0.8849180
  H       -0.2830670     1.1965190     0.0239890
  H        3.8663740    -0.3931470     0.8680960
  H        3.8530680    -0.3842560    -0.8995260
  H        4.4669480     1.0276640    -0.0135300
units angstrom
no_reorient  #important for SAPT in psi4, default
symmetry c1  #important for SAPT in psi4, default
}

set PROPERTIES_ORIGIN ["COM"]
properties('MP2/aug-cc-pvtz', properties = ['dipole'])
--------------------------------------------------------------------------

    Molecular point group: c1
  Charge       = -1
  Multiplicity = 1
  Basis Set: AUG-CC-PVTZ
    Blend: AUG-CC-PVTZ
  Basis Set: (AUG-CC-PVTZ AUX)
    Blend: AUG-CC-PVTZ-JKFIT

    Orbital Energies [Eh]
    ---------------------

    Doubly Occupied:

       1A    -20.399808     2A    -20.323872     3A    -20.310947
       4A    -15.446134     5A    -11.223686     6A    -11.166474
       7A    -11.131314     8A    -11.120443     9A    -11.102447
      10A     -1.269128    11A     -1.185285    12A     -1.106736
      13A     -1.082278    14A     -0.940964    15A     -0.826320
      16A     -0.747258    17A     -0.663835    18A     -0.583004
      19A     -0.536058    20A     -0.531224    21A     -0.516188
      22A     -0.491261    23A     -0.483478    24A     -0.420786
      25A     -0.420533    26A     -0.417750    27A     -0.415994
      28A     -0.401311    29A     -0.386748    30A     -0.352753
      31A     -0.298350    32A     -0.264831    33A     -0.234171
      34A     -0.215553    35A     -0.213530

  @DF-RHF Final Energy:  -473.27657813354779

   => Energetics <=

    Nuclear Repulsion Energy =            433.2915638471287139
    One-Electron Energy =               -1518.6753763845172216
    Two-Electron Energy =                 612.1072344038408346
    Total Energy =                       -473.2765781335477868
  Basis Set: (AUG-CC-PVTZ AUX)
    Blend: AUG-CC-PVTZ-RI
    Molecular point group: c1

    Geometry (in Angstrom), charge = -1, multiplicity = 1:

       Center              X                  Y                   Z               Mass
    ------------   -----------------  -----------------  -----------------  -----------------
         O            1.659637094757    -1.423850262850    -0.007661055077    15.994914619570
         O           -2.370146905243     1.419951737150    -0.015222055077    15.994914619570
         O           -3.432860905243    -0.581602262850    -0.026623055077    15.994914619570
         N            0.089615094757     0.239540737150     0.016044944923    14.003074004430
         C            2.431476094757     0.863101737150     0.002128944923    12.000000000000
         C            1.325090794757    -0.264257862850     0.004420844923    12.000000000000
         C           -0.998038305243    -0.679346062850     0.017600944923    12.000000000000
         C            3.820740094757     0.258840737150    -0.011229055077    12.000000000000
         C           -2.403127905243     0.153950737150     0.032546944923    12.000000000000
         H            2.269046094757     1.521780737150    -0.861987055077     1.007825032230
         H            2.281963094757     1.512969737150     0.875080944923     1.007825032230
         H           -1.047491905243    -1.281901262850    -0.856828055077     1.007825032230
         H           -1.035332905243    -1.292676262850     0.885150944923     1.007825032230
         H           -0.178802905243     1.221667737150     0.024221944923     1.007825032230
         H            3.970638094757    -0.367998262850     0.868328944923     1.007825032230
         H            3.957332094757    -0.359107262850    -0.899293055077     1.007825032230
         H            4.571212094757     1.052812737150    -0.013297055077     1.007825032230

  Basis Set: AUG-CC-PVTZ
    Blend: AUG-CC-PVTZ
  Basis Set: (AUG-CC-PVTZ AUX)
    Blend: AUG-CC-PVTZ-JKFIT
	 Reference Energy          =    -473.2765781335477868 [Eh]
	 Singles Energy            =      -0.0000000000000000 [Eh]
	 Same-Spin Energy          =      -0.4752051456748528 [Eh]
	 Opposite-Spin Energy      =      -1.4635246725348021 [Eh]
	 Correlation Energy        =      -1.9387298182096548 [Eh]
	 Total Energy              =    -475.2153079517574383 [Eh]

	 ================> DF-SCS-MP2 Energies <==================
	-----------------------------------------------------------
	 SCS Same-Spin Scale       =       0.3333333333333333 [-]
	 SCS Opposite-Spin Scale   =       1.2000000000000000 [-]
	 SCS Same-Spin Energy      =      -0.1584017152249509 [Eh]
	 SCS Opposite-Spin Energy  =      -1.7562296070417625 [Eh]
	 SCS Correlation Energy    =      -1.9146313222667133 [Eh]
	 SCS Total Energy          =    -475.1912094558144872 [Eh]
	-----------------------------------------------------------

  Dipole Moment: [D]
     X:     9.7579      Y:     1.1799      Z:     0.1337     Total:     9.8299

*** Psi4 exiting successfully. Buy a developer a beer!
