                               Psi4 1.4a3.dev225

  ==> Input File <==

--------------------------------------------------------------------------
#psi4
#
memory 32 gb

molecule  {
-1 1
  O       -1.5186010     1.5599430    -0.1433510
  O        2.2638970    -1.4295650    -0.0456660
  O        3.5317420     0.4486470     0.1950180
  N        0.0040180    -0.1295860    -0.1151350
  C       -2.3384940    -0.6954940    -0.4149760
  C       -1.2615930     0.3926792    -0.2075012
  C        1.1754880     0.7048690     0.0403840
  C       -3.5055210    -0.4701880     0.5431350
  C        2.4465640    -0.1793200     0.0655420
  H       -2.6873130    -0.6028840    -1.4504550
  H       -1.9319890    -1.7056860    -0.3020050
  H        1.2516430     1.4279040    -0.7806770
  H        1.1211640     1.2868180     0.9683990
  H        0.2309340    -1.1197490    -0.1755670
  H       -3.1861080    -0.6022700     1.5809140
  H       -3.8905480     0.5449040     0.4307430
  H       -4.3152940    -1.1768540     0.3431720
units angstrom
no_reorient  #important for SAPT in psi4, default
symmetry c1  #important for SAPT in psi4, default
}

set PROPERTIES_ORIGIN ["COM"]
properties('MP2/aug-cc-pvtz', properties = ['dipole'])
--------------------------------------------------------------------------

    Molecular point group: c1
  Charge       = -1
  Multiplicity = 1
  Basis Set: AUG-CC-PVTZ
    Blend: AUG-CC-PVTZ
  Basis Set: (AUG-CC-PVTZ AUX)
    Blend: AUG-CC-PVTZ-JKFIT

    Orbital Energies [Eh]
    ---------------------

    Doubly Occupied:

       1A    -20.398135     2A    -20.320189     3A    -20.311438
       4A    -15.436611     5A    -11.222001     6A    -11.161223
       7A    -11.133307     8A    -11.126998     9A    -11.104769
      10A     -1.271618    11A     -1.188245    12A     -1.093204
      13A     -1.076366    14A     -0.945823    15A     -0.823448
      16A     -0.754397    17A     -0.648792    18A     -0.584691
      19A     -0.544196    20A     -0.525113    21A     -0.507694
      22A     -0.489348    23A     -0.475390    24A     -0.437847
      25A     -0.427494    26A     -0.421745    27A     -0.409532
      28A     -0.393984    29A     -0.386693    30A     -0.347269
      31A     -0.300412    32A     -0.254200    33A     -0.236572
      34A     -0.222884    35A     -0.213561

  @DF-RHF Final Energy:  -473.28732828037727

   => Energetics <=

    Nuclear Repulsion Energy =            435.3568485675326087
    One-Electron Energy =               -1522.8979719440940244
    Two-Electron Energy =                 614.2537950961841489
    Total Energy =                       -473.2873282803773236
  Basis Set: (AUG-CC-PVTZ AUX)
    Blend: AUG-CC-PVTZ-RI
    Molecular point group: c1

    Geometry (in Angstrom), charge = -1, multiplicity = 1:

       Center              X                  Y                   Z               Mass
    ------------   -----------------  -----------------  -----------------  -----------------
         O           -1.619731199890     1.540609353902    -0.138907183662    15.994914619570
         O            2.162766800110    -1.448898646098    -0.041222183662    15.994914619570
         O            3.430611800110     0.429313353902     0.199461816338    15.994914619570
         N           -0.097112199890    -0.148919646098    -0.110691183662    14.003074004430
         C           -2.439624199890    -0.714827646098    -0.410532183662    12.000000000000
         C           -1.362723199890     0.373345553902    -0.203057383662    12.000000000000
         C            1.074357800110     0.685535353902     0.044827816338    12.000000000000
         C           -3.606651199890    -0.489521646098     0.547578816338    12.000000000000
         C            2.345433800110    -0.198653646098     0.069985816338    12.000000000000
         H           -2.788443199890    -0.622217646098    -1.446011183662     1.007825032230
         H           -2.033119199890    -1.725019646098    -0.297561183662     1.007825032230
         H            1.150512800110     1.408570353902    -0.776233183662     1.007825032230
         H            1.020033800110     1.267484353902     0.972842816338     1.007825032230
         H            0.129803800110    -1.139082646098    -0.171123183662     1.007825032230
         H           -3.287238199890    -0.621603646098     1.585357816338     1.007825032230
         H           -3.991678199890     0.525570353902     0.435186816338     1.007825032230
         H           -4.416424199890    -1.196187646098     0.347615816338     1.007825032230

  Basis Set: AUG-CC-PVTZ
    Blend: AUG-CC-PVTZ
  Basis Set: (AUG-CC-PVTZ AUX)
    Blend: AUG-CC-PVTZ-JKFIT
	 Reference Energy          =    -473.2873282803772668 [Eh]
	 Singles Energy            =      -0.0000000000000000 [Eh]
	 Same-Spin Energy          =      -0.4749571964561113 [Eh]
	 Opposite-Spin Energy      =      -1.4630137124756404 [Eh]
	 Correlation Energy        =      -1.9379709089317516 [Eh]
	 Total Energy              =    -475.2252991893089984 [Eh]

	 ================> DF-SCS-MP2 Energies <==================
	-----------------------------------------------------------
	 SCS Same-Spin Scale       =       0.3333333333333333 [-]
	 SCS Opposite-Spin Scale   =       1.2000000000000000 [-]
	 SCS Same-Spin Energy      =      -0.1583190654853704 [Eh]
	 SCS Opposite-Spin Energy  =      -1.7556164549707685 [Eh]
	 SCS Correlation Energy    =      -1.9139355204561388 [Eh]
	 SCS Total Energy          =    -475.2012638008334307 [Eh]
	-----------------------------------------------------------

  Dipole Moment: [D]
     X:    -9.6225      Y:    -0.7968      Z:    -0.4173     Total:     9.6644

*** Psi4 exiting successfully. Buy a developer a beer!
