                               Psi4 1.3.2 release

  ==> Input File <==

--------------------------------------------------------------------------
#psi4
#
memory 32 gb

molecule  {
-1 1
  O        1.5553730    -1.4489990    -0.0078940
  O       -2.4081846     1.3912651    -0.0174142
  O       -3.5371250    -0.6067510    -0.0268560
  N       -0.0146490     0.2143920     0.0158120
  C        2.3272120     0.8379530     0.0018960
  C        1.2455030    -0.2240550     0.0044360
  C       -1.1102706    -0.5742139     0.0141758
  C        3.7164760     0.2336920    -0.0114620
  C       -2.5073920     0.1288020     0.0323140
  H        2.1647820     1.4966320    -0.8622200
  H        2.1776990     1.4878210     0.8748480
  H       -1.1517560    -1.3070500    -0.8570610
  H       -1.1395970    -1.3178250     0.8849180
  H       -0.2830670     1.1965190     0.0239890
  H        3.8663740    -0.3931470     0.8680960
  H        3.8530680    -0.3842560    -0.8995260
  H        4.4669480     1.0276640    -0.0135300
units angstrom
no_reorient  #important for SAPT in psi4, default
symmetry c1  #important for SAPT in psi4, default
}

set PROPERTIES_ORIGIN ["COM"]
properties('MP2/aug-cc-pvtz', properties = ['dipole'])
--------------------------------------------------------------------------

    Molecular point group: c1
  Charge       = -1
  Multiplicity = 1
  Basis Set: AUG-CC-PVTZ
    Blend: AUG-CC-PVTZ
  Basis Set: (AUG-CC-PVTZ AUX)
    Blend: AUG-CC-PVTZ-JKFIT

    Orbital Energies [Eh]
    ---------------------

    Doubly Occupied:

       1A    -20.393274     2A    -20.322951     3A    -20.315920
       4A    -15.450902     5A    -11.229162     6A    -11.166992
       7A    -11.138559     8A    -11.124679     9A    -11.106515
      10A     -1.238899    11A     -1.188484    12A     -1.117825
      13A     -1.087796    14A     -0.954493    15A     -0.837631
      16A     -0.754785    17A     -0.664568    18A     -0.596615
      19A     -0.554374    20A     -0.536556    21A     -0.505236
      22A     -0.481054    23A     -0.478564    24A     -0.428408
      25A     -0.423857    26A     -0.415488    27A     -0.413780
      28A     -0.393784    29A     -0.380044    30A     -0.339435
      31A     -0.305221    32A     -0.248008    33A     -0.238508
      34A     -0.223144    35A     -0.216475

  @DF-RHF Final Energy:  -473.26886402676627

   => Energetics <=

    Nuclear Repulsion Energy =            435.1166430838295014
    One-Electron Energy =               -1522.2270400288125529
    Two-Electron Energy =                 613.8415329182167852
    Total Energy =                       -473.2688640267662095
  Basis Set: (AUG-CC-PVTZ AUX)
    Blend: AUG-CC-PVTZ-RI
    Molecular point group: c1

    Geometry (in Angstrom), charge = -1, multiplicity = 1:

       Center              X                  Y                   Z               Mass
    ------------   -----------------  -----------------  -----------------  -----------------
         O            1.649950214609    -1.441466519873    -0.007148435143    15.994914619570
         O           -2.313607385391     1.398797580127    -0.016668635143    15.994914619570
         O           -3.442547785391    -0.599218519873    -0.026110435143    15.994914619570
         N            0.079928214609     0.221924480127     0.016557564857    14.003074004430
         C            2.421789214609     0.845485480127     0.002641564857    12.000000000000
         C            1.340080214609    -0.216522519873     0.005181564857    12.000000000000
         C           -1.015693385391    -0.566681419873     0.014921364857    12.000000000000
         C            3.811053214609     0.241224480127    -0.010716435143    12.000000000000
         C           -2.412814785391     0.136334480127     0.033059564857    12.000000000000
         H            2.259359214609     1.504164480127    -0.861474435143     1.007825032230
         H            2.272276214609     1.495353480127     0.875593564857     1.007825032230
         H           -1.057178785391    -1.299517519873    -0.856315435143     1.007825032230
         H           -1.045019785391    -1.310292519873     0.885663564857     1.007825032230
         H           -0.188489785391     1.204051480127     0.024734564857     1.007825032230
         H            3.960951214609    -0.385614519873     0.868841564857     1.007825032230
         H            3.947645214609    -0.376723519873    -0.898780435143     1.007825032230
         H            4.561525214609     1.035196480127    -0.012784435143     1.007825032230

  Basis Set: AUG-CC-PVTZ
    Blend: AUG-CC-PVTZ
  Basis Set: (AUG-CC-PVTZ AUX)
    Blend: AUG-CC-PVTZ-JKFIT
	 Reference Energy          =    -473.2688640267662663 [Eh]
	 Singles Energy            =      -0.0000000000000000 [Eh]
	 Same-Spin Energy          =      -0.4774484464663462 [Eh]
	 Opposite-Spin Energy      =      -1.4666040636098887 [Eh]
	 Correlation Energy        =      -1.9440525100762349 [Eh]
	 Total Energy              =    -475.2129165368424992 [Eh]

	 ================> DF-SCS-MP2 Energies <==================
	-----------------------------------------------------------
	 SCS Same-Spin Scale       =       0.3333333333333333 [-]
	 SCS Opposite-Spin Scale   =       1.2000000000000000 [-]
	 SCS Same-Spin Energy      =      -0.1591494821554487 [Eh]
	 SCS Opposite-Spin Energy  =      -1.7599248763318665 [Eh]
	 SCS Correlation Energy    =      -1.9190743584873151 [Eh]
	 SCS Total Energy          =    -475.1879383852535739 [Eh]
	-----------------------------------------------------------

  Dipole Moment: [D]
     X:     9.8502      Y:     1.7398      Z:     0.1274     Total:    10.0034

*** Psi4 exiting successfully. Buy a developer a beer!
