                               Psi4 1.3.2 release

  ==> Input File <==

--------------------------------------------------------------------------
#psi4
#
memory 32 gb

molecule  {
-1 1
  O        1.5553730    -1.4489990    -0.0078940
  O       -2.4744110     1.3948030    -0.0154550
  O       -3.5371250    -0.6067510    -0.0268560
  N       -0.0146490     0.2143920     0.0158120
  C        2.3272120     0.8379530     0.0018960
  C        1.2455030    -0.2240550     0.0044360
  C       -1.1489000    -0.6463140     0.0180560
  C        3.7108794     0.2209070     0.0109971
  C       -2.5073920     0.1288020     0.0323140
  H        2.1470213     1.5002088    -0.8559423
  H        2.1776990     1.4878210     0.8748480
  H       -1.1517560    -1.3070500    -0.8570610
  H       -1.1395970    -1.3178250     0.8849180
  H       -0.2830670     1.1965190     0.0239890
  H        3.8663740    -0.3931470     0.8680960
  H        3.8530680    -0.3842560    -0.8995260
  H        4.4669480     1.0276640    -0.0135300
units angstrom
no_reorient  #important for SAPT in psi4, default
symmetry c1  #important for SAPT in psi4, default
}

set PROPERTIES_ORIGIN ["COM"]
properties('MP2/aug-cc-pvtz', properties = ['dipole'])
--------------------------------------------------------------------------

    Molecular point group: c1
  Charge       = -1
  Multiplicity = 1
  Basis Set: AUG-CC-PVTZ
    Blend: AUG-CC-PVTZ
  Basis Set: (AUG-CC-PVTZ AUX)
    Blend: AUG-CC-PVTZ-JKFIT

    Orbital Energies [Eh]
    ---------------------

    Doubly Occupied:

       1A    -20.391316     2A    -20.322489     3A    -20.310793
       4A    -15.451052     5A    -11.227168     6A    -11.164705
       7A    -11.137648     8A    -11.124564     9A    -11.108814
      10A     -1.235187    11A     -1.186969    12A     -1.102307
      13A     -1.082370    14A     -0.952569    15A     -0.836315
      16A     -0.758923    17A     -0.660170    18A     -0.589736
      19A     -0.544451    20A     -0.535873    21A     -0.507247
      22A     -0.484726    23A     -0.473298    24A     -0.428957
      25A     -0.423893    26A     -0.419235    27A     -0.411416
      28A     -0.396017    29A     -0.380084    30A     -0.343980
      31A     -0.303148    32A     -0.257777    33A     -0.235249
      34A     -0.224773    35A     -0.213193

  @DF-RHF Final Energy:  -473.28069705465299

   => Energetics <=

    Nuclear Repulsion Energy =            433.4881399669684470
    One-Electron Energy =               -1519.0848511577366935
    Two-Electron Energy =                 612.3160141361153137
    Total Energy =                       -473.2806970546529328
  Basis Set: (AUG-CC-PVTZ AUX)
    Blend: AUG-CC-PVTZ-RI
    Molecular point group: c1

    Geometry (in Angstrom), charge = -1, multiplicity = 1:

       Center              X                  Y                   Z               Mass
    ------------   -----------------  -----------------  -----------------  -----------------
         O            1.662313860300    -1.434096854963    -0.009868423783    15.994914619570
         O           -2.367470139700     1.409705145037    -0.017429423783    15.994914619570
         O           -3.430184139700    -0.591848854963    -0.028830423783    15.994914619570
         N            0.092291860300     0.229294145037     0.013837576217    14.003074004430
         C            2.434152860300     0.852855145037    -0.000078423783    12.000000000000
         C            1.352443860300    -0.209152854963     0.002461576217    12.000000000000
         C           -1.041959139700    -0.631411854963     0.016081576217    12.000000000000
         C            3.817820260300     0.235809145037     0.009022676217    12.000000000000
         C           -2.400451139700     0.143704145037     0.030339576217    12.000000000000
         H            2.253962160300     1.515110945037    -0.857916723783     1.007825032230
         H            2.284639860300     1.502723145037     0.872873576217     1.007825032230
         H           -1.044815139700    -1.292147854963    -0.859035423783     1.007825032230
         H           -1.032656139700    -1.302922854963     0.882943576217     1.007825032230
         H           -0.176126139700     1.211421145037     0.022014576217     1.007825032230
         H            3.973314860300    -0.378244854963     0.866121576217     1.007825032230
         H            3.960008860300    -0.369353854963    -0.901500423783     1.007825032230
         H            4.573888860300     1.042566145037    -0.015504423783     1.007825032230

  Basis Set: AUG-CC-PVTZ
    Blend: AUG-CC-PVTZ
  Basis Set: (AUG-CC-PVTZ AUX)
    Blend: AUG-CC-PVTZ-JKFIT
	 Reference Energy          =    -473.2806970546529897 [Eh]
	 Singles Energy            =      -0.0000000000000000 [Eh]
	 Same-Spin Energy          =      -0.4761842633418559 [Eh]
	 Opposite-Spin Energy      =      -1.4654184813463194 [Eh]
	 Correlation Energy        =      -1.9416027446881752 [Eh]
	 Total Energy              =    -475.2222997993411582 [Eh]

	 ================> DF-SCS-MP2 Energies <==================
	-----------------------------------------------------------
	 SCS Same-Spin Scale       =       0.3333333333333333 [-]
	 SCS Opposite-Spin Scale   =       1.2000000000000000 [-]
	 SCS Same-Spin Energy      =      -0.1587280877806186 [Eh]
	 SCS Opposite-Spin Energy  =      -1.7585021776155831 [Eh]
	 SCS Correlation Energy    =      -1.9172302653962019 [Eh]
	 SCS Total Energy          =    -475.1979273200491889 [Eh]
	-----------------------------------------------------------

  Dipole Moment: [D]
     X:     9.8899      Y:     1.5517      Z:     0.1560     Total:    10.0121

*** Psi4 exiting successfully. Buy a developer a beer!
