                               Psi4 1.4a3.dev225

  ==> Input File <==

--------------------------------------------------------------------------
#psi4
#
memory 32 gb

molecule  {
-1 1
  O       -1.5186010     1.5599430    -0.1433510
  O        2.2638970    -1.4295650    -0.0456660
  O        3.5317420     0.4486470     0.1950180
  N        0.0040180    -0.1295860    -0.1151350
  C       -2.3384940    -0.6954940    -0.4149760
  C       -1.2508570     0.3439190    -0.2101810
  C        1.1754880     0.7048690     0.0403840
  C       -3.5055210    -0.4701880     0.5431350
  C        2.4465640    -0.1793200     0.0655420
  H       -2.6873130    -0.6028840    -1.4504550
  H       -1.9319890    -1.7056860    -0.3020050
  H        1.2516430     1.4279040    -0.7806770
  H        1.1211640     1.2868180     0.9683990
  H        0.2420833    -1.1683996    -0.1785363
  H       -3.1861080    -0.6022700     1.5809140
  H       -3.8905480     0.5449040     0.4307430
  H       -4.3152940    -1.1768540     0.3431720
units angstrom
no_reorient  #important for SAPT in psi4, default
symmetry c1  #important for SAPT in psi4, default
}

set PROPERTIES_ORIGIN ["COM"]
properties('MP2/aug-cc-pvtz', properties = ['dipole'])
--------------------------------------------------------------------------

    Molecular point group: c1
  Charge       = -1
  Multiplicity = 1
  Basis Set: AUG-CC-PVTZ
    Blend: AUG-CC-PVTZ
  Basis Set: (AUG-CC-PVTZ AUX)
    Blend: AUG-CC-PVTZ-JKFIT

    Orbital Energies [Eh]
    ---------------------

    Doubly Occupied:

       1A    -20.386096     2A    -20.323664     3A    -20.314287
       4A    -15.447777     5A    -11.220887     6A    -11.164348
       7A    -11.134583     8A    -11.127283     9A    -11.108840
      10A     -1.237086    11A     -1.190997    12A     -1.095401
      13A     -1.078695    14A     -0.948786    15A     -0.830625
      16A     -0.758695    17A     -0.641924    18A     -0.583067
      19A     -0.544787    20A     -0.526488    21A     -0.501134
      22A     -0.484949    23A     -0.474377    24A     -0.436884
      25A     -0.426408    26A     -0.419297    27A     -0.406877
      28A     -0.392001    29A     -0.380325    30A     -0.345672
      31A     -0.297625    32A     -0.254863    33A     -0.239565
      34A     -0.226301    35A     -0.216663

  @DF-RHF Final Energy:  -473.28427204718480

   => Energetics <=

    Nuclear Repulsion Energy =            434.9744567005323574
    One-Electron Energy =               -1522.1829405350545130
    Two-Electron Energy =                 613.9242117873374127
    Total Energy =                       -473.2842720471847997
  Basis Set: (AUG-CC-PVTZ AUX)
    Blend: AUG-CC-PVTZ-RI
    Molecular point group: c1

    Geometry (in Angstrom), charge = -1, multiplicity = 1:

       Center              X                  Y                   Z               Mass
    ------------   -----------------  -----------------  -----------------  -----------------
         O           -1.620808232518     1.545485568079    -0.138636902833    15.994914619570
         O            2.161689767482    -1.444022431921    -0.040951902833    15.994914619570
         O            3.429534767482     0.434189568079     0.199732097167    15.994914619570
         N           -0.098189232518    -0.144043431921    -0.110420902833    14.003074004430
         C           -2.440701232518    -0.709951431921    -0.410261902833    12.000000000000
         C           -1.353064232518     0.329461568079    -0.205466902833    12.000000000000
         C            1.073280767482     0.690411568079     0.045098097167    12.000000000000
         C           -3.607728232518    -0.484645431921     0.547849097167    12.000000000000
         C            2.344356767482    -0.193777431921     0.070256097167    12.000000000000
         H           -2.789520232518    -0.617341431921    -1.445740902833     1.007825032230
         H           -2.034196232518    -1.720143431921    -0.297290902833     1.007825032230
         H            1.149435767482     1.413446568079    -0.775962902833     1.007825032230
         H            1.018956767482     1.272360568079     0.973113097167     1.007825032230
         H            0.139876067482    -1.182857031921    -0.173822202833     1.007825032230
         H           -3.288315232518    -0.616727431921     1.585628097167     1.007825032230
         H           -3.992755232518     0.530446568079     0.435457097167     1.007825032230
         H           -4.417501232518    -1.191311431921     0.347886097167     1.007825032230

  Basis Set: AUG-CC-PVTZ
    Blend: AUG-CC-PVTZ
  Basis Set: (AUG-CC-PVTZ AUX)
    Blend: AUG-CC-PVTZ-JKFIT
	 Reference Energy          =    -473.2842720471847997 [Eh]
	 Singles Energy            =      -0.0000000000000000 [Eh]
	 Same-Spin Energy          =      -0.4764129092412037 [Eh]
	 Opposite-Spin Energy      =      -1.4658615998856677 [Eh]
	 Correlation Energy        =      -1.9422745091268714 [Eh]
	 Total Energy              =    -475.2265465563116891 [Eh]

	 ================> DF-SCS-MP2 Energies <==================
	-----------------------------------------------------------
	 SCS Same-Spin Scale       =       0.3333333333333333 [-]
	 SCS Opposite-Spin Scale   =       1.2000000000000000 [-]
	 SCS Same-Spin Energy      =      -0.1588043030804012 [Eh]
	 SCS Opposite-Spin Energy  =      -1.7590339198628011 [Eh]
	 SCS Correlation Energy    =      -1.9178382229432023 [Eh]
	 SCS Total Energy          =    -475.2021102701280029 [Eh]
	-----------------------------------------------------------

  Dipole Moment: [D]
     X:    -9.2827      Y:    -1.1956      Z:    -0.4102     Total:     9.3683

*** Psi4 exiting successfully. Buy a developer a beer!
