                               Psi4 1.3.2 release

  ==> Input File <==

--------------------------------------------------------------------------
#psi4
#
memory 32 gb

molecule  {
-1 1
  O        1.5553730    -1.4489990    -0.0078940
  O       -2.4744110     1.3948030    -0.0154550
  O       -3.5371250    -0.6067510    -0.0268560
  N       -0.0146490     0.2143920     0.0158120
  C        2.3272120     0.8379530     0.0018960
  C        1.2352606    -0.2133455    -0.0174816
  C       -1.1489000    -0.6463140     0.0180560
  C        3.7164760     0.2336920    -0.0114620
  C       -2.5073920     0.1288020     0.0323140
  H        2.1494433     1.4862013    -0.8670749
  H        2.1776990     1.4878210     0.8748480
  H       -1.1517560    -1.3070500    -0.8570610
  H       -1.1395970    -1.3178250     0.8849180
  H       -0.2830670     1.1965190     0.0239890
  H        3.8663740    -0.3931470     0.8680960
  H        3.8530680    -0.3842560    -0.8995260
  H        4.4669480     1.0276640    -0.0135300
units angstrom
no_reorient  #important for SAPT in psi4, default
symmetry c1  #important for SAPT in psi4, default
}

set PROPERTIES_ORIGIN ["COM"]
properties('MP2/aug-cc-pvtz', properties = ['dipole'])
--------------------------------------------------------------------------

    Molecular point group: c1
  Charge       = -1
  Multiplicity = 1
  Basis Set: AUG-CC-PVTZ
    Blend: AUG-CC-PVTZ
  Basis Set: (AUG-CC-PVTZ AUX)
    Blend: AUG-CC-PVTZ-JKFIT

    Orbital Energies [Eh]
    ---------------------

    Doubly Occupied:

       1A    -20.387880     2A    -20.323508     3A    -20.311739
       4A    -15.454017     5A    -11.226607     6A    -11.165767
       7A    -11.137700     8A    -11.123904     9A    -11.110356
      10A     -1.228840    11A     -1.187737    12A     -1.104854
      13A     -1.083528    14A     -0.951981    15A     -0.838972
      16A     -0.759725    17A     -0.662728    18A     -0.589297
      19A     -0.545066    20A     -0.535650    21A     -0.506966
      22A     -0.485557    23A     -0.472462    24A     -0.426687
      25A     -0.426299    26A     -0.416985    27A     -0.411944
      28A     -0.396502    29A     -0.379123    30A     -0.343254
      31A     -0.300446    32A     -0.258865    33A     -0.236232
      34A     -0.225856    35A     -0.214193

  @DF-RHF Final Energy:  -473.27983643213031

   => Energetics <=

    Nuclear Repulsion Energy =            433.4286867870532092
    One-Electron Energy =               -1518.9545903788623491
    Two-Electron Energy =                 612.2460671596787734
    Total Energy =                       -473.2798364321303097
  Basis Set: (AUG-CC-PVTZ AUX)
    Blend: AUG-CC-PVTZ-RI
    Molecular point group: c1

    Geometry (in Angstrom), charge = -1, multiplicity = 1:

       Center              X                  Y                   Z               Mass
    ------------   -----------------  -----------------  -----------------  -----------------
         O            1.662723767846    -1.436156186219    -0.005687429052    15.994914619570
         O           -2.367060232154     1.407645813781    -0.013248429052    15.994914619570
         O           -3.429774232154    -0.593908186219    -0.024649429052    15.994914619570
         N            0.092701767846     0.227234813781     0.018018570948    14.003074004430
         C            2.434562767846     0.850795813781     0.004102570948    12.000000000000
         C            1.342611367846    -0.200502686219    -0.015275029052    12.000000000000
         C           -1.041549232154    -0.633471186219     0.020262570948    12.000000000000
         C            3.823826767846     0.246534813781    -0.009255429052    12.000000000000
         C           -2.400041232154     0.141644813781     0.034520570948    12.000000000000
         H            2.256794067846     1.499044113781    -0.864868329052     1.007825032230
         H            2.285049767846     1.500663813781     0.877054570948     1.007825032230
         H           -1.044405232154    -1.294207186219    -0.854854429052     1.007825032230
         H           -1.032246232154    -1.304982186219     0.887124570948     1.007825032230
         H           -0.175716232154     1.209361813781     0.026195570948     1.007825032230
         H            3.973724767846    -0.380304186219     0.870302570948     1.007825032230
         H            3.960418767846    -0.371413186219    -0.897319429052     1.007825032230
         H            4.574298767846     1.040506813781    -0.011323429052     1.007825032230

  Basis Set: AUG-CC-PVTZ
    Blend: AUG-CC-PVTZ
  Basis Set: (AUG-CC-PVTZ AUX)
    Blend: AUG-CC-PVTZ-JKFIT
	 Reference Energy          =    -473.2798364321303097 [Eh]
	 Singles Energy            =      -0.0000000000000000 [Eh]
	 Same-Spin Energy          =      -0.4763570926537438 [Eh]
	 Opposite-Spin Energy      =      -1.4657868667905198 [Eh]
	 Correlation Energy        =      -1.9421439594442635 [Eh]
	 Total Energy              =    -475.2219803915745615 [Eh]

	 ================> DF-SCS-MP2 Energies <==================
	-----------------------------------------------------------
	 SCS Same-Spin Scale       =       0.3333333333333333 [-]
	 SCS Opposite-Spin Scale   =       1.2000000000000000 [-]
	 SCS Same-Spin Energy      =      -0.1587856975512479 [Eh]
	 SCS Opposite-Spin Energy  =      -1.7589442401486237 [Eh]
	 SCS Correlation Energy    =      -1.9177299376998715 [Eh]
	 SCS Total Energy          =    -475.1975663698301560 [Eh]
	-----------------------------------------------------------

  Dipole Moment: [D]
     X:     9.7769      Y:     1.6342      Z:     0.1188     Total:     9.9132

*** Psi4 exiting successfully. Buy a developer a beer!
