                               Psi4 1.3.2 release

  ==> Input File <==

--------------------------------------------------------------------------
#psi4
#
memory 32 gb

molecule  {
-1 1
  O        1.5553730    -1.4489990    -0.0078940
  O       -2.4744110     1.3948030    -0.0154550
  O       -3.5371250    -0.6067510    -0.0268560
  N       -0.0146490     0.2143920     0.0158120
  C        2.3272120     0.8379530     0.0018960
  C        1.2455030    -0.2240550     0.0044360
  C       -1.1181727    -0.6853733     0.0175930
  C        3.7164760     0.2336920    -0.0114620
  C       -2.5073920     0.1288020     0.0323140
  H        2.1647820     1.4966320    -0.8622200
  H        2.1776990     1.4878210     0.8748480
  H       -1.1517560    -1.3070500    -0.8570610
  H       -1.1395970    -1.3178250     0.8849180
  H       -0.2486274     1.2052899     0.0238089
  H        3.8663740    -0.3931470     0.8680960
  H        3.8530680    -0.3842560    -0.8995260
  H        4.4669480     1.0276640    -0.0135300
units angstrom
no_reorient  #important for SAPT in psi4, default
symmetry c1  #important for SAPT in psi4, default
}

set PROPERTIES_ORIGIN ["COM"]
properties('MP2/aug-cc-pvtz', properties = ['dipole'])
--------------------------------------------------------------------------

    Molecular point group: c1
  Charge       = -1
  Multiplicity = 1
  Basis Set: AUG-CC-PVTZ
    Blend: AUG-CC-PVTZ
  Basis Set: (AUG-CC-PVTZ AUX)
    Blend: AUG-CC-PVTZ-JKFIT

    Orbital Energies [Eh]
    ---------------------

    Doubly Occupied:

       1A    -20.390838     2A    -20.322523     3A    -20.310816
       4A    -15.451364     5A    -11.225816     6A    -11.165910
       7A    -11.137327     8A    -11.123994     9A    -11.106039
      10A     -1.235065    11A     -1.184996    12A     -1.101866
      13A     -1.081744    14A     -0.952340    15A     -0.834320
      16A     -0.757612    17A     -0.658318    18A     -0.586964
      19A     -0.539682    20A     -0.535641    21A     -0.510064
      22A     -0.488550    23A     -0.474765    24A     -0.425442
      25A     -0.420996    26A     -0.417836    27A     -0.413285
      28A     -0.399994    29A     -0.379641    30A     -0.347413
      31A     -0.302564    32A     -0.260428    33A     -0.233681
      34A     -0.219313    35A     -0.212962

  @DF-RHF Final Energy:  -473.27952767382237

   => Energetics <=

    Nuclear Repulsion Energy =            433.0179843481454327
    One-Electron Energy =               -1518.1748087703399506
    Two-Electron Energy =                 611.8772967483720322
    Total Energy =                       -473.2795276738223720
  Basis Set: (AUG-CC-PVTZ AUX)
    Blend: AUG-CC-PVTZ-RI
    Molecular point group: c1

    Geometry (in Angstrom), charge = -1, multiplicity = 1:

       Center              X                  Y                   Z               Mass
    ------------   -----------------  -----------------  -----------------  -----------------
         O            1.658557658850    -1.431712726865    -0.007703313232    15.994914619570
         O           -2.371226341150     1.412089273135    -0.015264313232    15.994914619570
         O           -3.433940341150    -0.589464726865    -0.026665313232    15.994914619570
         N            0.088535658850     0.231678273135     0.016002686768    14.003074004430
         C            2.430396658850     0.855239273135     0.002086686768    12.000000000000
         C            1.348687658850    -0.206768726865     0.004626686768    12.000000000000
         C           -1.014988041150    -0.668087026865     0.017783686768    12.000000000000
         C            3.819660658850     0.250978273135    -0.011271313232    12.000000000000
         C           -2.404207341150     0.146088273135     0.032504686768    12.000000000000
         H            2.267966658850     1.513918273135    -0.862029313232     1.007825032230
         H            2.280883658850     1.505107273135     0.875038686768     1.007825032230
         H           -1.048571341150    -1.289763726865    -0.856870313232     1.007825032230
         H           -1.036412341150    -1.300538726865     0.885108686768     1.007825032230
         H           -0.145442741150     1.222576173135     0.023999586768     1.007825032230
         H            3.969558658850    -0.375860726865     0.868286686768     1.007825032230
         H            3.956252658850    -0.366969726865    -0.899335313232     1.007825032230
         H            4.570132658850     1.044950273135    -0.013339313232     1.007825032230

  Basis Set: AUG-CC-PVTZ
    Blend: AUG-CC-PVTZ
  Basis Set: (AUG-CC-PVTZ AUX)
    Blend: AUG-CC-PVTZ-JKFIT
	 Reference Energy          =    -473.2795276738223720 [Eh]
	 Singles Energy            =      -0.0000000000000000 [Eh]
	 Same-Spin Energy          =      -0.4760921537154520 [Eh]
	 Opposite-Spin Energy      =      -1.4653611745862638 [Eh]
	 Correlation Energy        =      -1.9414533283017157 [Eh]
	 Total Energy              =    -475.2209810021240628 [Eh]

	 ================> DF-SCS-MP2 Energies <==================
	-----------------------------------------------------------
	 SCS Same-Spin Scale       =       0.3333333333333333 [-]
	 SCS Opposite-Spin Scale   =       1.2000000000000000 [-]
	 SCS Same-Spin Energy      =      -0.1586973845718173 [Eh]
	 SCS Opposite-Spin Energy  =      -1.7584334095035166 [Eh]
	 SCS Correlation Energy    =      -1.9171307940753339 [Eh]
	 SCS Total Energy          =    -475.1966584678976915 [Eh]
	-----------------------------------------------------------

  Dipole Moment: [D]
     X:     9.9012      Y:     1.5648      Z:     0.1361     Total:    10.0250

*** Psi4 exiting successfully. Buy a developer a beer!
