                               Psi4 1.3.2 release

  ==> Input File <==

--------------------------------------------------------------------------
#psi4
#
memory 32 gb

molecule  {
-1 1
  O        1.5553730    -1.4489990    -0.0078940
  O       -2.4744110     1.3948030    -0.0154550
  O       -3.5371250    -0.6067510    -0.0268560
  N       -0.0146490     0.2143920     0.0158120
  C        2.3272120     0.8379530     0.0018960
  C        1.2455030    -0.2240550     0.0044360
  C       -1.1489000    -0.6463140     0.0180560
  C        3.7164760     0.2336920    -0.0114620
  C       -2.5073920     0.1288020     0.0323140
  H        2.1647820     1.4966320    -0.8622200
  H        2.1776990     1.4878210     0.8748480
  H       -1.1517560    -1.3070500    -0.8570610
  H       -1.1395970    -1.3178250     0.8849180
  H       -0.2830670     1.1965190     0.0239890
  H        3.8663740    -0.3931470     0.8680960
  H        3.8530680    -0.3842560    -0.8995260
  H        4.4669480     1.0276640    -0.0135300
units angstrom
no_reorient  #important for SAPT in psi4, default
symmetry c1  #important for SAPT in psi4, default
}

set PROPERTIES_ORIGIN ["COM"]
properties('MP2/aug-cc-pvtz', properties = ['dipole'])
--------------------------------------------------------------------------

    Molecular point group: c1
  Charge       = -1
  Multiplicity = 1
  Basis Set: AUG-CC-PVTZ
    Blend: AUG-CC-PVTZ
  Basis Set: (AUG-CC-PVTZ AUX)
    Blend: AUG-CC-PVTZ-JKFIT

    Orbital Energies [Eh]
    ---------------------

    Doubly Occupied:

       1A    -20.391427     2A    -20.322508     3A    -20.310824
       4A    -15.451232     5A    -11.227537     6A    -11.164744
       7A    -11.137550     8A    -11.124091     9A    -11.108895
      10A     -1.235224    11A     -1.186996    12A     -1.102386
      13A     -1.082400    14A     -0.952536    15A     -0.836331
      16A     -0.758548    17A     -0.660220    18A     -0.589937
      19A     -0.544781    20A     -0.535309    21A     -0.507171
      22A     -0.484157    23A     -0.474886    24A     -0.425721
      25A     -0.425281    26A     -0.417124    27A     -0.413809
      28A     -0.396786    29A     -0.380172    30A     -0.344039
      31A     -0.303305    32A     -0.257820    33A     -0.235273
      34A     -0.224823    35A     -0.213216

  @DF-RHF Final Energy:  -473.28175416094109

   => Energetics <=

    Nuclear Repulsion Energy =            433.3849394316244457
    One-Electron Energy =               -1518.8792709046344953
    Two-Electron Energy =                 612.2125773120690155
    Total Energy =                       -473.2817541609410910
  Basis Set: (AUG-CC-PVTZ AUX)
    Blend: AUG-CC-PVTZ-RI
    Molecular point group: c1

    Geometry (in Angstrom), charge = -1, multiplicity = 1:

       Center              X                  Y                   Z               Mass
    ------------   -----------------  -----------------  -----------------  -----------------
         O            1.661659814897    -1.435248832893    -0.007747430808    15.994914619570
         O           -2.368124185103     1.408553167107    -0.015308430808    15.994914619570
         O           -3.430838185103    -0.593000832893    -0.026709430808    15.994914619570
         N            0.091637814897     0.228142167107     0.015958569192    14.003074004430
         C            2.433498814897     0.851703167107     0.002042569192    12.000000000000
         C            1.351789814897    -0.210304832893     0.004582569192    12.000000000000
         C           -1.042613185103    -0.632563832893     0.018202569192    12.000000000000
         C            3.822762814897     0.247442167107    -0.011315430808    12.000000000000
         C           -2.401105185103     0.142552167107     0.032460569192    12.000000000000
         H            2.271068814897     1.510382167107    -0.862073430808     1.007825032230
         H            2.283985814897     1.501571167107     0.874994569192     1.007825032230
         H           -1.045469185103    -1.293299832893    -0.856914430808     1.007825032230
         H           -1.033310185103    -1.304074832893     0.885064569192     1.007825032230
         H           -0.176780185103     1.210269167107     0.024135569192     1.007825032230
         H            3.972660814897    -0.379396832893     0.868242569192     1.007825032230
         H            3.959354814897    -0.370505832893    -0.899379430808     1.007825032230
         H            4.573234814897     1.041414167107    -0.013383430808     1.007825032230

  Basis Set: AUG-CC-PVTZ
    Blend: AUG-CC-PVTZ
  Basis Set: (AUG-CC-PVTZ AUX)
    Blend: AUG-CC-PVTZ-JKFIT
	 Reference Energy          =    -473.2817541609410910 [Eh]
	 Singles Energy            =      -0.0000000000000000 [Eh]
	 Same-Spin Energy          =      -0.4761604492405717 [Eh]
	 Opposite-Spin Energy      =      -1.4653906730955271 [Eh]
	 Correlation Energy        =      -1.9415511223360986 [Eh]
	 Total Energy              =    -475.2233052832771705 [Eh]

	 ================> DF-SCS-MP2 Energies <==================
	-----------------------------------------------------------
	 SCS Same-Spin Scale       =       0.3333333333333333 [-]
	 SCS Opposite-Spin Scale   =       1.2000000000000000 [-]
	 SCS Same-Spin Energy      =      -0.1587201497468572 [Eh]
	 SCS Opposite-Spin Energy  =      -1.7584688077146324 [Eh]
	 SCS Correlation Energy    =      -1.9171889574614895 [Eh]
	 SCS Total Energy          =    -475.1989431184025534 [Eh]
	-----------------------------------------------------------

  Dipole Moment: [D]
     X:     9.8953      Y:     1.5635      Z:     0.1367     Total:    10.0190

*** Psi4 exiting successfully. Buy a developer a beer!
