                               Psi4 1.3.2 release

  ==> Input File <==

--------------------------------------------------------------------------
#psi4
#
memory 32 gb

molecule  {
-1 1
  O        1.5553730    -1.4489990    -0.0078940
  O       -2.4744110     1.3948030    -0.0154550
  O       -3.5371250    -0.6067510    -0.0268560
  N        0.0006154     0.1929513     0.0579701
  C        2.3272120     0.8379530     0.0018960
  C        1.2455030    -0.2240550     0.0044360
  C       -1.1489000    -0.6463140     0.0180560
  C        3.7164760     0.2336920    -0.0114620
  C       -2.5073920     0.1288020     0.0323140
  H        2.1647820     1.4966320    -0.8622200
  H        2.1776990     1.4878210     0.8748480
  H       -1.1517560    -1.3070500    -0.8570610
  H       -1.1067350    -1.3017494     0.8961732
  H       -0.2830670     1.1965190     0.0239890
  H        3.8663740    -0.3931470     0.8680960
  H        3.8530680    -0.3842560    -0.8995260
  H        4.4669480     1.0276640    -0.0135300
units angstrom
no_reorient  #important for SAPT in psi4, default
symmetry c1  #important for SAPT in psi4, default
}

set PROPERTIES_ORIGIN ["COM"]
properties('MP2/aug-cc-pvtz', properties = ['dipole'])
--------------------------------------------------------------------------

    Molecular point group: c1
  Charge       = -1
  Multiplicity = 1
  Basis Set: AUG-CC-PVTZ
    Blend: AUG-CC-PVTZ
  Basis Set: (AUG-CC-PVTZ AUX)
    Blend: AUG-CC-PVTZ-JKFIT

    Orbital Energies [Eh]
    ---------------------

    Doubly Occupied:

       1A    -20.386711     2A    -20.324300     3A    -20.312534
       4A    -15.452801     5A    -11.223312     6A    -11.166844
       7A    -11.136841     8A    -11.123338     9A    -11.110296
      10A     -1.235276    11A     -1.188374    12A     -1.103569
      13A     -1.084139    14A     -0.951837    15A     -0.839399
      16A     -0.758225    17A     -0.656047    18A     -0.590278
      19A     -0.547131    20A     -0.535581    21A     -0.505783
      22A     -0.486815    23A     -0.472510    24A     -0.427048
      25A     -0.424537    26A     -0.417092    27A     -0.412968
      28A     -0.393227    29A     -0.380647    30A     -0.345045
      31A     -0.300902    32A     -0.257566    33A     -0.236814
      34A     -0.226916    35A     -0.214791

  @DF-RHF Final Energy:  -473.27964916421860

   => Energetics <=

    Nuclear Repulsion Energy =            433.6409905372029243
    One-Electron Energy =               -1519.3822947814135205
    Two-Electron Energy =                 612.4616550799920560
    Total Energy =                       -473.2796491642185401
  Basis Set: (AUG-CC-PVTZ AUX)
    Blend: AUG-CC-PVTZ-RI
    Molecular point group: c1

    Geometry (in Angstrom), charge = -1, multiplicity = 1:

       Center              X                  Y                   Z               Mass
    ------------   -----------------  -----------------  -----------------  -----------------
         O            1.659761569028    -1.433064800570    -0.012373992377    15.994914619570
         O           -2.370022430972     1.410737199430    -0.019934992377    15.994914619570
         O           -3.432736430972    -0.590816800570    -0.031335992377    15.994914619570
         N            0.105003969028     0.208885499430     0.053490107623    14.003074004430
         C            2.431600569028     0.853887199430    -0.002583992377    12.000000000000
         C            1.349891569028    -0.208120800570    -0.000043992377    12.000000000000
         C           -1.044511430972    -0.630379800570     0.013576007623    12.000000000000
         C            3.820864569028     0.249626199430    -0.015941992377    12.000000000000
         C           -2.403003430972     0.144736199430     0.027834007623    12.000000000000
         H            2.269170569028     1.512566199430    -0.866699992377     1.007825032230
         H            2.282087569028     1.503755199430     0.870368007623     1.007825032230
         H           -1.047367430972    -1.291115800570    -0.861540992377     1.007825032230
         H           -1.002346430972    -1.285815200570     0.891693207623     1.007825032230
         H           -0.178678430972     1.212453199430     0.019509007623     1.007825032230
         H            3.970762569028    -0.377212800570     0.863616007623     1.007825032230
         H            3.957456569028    -0.368321800570    -0.904005992377     1.007825032230
         H            4.571336569028     1.043598199430    -0.018009992377     1.007825032230

  Basis Set: AUG-CC-PVTZ
    Blend: AUG-CC-PVTZ
  Basis Set: (AUG-CC-PVTZ AUX)
    Blend: AUG-CC-PVTZ-JKFIT
	 Reference Energy          =    -473.2796491642185970 [Eh]
	 Singles Energy            =      -0.0000000000000000 [Eh]
	 Same-Spin Energy          =      -0.4763429408851650 [Eh]
	 Opposite-Spin Energy      =      -1.4656477852438359 [Eh]
	 Correlation Energy        =      -1.9419907261290008 [Eh]
	 Total Energy              =    -475.2216398903476033 [Eh]

	 ================> DF-SCS-MP2 Energies <==================
	-----------------------------------------------------------
	 SCS Same-Spin Scale       =       0.3333333333333333 [-]
	 SCS Opposite-Spin Scale   =       1.2000000000000000 [-]
	 SCS Same-Spin Energy      =      -0.1587809802950550 [Eh]
	 SCS Opposite-Spin Energy  =      -1.7587773422926030 [Eh]
	 SCS Correlation Energy    =      -1.9175583225876580 [Eh]
	 SCS Total Energy          =    -475.1972074868062350 [Eh]
	-----------------------------------------------------------

  Dipole Moment: [D]
     X:     9.7443      Y:     1.6207      Z:     0.0998     Total:     9.8787

*** Psi4 exiting successfully. Buy a developer a beer!
