                               Psi4 1.3.2 release

  ==> Input File <==

--------------------------------------------------------------------------
#psi4
#
memory 32 gb

molecule  {
-1 1
  O        1.5553730    -1.4489990    -0.0078940
  O       -2.4744110     1.3948030    -0.0154550
  O       -3.5371250    -0.6067510    -0.0268560
  N       -0.0146490     0.2143920     0.0158120
  C        2.3272120     0.8379530     0.0018960
  C        1.2416284    -0.2350353     0.0043912
  C       -1.1489000    -0.6463140     0.0180560
  C        3.7164760     0.2336920    -0.0114620
  C       -2.5073920     0.1288020     0.0323140
  H        2.1647820     1.4966320    -0.8622200
  H        2.1776990     1.4878210     0.8748480
  H       -1.1517560    -1.3070500    -0.8570610
  H       -1.1395970    -1.3178250     0.8849180
  H       -0.2916274     1.1941389     0.0240316
  H        3.8663740    -0.3931470     0.8680960
  H        3.8530680    -0.3842560    -0.8995260
  H        4.4669480     1.0276640    -0.0135300
units angstrom
no_reorient  #important for SAPT in psi4, default
symmetry c1  #important for SAPT in psi4, default
}

set PROPERTIES_ORIGIN ["COM"]
properties('MP2/aug-cc-pvtz', properties = ['dipole'])
--------------------------------------------------------------------------

    Molecular point group: c1
  Charge       = -1
  Multiplicity = 1
  Basis Set: AUG-CC-PVTZ
    Blend: AUG-CC-PVTZ
  Basis Set: (AUG-CC-PVTZ AUX)
    Blend: AUG-CC-PVTZ-JKFIT

    Orbital Energies [Eh]
    ---------------------

    Doubly Occupied:

       1A    -20.392936     2A    -20.322702     3A    -20.310814
       4A    -15.450228     5A    -11.227241     6A    -11.164722
       7A    -11.136744     8A    -11.123543     9A    -11.108450
      10A     -1.240464    11A     -1.187215    12A     -1.103329
      13A     -1.082537    14A     -0.950617    15A     -0.835184
      16A     -0.756842    17A     -0.661204    18A     -0.589406
      19A     -0.544205    20A     -0.534377    21A     -0.507941
      22A     -0.484292    23A     -0.476420    24A     -0.425573
      25A     -0.424335    26A     -0.417009    27A     -0.414351
      28A     -0.396730    29A     -0.381523    30A     -0.345000
      31A     -0.303317    32A     -0.258298    33A     -0.235458
      34A     -0.224730    35A     -0.213301

  @DF-RHF Final Energy:  -473.28270052033156

   => Energetics <=

    Nuclear Repulsion Energy =            433.4543882460371833
    One-Electron Energy =               -1519.0121008906260158
    Two-Electron Energy =                 612.2750121242571595
    Total Energy =                       -473.2827005203315593
  Basis Set: (AUG-CC-PVTZ AUX)
    Blend: AUG-CC-PVTZ-RI
    Molecular point group: c1

    Geometry (in Angstrom), charge = -1, multiplicity = 1:

       Center              X                  Y                   Z               Mass
    ------------   -----------------  -----------------  -----------------  -----------------
         O            1.662083670401    -1.434217215107    -0.007743627156    15.994914619570
         O           -2.367700329599     1.409584784893    -0.015304627156    15.994914619570
         O           -3.430414329599    -0.591969215107    -0.026705627156    15.994914619570
         N            0.092061670401     0.229173784893     0.015962372844    14.003074004430
         C            2.433922670401     0.852734784893     0.002046372844    12.000000000000
         C            1.348339070401    -0.220253515107     0.004541572844    12.000000000000
         C           -1.042189329599    -0.631532215107     0.018206372844    12.000000000000
         C            3.823186670401     0.248473784893    -0.011311627156    12.000000000000
         C           -2.400681329599     0.143583784893     0.032464372844    12.000000000000
         H            2.271492670401     1.511413784893    -0.862069627156     1.007825032230
         H            2.284409670401     1.502602784893     0.874998372844     1.007825032230
         H           -1.045045329599    -1.292268215107    -0.856910627156     1.007825032230
         H           -1.032886329599    -1.303043215107     0.885068372844     1.007825032230
         H           -0.184916729599     1.208920684893     0.024181972844     1.007825032230
         H            3.973084670401    -0.378365215107     0.868246372844     1.007825032230
         H            3.959778670401    -0.369474215107    -0.899375627156     1.007825032230
         H            4.573658670401     1.042445784893    -0.013379627156     1.007825032230

  Basis Set: AUG-CC-PVTZ
    Blend: AUG-CC-PVTZ
  Basis Set: (AUG-CC-PVTZ AUX)
    Blend: AUG-CC-PVTZ-JKFIT
	 Reference Energy          =    -473.2827005203315593 [Eh]
	 Singles Energy            =      -0.0000000000000000 [Eh]
	 Same-Spin Energy          =      -0.4759686031198729 [Eh]
	 Opposite-Spin Energy      =      -1.4649905859593408 [Eh]
	 Correlation Energy        =      -1.9409591890792137 [Eh]
	 Total Energy              =    -475.2236597094107537 [Eh]

	 ================> DF-SCS-MP2 Energies <==================
	-----------------------------------------------------------
	 SCS Same-Spin Scale       =       0.3333333333333333 [-]
	 SCS Opposite-Spin Scale   =       1.2000000000000000 [-]
	 SCS Same-Spin Energy      =      -0.1586562010399576 [Eh]
	 SCS Opposite-Spin Energy  =      -1.7579887031512089 [Eh]
	 SCS Correlation Energy    =      -1.9166449041911666 [Eh]
	 SCS Total Energy          =    -475.1993454245227326 [Eh]
	-----------------------------------------------------------

  Dipole Moment: [D]
     X:     9.8769      Y:     1.5016      Z:     0.1363     Total:     9.9913

*** Psi4 exiting successfully. Buy a developer a beer!
