                               Psi4 1.3.2 release

  ==> Input File <==

--------------------------------------------------------------------------
#psi4
#
memory 32 gb

molecule  {
-1 1
  O        1.5553730    -1.4489990    -0.0078940
  O       -2.4744110     1.3948030    -0.0154550
  O       -3.5371250    -0.6067510    -0.0268560
  N       -0.0146490     0.2143920     0.0158120
  C        2.3272120     0.8379530     0.0018960
  C        1.2507479    -0.2292886     0.0153949
  C       -1.1489000    -0.6463140     0.0180560
  C        3.7164760     0.2336920    -0.0114620
  C       -2.5073920     0.1288020     0.0323140
  H        2.1724702     1.5017723    -0.8596938
  H        2.1776990     1.4878210     0.8748480
  H       -1.1517560    -1.3070500    -0.8570610
  H       -1.1395970    -1.3178250     0.8849180
  H       -0.2830670     1.1965190     0.0239890
  H        3.8663740    -0.3931470     0.8680960
  H        3.8530680    -0.3842560    -0.8995260
  H        4.4669480     1.0276640    -0.0135300
units angstrom
no_reorient  #important for SAPT in psi4, default
symmetry c1  #important for SAPT in psi4, default
}

set PROPERTIES_ORIGIN ["COM"]
properties('MP2/aug-cc-pvtz', properties = ['dipole'])
--------------------------------------------------------------------------

    Molecular point group: c1
  Charge       = -1
  Multiplicity = 1
  Basis Set: AUG-CC-PVTZ
    Blend: AUG-CC-PVTZ
  Basis Set: (AUG-CC-PVTZ AUX)
    Blend: AUG-CC-PVTZ-JKFIT

    Orbital Energies [Eh]
    ---------------------

    Doubly Occupied:

       1A    -20.393225     2A    -20.322002     3A    -20.310363
       4A    -15.449840     5A    -11.228044     6A    -11.164226
       7A    -11.137511     8A    -11.124193     9A    -11.108161
      10A     -1.238654    11A     -1.186580    12A     -1.100912
      13A     -1.081800    14A     -0.952837    15A     -0.835014
      16A     -0.757965    17A     -0.658975    18A     -0.590341
      19A     -0.544580    20A     -0.535140    21A     -0.507464
      22A     -0.483453    23A     -0.475948    24A     -0.425325
      25A     -0.424789    26A     -0.417213    27A     -0.414771
      28A     -0.396729    29A     -0.380753    30A     -0.344352
      31A     -0.304639    32A     -0.257180    33A     -0.234786
      34A     -0.224294    35A     -0.212719

  @DF-RHF Final Energy:  -473.28219279084465

   => Energetics <=

    Nuclear Repulsion Energy =            433.3584653037530643
    One-Electron Energy =               -1518.8317597777881929
    Two-Electron Energy =                 612.1911016831904817
    Total Energy =                       -473.2821927908446469
  Basis Set: (AUG-CC-PVTZ AUX)
    Blend: AUG-CC-PVTZ-RI
    Molecular point group: c1

    Geometry (in Angstrom), charge = -1, multiplicity = 1:

       Center              X                  Y                   Z               Mass
    ------------   -----------------  -----------------  -----------------  -----------------
         O            1.661116278310    -1.434805753372    -0.008778206176    15.994914619570
         O           -2.368667721690     1.408996246628    -0.016339206176    15.994914619570
         O           -3.431381721690    -0.592557753372    -0.027740206176    15.994914619570
         N            0.091094278310     0.228585246628     0.014927793824    14.003074004430
         C            2.432955278310     0.852146246628     0.001011793824    12.000000000000
         C            1.356491178310    -0.215095353372     0.014510693824    12.000000000000
         C           -1.043156721690    -0.632120753372     0.017171793824    12.000000000000
         C            3.822219278310     0.247885246628    -0.012346206176    12.000000000000
         C           -2.401648721690     0.142995246628     0.031429793824    12.000000000000
         H            2.278213478310     1.515965546628    -0.860578006176     1.007825032230
         H            2.283442278310     1.502014246628     0.873963793824     1.007825032230
         H           -1.046012721690    -1.292856753372    -0.857945206176     1.007825032230
         H           -1.033853721690    -1.303631753372     0.884033793824     1.007825032230
         H           -0.177323721690     1.210712246628     0.023104793824     1.007825032230
         H            3.972117278310    -0.378953753372     0.867211793824     1.007825032230
         H            3.958811278310    -0.370062753372    -0.900410206176     1.007825032230
         H            4.572691278310     1.041857246628    -0.014414206176     1.007825032230

  Basis Set: AUG-CC-PVTZ
    Blend: AUG-CC-PVTZ
  Basis Set: (AUG-CC-PVTZ AUX)
    Blend: AUG-CC-PVTZ-JKFIT
	 Reference Energy          =    -473.2821927908446469 [Eh]
	 Singles Energy            =      -0.0000000000000000 [Eh]
	 Same-Spin Energy          =      -0.4760792217986937 [Eh]
	 Opposite-Spin Energy      =      -1.4652343868286231 [Eh]
	 Correlation Energy        =      -1.9413136086273166 [Eh]
	 Total Energy              =    -475.2235063994719440 [Eh]

	 ================> DF-SCS-MP2 Energies <==================
	-----------------------------------------------------------
	 SCS Same-Spin Scale       =       0.3333333333333333 [-]
	 SCS Opposite-Spin Scale   =       1.2000000000000000 [-]
	 SCS Same-Spin Energy      =      -0.1586930739328979 [Eh]
	 SCS Opposite-Spin Energy  =      -1.7582812641943477 [Eh]
	 SCS Correlation Energy    =      -1.9169743381272455 [Eh]
	 SCS Total Energy          =    -475.1991671289719079 [Eh]
	-----------------------------------------------------------

  Dipole Moment: [D]
     X:     9.9553      Y:     1.5280      Z:     0.1463     Total:    10.0730

*** Psi4 exiting successfully. Buy a developer a beer!
