                               Psi4 1.3.2 release

  ==> Input File <==

--------------------------------------------------------------------------
#psi4
#
memory 32 gb

molecule  {
-1 1
  O        1.5553730    -1.4489990    -0.0078940
  O       -2.4744110     1.3948030    -0.0154550
  O       -3.5371250    -0.6067510    -0.0268560
  N       -0.0146490     0.2143920     0.0158120
  C        2.3272120     0.8379530     0.0018960
  C        1.2455030    -0.2240550     0.0044360
  C       -1.1489000    -0.6463140     0.0180560
  C        3.7137305     0.2272762    -0.0002325
  C       -2.5073920     0.1288020     0.0323140
  H        2.1558951     1.4984455    -0.8591139
  H        2.1776990     1.4878210     0.8748480
  H       -1.1517560    -1.3070500    -0.8570610
  H       -1.1395970    -1.3178250     0.8849180
  H       -0.2830670     1.1965190     0.0239890
  H        3.8663740    -0.3931470     0.8680960
  H        3.8530680    -0.3842560    -0.8995260
  H        4.4669480     1.0276640    -0.0135300
units angstrom
no_reorient  #important for SAPT in psi4, default
symmetry c1  #important for SAPT in psi4, default
}

set PROPERTIES_ORIGIN ["COM"]
properties('MP2/aug-cc-pvtz', properties = ['dipole'])
--------------------------------------------------------------------------

    Molecular point group: c1
  Charge       = -1
  Multiplicity = 1
  Basis Set: AUG-CC-PVTZ
    Blend: AUG-CC-PVTZ
  Basis Set: (AUG-CC-PVTZ AUX)
    Blend: AUG-CC-PVTZ-JKFIT

    Orbital Energies [Eh]
    ---------------------

    Doubly Occupied:

       1A    -20.391367     2A    -20.322497     3A    -20.310807
       4A    -15.451139     5A    -11.227348     6A    -11.164723
       7A    -11.137584     8A    -11.124293     9A    -11.108852
      10A     -1.235201    11A     -1.186981    12A     -1.102343
      13A     -1.082383    14A     -0.952534    15A     -0.836310
      16A     -0.758707    17A     -0.660189    18A     -0.589821
      19A     -0.544602    20A     -0.535574    21A     -0.507189
      22A     -0.484401    23A     -0.474088    24A     -0.426750
      25A     -0.424481    26A     -0.418539    27A     -0.412948
      28A     -0.396438    29A     -0.380207    30A     -0.344008
      31A     -0.303223    32A     -0.257797    33A     -0.235259
      34A     -0.224796    35A     -0.213203

  @DF-RHF Final Energy:  -473.28145172559300

   => Energetics <=

    Nuclear Repulsion Energy =            433.4360183783272760
    One-Electron Energy =               -1518.9817735762139819
    Two-Electron Energy =                 612.2643034722935909
    Total Energy =                       -473.2814517255930014
  Basis Set: (AUG-CC-PVTZ AUX)
    Blend: AUG-CC-PVTZ-RI
    Molecular point group: c1

    Geometry (in Angstrom), charge = -1, multiplicity = 1:

       Center              X                  Y                   Z               Mass
    ------------   -----------------  -----------------  -----------------  -----------------
         O            1.661982016401    -1.434670888505    -0.008807668886    15.994914619570
         O           -2.367801983599     1.409131111495    -0.016368668886    15.994914619570
         O           -3.430515983599    -0.592422888505    -0.027769668886    15.994914619570
         N            0.091960016401     0.228720111495     0.014898331114    14.003074004430
         C            2.433821016401     0.852281111495     0.000982331114    12.000000000000
         C            1.352112016401    -0.209726888505     0.003522331114    12.000000000000
         C           -1.042290983599    -0.631985888505     0.017142331114    12.000000000000
         C            3.820339516401     0.241604311495    -0.001146168886    12.000000000000
         C           -2.400782983599     0.143130111495     0.031400331114    12.000000000000
         H            2.262504116401     1.512773611495    -0.860027568886     1.007825032230
         H            2.284308016401     1.502149111495     0.873934331114     1.007825032230
         H           -1.045146983599    -1.292721888505    -0.857974668886     1.007825032230
         H           -1.032987983599    -1.303496888505     0.884004331114     1.007825032230
         H           -0.176457983599     1.210847111495     0.023075331114     1.007825032230
         H            3.972983016401    -0.378818888505     0.867182331114     1.007825032230
         H            3.959677016401    -0.369927888505    -0.900439668886     1.007825032230
         H            4.573557016401     1.041992111495    -0.014443668886     1.007825032230

  Basis Set: AUG-CC-PVTZ
    Blend: AUG-CC-PVTZ
  Basis Set: (AUG-CC-PVTZ AUX)
    Blend: AUG-CC-PVTZ-JKFIT
	 Reference Energy          =    -473.2814517255930014 [Eh]
	 Singles Energy            =      -0.0000000000000000 [Eh]
	 Same-Spin Energy          =      -0.4761682163550536 [Eh]
	 Opposite-Spin Energy      =      -1.4653942118083836 [Eh]
	 Correlation Energy        =      -1.9415624281634372 [Eh]
	 Total Energy              =    -475.2230141537564236 [Eh]

	 ================> DF-SCS-MP2 Energies <==================
	-----------------------------------------------------------
	 SCS Same-Spin Scale       =       0.3333333333333333 [-]
	 SCS Opposite-Spin Scale   =       1.2000000000000000 [-]
	 SCS Same-Spin Energy      =      -0.1587227387850179 [Eh]
	 SCS Opposite-Spin Energy  =      -1.7584730541700602 [Eh]
	 SCS Correlation Energy    =      -1.9171957929550780 [Eh]
	 SCS Total Energy          =    -475.1986475185480572 [Eh]
	-----------------------------------------------------------

  Dipole Moment: [D]
     X:     9.8931      Y:     1.5575      Z:     0.1465     Total:    10.0160

*** Psi4 exiting successfully. Buy a developer a beer!
