                               Psi4 1.3.2 release

  ==> Input File <==

--------------------------------------------------------------------------
#psi4
#
memory 32 gb

molecule  {
-1 1
  O        1.5553730    -1.4489990    -0.0078940
  O       -2.4744110     1.3948030    -0.0154550
  O       -3.5371250    -0.6067510    -0.0268560
  N       -0.0146490     0.2143920     0.0158120
  C        2.3272120     0.8379530     0.0018960
  C        1.2455030    -0.2240550     0.0044360
  C       -1.1489000    -0.6463140     0.0180560
  C        3.7164760     0.2336920    -0.0114620
  C       -2.5942448     0.1783577     0.0332256
  H        2.1647820     1.4966320    -0.8622200
  H        2.1776990     1.4878210     0.8748480
  H       -1.1517560    -1.3070500    -0.8570610
  H       -1.1395970    -1.3178250     0.8849180
  H       -0.2830670     1.1965190     0.0239890
  H        3.8663740    -0.3931470     0.8680960
  H        3.8530680    -0.3842560    -0.8995260
  H        4.4669480     1.0276640    -0.0135300
units angstrom
no_reorient  #important for SAPT in psi4, default
symmetry c1  #important for SAPT in psi4, default
}

set PROPERTIES_ORIGIN ["COM"]
properties('MP2/aug-cc-pvtz', properties = ['dipole'])
--------------------------------------------------------------------------

    Molecular point group: c1
  Charge       = -1
  Multiplicity = 1
  Basis Set: AUG-CC-PVTZ
    Blend: AUG-CC-PVTZ
  Basis Set: (AUG-CC-PVTZ AUX)
    Blend: AUG-CC-PVTZ-JKFIT

    Orbital Energies [Eh]
    ---------------------

    Doubly Occupied:

       1A    -20.385600     2A    -20.329027     3A    -20.316892
       4A    -15.444490     5A    -11.221484     6A    -11.165230
       7A    -11.133753     8A    -11.121133     9A    -11.093657
      10A     -1.229384    11A     -1.212596    12A     -1.119800
      13A     -1.092572    14A     -0.948336    15A     -0.820796
      16A     -0.746098    17A     -0.652692    18A     -0.579376
      19A     -0.537639    20A     -0.530932    21A     -0.503723
      22A     -0.474646    23A     -0.473337    24A     -0.435582
      25A     -0.426373    26A     -0.415324    27A     -0.414406
      28A     -0.398876    29A     -0.385615    30A     -0.352293
      31A     -0.298256    32A     -0.251960    33A     -0.250275
      34A     -0.227321    35A     -0.205882

  @DF-RHF Final Energy:  -473.28023114562257

   => Energetics <=

    Nuclear Repulsion Energy =            433.1723179336150338
    One-Electron Energy =               -1518.5143798456017521
    Two-Electron Energy =                 612.0618307663642099
    Total Energy =                       -473.2802311456225652
  Basis Set: (AUG-CC-PVTZ AUX)
    Blend: AUG-CC-PVTZ-RI
    Molecular point group: c1

    Geometry (in Angstrom), charge = -1, multiplicity = 1:

       Center              X                  Y                   Z               Mass
    ------------   -----------------  -----------------  -----------------  -----------------
         O            1.669673888324    -1.439821431802    -0.007831545878    15.994914619570
         O           -2.360110111676     1.403980568198    -0.015392545878    15.994914619570
         O           -3.422824111676    -0.597573431802    -0.026793545878    15.994914619570
         N            0.099651888324     0.223569568198     0.015874454122    14.003074004430
         C            2.441512888324     0.847130568198     0.001958454122    12.000000000000
         C            1.359803888324    -0.214877431802     0.004498454122    12.000000000000
         C           -1.034599111676    -0.637136431802     0.018118454122    12.000000000000
         C            3.830776888324     0.242869568198    -0.011399545878    12.000000000000
         C           -2.479943911676     0.187535268198     0.033288054122    12.000000000000
         H            2.279082888324     1.505809568198    -0.862157545878     1.007825032230
         H            2.291999888324     1.496998568198     0.874910454122     1.007825032230
         H           -1.037455111676    -1.297872431802    -0.856998545878     1.007825032230
         H           -1.025296111676    -1.308647431802     0.884980454122     1.007825032230
         H           -0.168766111676     1.205696568198     0.024051454122     1.007825032230
         H            3.980674888324    -0.383969431802     0.868158454122     1.007825032230
         H            3.967368888324    -0.375078431802    -0.899463545878     1.007825032230
         H            4.581248888324     1.036841568198    -0.013467545878     1.007825032230

  Basis Set: AUG-CC-PVTZ
    Blend: AUG-CC-PVTZ
  Basis Set: (AUG-CC-PVTZ AUX)
    Blend: AUG-CC-PVTZ-JKFIT
	 Reference Energy          =    -473.2802311456225652 [Eh]
	 Singles Energy            =      -0.0000000000000000 [Eh]
	 Same-Spin Energy          =      -0.4751711412723247 [Eh]
	 Opposite-Spin Energy      =      -1.4627940524818781 [Eh]
	 Correlation Energy        =      -1.9379651937542028 [Eh]
	 Total Energy              =    -475.2181963393767887 [Eh]

	 ================> DF-SCS-MP2 Energies <==================
	-----------------------------------------------------------
	 SCS Same-Spin Scale       =       0.3333333333333333 [-]
	 SCS Opposite-Spin Scale   =       1.2000000000000000 [-]
	 SCS Same-Spin Energy      =      -0.1583903804241082 [Eh]
	 SCS Opposite-Spin Energy  =      -1.7553528629782538 [Eh]
	 SCS Correlation Energy    =      -1.9137432434023620 [Eh]
	 SCS Total Energy          =    -475.1939743890249019 [Eh]
	-----------------------------------------------------------

  Dipole Moment: [D]
     X:     9.1537      Y:     1.9049      Z:     0.1355     Total:     9.3508

*** Psi4 exiting successfully. Buy a developer a beer!
