                               Psi4 1.3.2 release

  ==> Input File <==

--------------------------------------------------------------------------
#psi4
#
memory 32 gb

molecule  {
-1 1
  O        1.5553730    -1.4489990    -0.0078940
  O       -2.4744110     1.3948030    -0.0154550
  O       -3.5371250    -0.6067510    -0.0268560
  N       -0.0146490     0.2143920     0.0158120
  C        2.3272120     0.8379530     0.0018960
  C        1.1027882    -0.3641706     0.0047711
  C       -1.1489000    -0.6463140     0.0180560
  C        3.7164760     0.2336920    -0.0114620
  C       -2.5073920     0.1288020     0.0323140
  H        2.1647820     1.4966320    -0.8622200
  H        2.1776990     1.4878210     0.8748480
  H       -1.1517560    -1.3070500    -0.8570610
  H       -1.1395970    -1.3178250     0.8849180
  H       -0.2830670     1.1965190     0.0239890
  H        3.8663740    -0.3931470     0.8680960
  H        3.8530680    -0.3842560    -0.8995260
  H        4.4669480     1.0276640    -0.0135300
units angstrom
no_reorient  #important for SAPT in psi4, default
symmetry c1  #important for SAPT in psi4, default
}

set PROPERTIES_ORIGIN ["COM"]
properties('MP2/aug-cc-pvtz', properties = ['dipole'])
--------------------------------------------------------------------------

    Molecular point group: c1
  Charge       = -1
  Multiplicity = 1
  Basis Set: AUG-CC-PVTZ
    Blend: AUG-CC-PVTZ
  Basis Set: (AUG-CC-PVTZ AUX)
    Blend: AUG-CC-PVTZ-JKFIT

    Orbital Energies [Eh]
    ---------------------

    Doubly Occupied:

       1A    -20.402635     2A    -20.328984     3A    -20.315548
       4A    -15.458110     5A    -11.223917     6A    -11.169985
       7A    -11.115870     8A    -11.114498     9A    -11.111361
      10A     -1.291343    11A     -1.194310    12A     -1.145650
      13A     -1.088988    14A     -0.918969    15A     -0.838179
      16A     -0.731065    17A     -0.692375    18A     -0.585620
      19A     -0.547813    20A     -0.530470    21A     -0.519514
      22A     -0.490233    23A     -0.484842    24A     -0.435305
      25A     -0.426887    26A     -0.416126    27A     -0.410028
      28A     -0.399280    29A     -0.380723    30A     -0.355633
      31A     -0.278128    32A     -0.265250    33A     -0.241601
      34A     -0.227071    35A     -0.218942

  @DF-RHF Final Energy:  -473.24939900966717

   => Energetics <=

    Nuclear Repulsion Energy =            434.7519254451377151
    One-Electron Energy =               -1521.2921417080617630
    Two-Electron Energy =                 613.2908172532569324
    Total Energy =                       -473.2493990096671723
  Basis Set: (AUG-CC-PVTZ AUX)
    Blend: AUG-CC-PVTZ-RI
    Molecular point group: c1

    Geometry (in Angstrom), charge = -1, multiplicity = 1:

       Center              X                  Y                   Z               Mass
    ------------   -----------------  -----------------  -----------------  -----------------
         O            1.674828381556    -1.422320099373    -0.007778351124    15.994914619570
         O           -2.354955618444     1.421481900627    -0.015339351124    15.994914619570
         O           -3.417669618444    -0.580072099373    -0.026740351124    15.994914619570
         N            0.104806381556     0.241070900627     0.015927648876    14.003074004430
         C            2.446667381556     0.864631900627     0.002011648876    12.000000000000
         C            1.222243581556    -0.337491699373     0.004886748876    12.000000000000
         C           -1.029444618444    -0.619635099373     0.018171648876    12.000000000000
         C            3.835931381556     0.260370900627    -0.011346351124    12.000000000000
         C           -2.387936618444     0.155480900627     0.032429648876    12.000000000000
         H            2.284237381556     1.523310900627    -0.862104351124     1.007825032230
         H            2.297154381556     1.514499900627     0.874963648876     1.007825032230
         H           -1.032300618444    -1.280371099373    -0.856945351124     1.007825032230
         H           -1.020141618444    -1.291146099373     0.885033648876     1.007825032230
         H           -0.163611618444     1.223197900627     0.024104648876     1.007825032230
         H            3.985829381556    -0.366468099373     0.868211648876     1.007825032230
         H            3.972523381556    -0.357577099373    -0.899410351124     1.007825032230
         H            4.586403381556     1.054342900627    -0.013414351124     1.007825032230

  Basis Set: AUG-CC-PVTZ
    Blend: AUG-CC-PVTZ
  Basis Set: (AUG-CC-PVTZ AUX)
    Blend: AUG-CC-PVTZ-JKFIT
	 Reference Energy          =    -473.2493990096671723 [Eh]
	 Singles Energy            =      -0.0000000000000000 [Eh]
	 Same-Spin Energy          =      -0.4755003653132047 [Eh]
	 Opposite-Spin Energy      =      -1.4637251529425661 [Eh]
	 Correlation Energy        =      -1.9392255182557707 [Eh]
	 Total Energy              =    -475.1886245279229684 [Eh]

	 ================> DF-SCS-MP2 Energies <==================
	-----------------------------------------------------------
	 SCS Same-Spin Scale       =       0.3333333333333333 [-]
	 SCS Opposite-Spin Scale   =       1.2000000000000000 [-]
	 SCS Same-Spin Energy      =      -0.1585001217710682 [Eh]
	 SCS Opposite-Spin Energy  =      -1.7564701835310792 [Eh]
	 SCS Correlation Energy    =      -1.9149703053021474 [Eh]
	 SCS Total Energy          =    -475.1643693149692922 [Eh]
	-----------------------------------------------------------

  Dipole Moment: [D]
     X:     8.8220      Y:     0.7287      Z:     0.1390     Total:     8.8531

*** Psi4 exiting successfully. Buy a developer a beer!
