                               Psi4 1.4a3.dev225

  ==> Input File <==

--------------------------------------------------------------------------
#psi4
#
memory 32 gb

molecule  {
-1 1
  O       -1.5186010     1.5599430    -0.1433510
  O        2.2638970    -1.4295650    -0.0456660
  O        3.5317420     0.4486470     0.1950180
  N        0.0040180    -0.1295860    -0.1151350
  C       -2.3384940    -0.6954940    -0.4149760
  C       -1.2508570     0.3439190    -0.2101810
  C        1.1754880     0.7048690     0.0403840
  C       -3.5055210    -0.4701880     0.5431350
  C        2.4436837    -0.1990337     0.0637885
  H       -2.6873130    -0.6028840    -1.4504550
  H       -1.9319890    -1.7056860    -0.3020050
  H        1.2516430     1.4279040    -0.7806770
  H        1.1211640     1.2868180     0.9683990
  H        0.2309340    -1.1197490    -0.1755670
  H       -3.1861080    -0.6022700     1.5809140
  H       -3.8905480     0.5449040     0.4307430
  H       -4.3152940    -1.1768540     0.3431720
units angstrom
no_reorient  #important for SAPT in psi4, default
symmetry c1  #important for SAPT in psi4, default
}

set PROPERTIES_ORIGIN ["COM"]
properties('MP2/aug-cc-pvtz', properties = ['dipole'])
--------------------------------------------------------------------------

    Molecular point group: c1
  Charge       = -1
  Multiplicity = 1
  Basis Set: AUG-CC-PVTZ
    Blend: AUG-CC-PVTZ
  Basis Set: (AUG-CC-PVTZ AUX)
    Blend: AUG-CC-PVTZ-JKFIT

    Orbital Energies [Eh]
    ---------------------

    Doubly Occupied:

       1A    -20.387028     2A    -20.327253     3A    -20.309928
       4A    -15.444864     5A    -11.221858     6A    -11.163653
       7A    -11.135351     8A    -11.127878     9A    -11.107860
      10A     -1.238289    11A     -1.195136    12A     -1.095058
      13A     -1.084314    14A     -0.949568    15A     -0.829930
      16A     -0.758972    17A     -0.652699    18A     -0.584751
      19A     -0.544607    20A     -0.527204    21A     -0.502260
      22A     -0.485237    23A     -0.475576    24A     -0.437304
      25A     -0.427617    26A     -0.419521    27A     -0.407999
      28A     -0.396052    29A     -0.381255    30A     -0.347535
      31A     -0.298361    32A     -0.256324    33A     -0.241009
      34A     -0.222944    35A     -0.216033

  @DF-RHF Final Energy:  -473.28786933315797

   => Energetics <=

    Nuclear Repulsion Energy =            435.2852535070544491
    One-Electron Energy =               -1522.7437864069700026
    Two-Electron Energy =                 614.1706635667575256
    Total Energy =                       -473.2878693331580280
  Basis Set: (AUG-CC-PVTZ AUX)
    Blend: AUG-CC-PVTZ-RI
    Molecular point group: c1

    Geometry (in Angstrom), charge = -1, multiplicity = 1:

       Center              X                  Y                   Z               Mass
    ------------   -----------------  -----------------  -----------------  -----------------
         O           -1.620456060304     1.546927571189    -0.138498114620    15.994914619570
         O            2.162041939696    -1.442580428811    -0.040813114620    15.994914619570
         O            3.429886939696     0.435631571189     0.199870885380    15.994914619570
         N           -0.097837060304    -0.142601428811    -0.110282114620    14.003074004430
         C           -2.440349060304    -0.708509428811    -0.410123114620    12.000000000000
         C           -1.352712060304     0.330903571189    -0.205328114620    12.000000000000
         C            1.073632939696     0.691853571189     0.045236885380    12.000000000000
         C           -3.607376060304    -0.483203428811     0.547987885380    12.000000000000
         C            2.341828639696    -0.212049128811     0.068641385380    12.000000000000
         H           -2.789168060304    -0.615899428811    -1.445602114620     1.007825032230
         H           -2.033844060304    -1.718701428811    -0.297152114620     1.007825032230
         H            1.149787939696     1.414888571189    -0.775824114620     1.007825032230
         H            1.019308939696     1.273802571189     0.973251885380     1.007825032230
         H            0.129078939696    -1.132764428811    -0.170714114620     1.007825032230
         H           -3.287963060304    -0.615285428811     1.585766885380     1.007825032230
         H           -3.992403060304     0.531888571189     0.435595885380     1.007825032230
         H           -4.417149060304    -1.189869428811     0.348024885380     1.007825032230

  Basis Set: AUG-CC-PVTZ
    Blend: AUG-CC-PVTZ
  Basis Set: (AUG-CC-PVTZ AUX)
    Blend: AUG-CC-PVTZ-JKFIT
	 Reference Energy          =    -473.2878693331579711 [Eh]
	 Singles Energy            =      -0.0000000000000000 [Eh]
	 Same-Spin Energy          =      -0.4757229702321111 [Eh]
	 Opposite-Spin Energy      =      -1.4645167576398865 [Eh]
	 Correlation Energy        =      -1.9402397278719976 [Eh]
	 Total Energy              =    -475.2281090610299543 [Eh]

	 ================> DF-SCS-MP2 Energies <==================
	-----------------------------------------------------------
	 SCS Same-Spin Scale       =       0.3333333333333333 [-]
	 SCS Opposite-Spin Scale   =       1.2000000000000000 [-]
	 SCS Same-Spin Energy      =      -0.1585743234107037 [Eh]
	 SCS Opposite-Spin Energy  =      -1.7574201091678638 [Eh]
	 SCS Correlation Energy    =      -1.9159944325785676 [Eh]
	 SCS Total Energy          =    -475.2038637657365143 [Eh]
	-----------------------------------------------------------

  Dipole Moment: [D]
     X:    -9.4465      Y:    -1.3157      Z:    -0.4307     Total:     9.5474

*** Psi4 exiting successfully. Buy a developer a beer!
