                               Psi4 1.3.2 release

  ==> Input File <==

--------------------------------------------------------------------------
#psi4
#
memory 32 gb

molecule  {
-1 1
  O        1.5767040    -1.4434028    -0.0080605
  O       -2.4744110     1.3948030    -0.0154550
  O       -3.5371250    -0.6067510    -0.0268560
  N       -0.0146490     0.2143920     0.0158120
  C        2.3455801     0.8189138     0.0015716
  C        1.2455030    -0.2240550     0.0044360
  C       -1.1489000    -0.6463140     0.0180560
  C        3.7164760     0.2336920    -0.0114620
  C       -2.5073920     0.1288020     0.0323140
  H        2.1647820     1.4966320    -0.8622200
  H        2.1776990     1.4878210     0.8748480
  H       -1.1517560    -1.3070500    -0.8570610
  H       -1.1395970    -1.3178250     0.8849180
  H       -0.2830670     1.1965190     0.0239890
  H        3.8663740    -0.3931470     0.8680960
  H        3.8530680    -0.3842560    -0.8995260
  H        4.4669480     1.0276640    -0.0135300
units angstrom
no_reorient  #important for SAPT in psi4, default
symmetry c1  #important for SAPT in psi4, default
}

set PROPERTIES_ORIGIN ["COM"]
properties('MP2/aug-cc-pvtz', properties = ['dipole'])
--------------------------------------------------------------------------

    Molecular point group: c1
  Charge       = -1
  Multiplicity = 1
  Basis Set: AUG-CC-PVTZ
    Blend: AUG-CC-PVTZ
  Basis Set: (AUG-CC-PVTZ AUX)
    Blend: AUG-CC-PVTZ-JKFIT

    Orbital Energies [Eh]
    ---------------------

    Doubly Occupied:

       1A    -20.391225     2A    -20.323049     3A    -20.311339
       4A    -15.452487     5A    -11.227740     6A    -11.165371
       7A    -11.137981     8A    -11.122410     9A    -11.109837
      10A     -1.235252    11A     -1.187554    12A     -1.103601
      13A     -1.082972    14A     -0.955128    15A     -0.837160
      16A     -0.757242    17A     -0.660458    18A     -0.589198
      19A     -0.546106    20A     -0.533528    21A     -0.507689
      22A     -0.484731    23A     -0.476122    24A     -0.432423
      25A     -0.425939    26A     -0.414943    27A     -0.412076
      28A     -0.397309    29A     -0.376399    30A     -0.344357
      31A     -0.302167    32A     -0.258647    33A     -0.235849
      34A     -0.225395    35A     -0.213712

  @DF-RHF Final Energy:  -473.28009547937143

   => Energetics <=

    Nuclear Repulsion Energy =            433.4463953656044737
    One-Electron Energy =               -1518.9781882934796613
    Two-Electron Energy =                 612.2516974485037053
    Total Energy =                       -473.2800954793714254
  Basis Set: (AUG-CC-PVTZ AUX)
    Blend: AUG-CC-PVTZ-RI
    Molecular point group: c1

    Geometry (in Angstrom), charge = -1, multiplicity = 1:

       Center              X                  Y                   Z               Mass
    ------------   -----------------  -----------------  -----------------  -----------------
         O            1.678672453358    -1.428584126841    -0.007863519950    15.994914619570
         O           -2.372442546642     1.409621673159    -0.015258019950    15.994914619570
         O           -3.435156546642    -0.591932326841    -0.026659019950    15.994914619570
         N            0.087319453358     0.229210673159     0.016008980050    14.003074004430
         C            2.447548553358     0.833732473159     0.001768580050    12.000000000000
         C            1.347471453358    -0.209236326841     0.004632980050    12.000000000000
         C           -1.046931546642    -0.631495326841     0.018252980050    12.000000000000
         C            3.818444453358     0.248510673159    -0.011265019950    12.000000000000
         C           -2.405423546642     0.143620673159     0.032510980050    12.000000000000
         H            2.266750453358     1.511450673159    -0.862023019950     1.007825032230
         H            2.279667453358     1.502639673159     0.875044980050     1.007825032230
         H           -1.049787546642    -1.292231326841    -0.856864019950     1.007825032230
         H           -1.037628546642    -1.303006326841     0.885114980050     1.007825032230
         H           -0.181098546642     1.211337673159     0.024185980050     1.007825032230
         H            3.968342453358    -0.378328326841     0.868292980050     1.007825032230
         H            3.955036453358    -0.369437326841    -0.899329019950     1.007825032230
         H            4.568916453358     1.042482673159    -0.013333019950     1.007825032230

  Basis Set: AUG-CC-PVTZ
    Blend: AUG-CC-PVTZ
  Basis Set: (AUG-CC-PVTZ AUX)
    Blend: AUG-CC-PVTZ-JKFIT
	 Reference Energy          =    -473.2800954793714254 [Eh]
	 Singles Energy            =      -0.0000000000000000 [Eh]
	 Same-Spin Energy          =      -0.4763262594957879 [Eh]
	 Opposite-Spin Energy      =      -1.4655420887839008 [Eh]
	 Correlation Energy        =      -1.9418683482796886 [Eh]
	 Total Energy              =    -475.2219638276511091 [Eh]

	 ================> DF-SCS-MP2 Energies <==================
	-----------------------------------------------------------
	 SCS Same-Spin Scale       =       0.3333333333333333 [-]
	 SCS Opposite-Spin Scale   =       1.2000000000000000 [-]
	 SCS Same-Spin Energy      =      -0.1587754198319293 [Eh]
	 SCS Opposite-Spin Energy  =      -1.7586505065406810 [Eh]
	 SCS Correlation Energy    =      -1.9174259263726103 [Eh]
	 SCS Total Energy          =    -475.1975214057440553 [Eh]
	-----------------------------------------------------------

  Dipole Moment: [D]
     X:     9.8552      Y:     1.5297      Z:     0.1365     Total:     9.9741

*** Psi4 exiting successfully. Buy a developer a beer!
