                               Psi4 1.3.2 release

  ==> Input File <==

--------------------------------------------------------------------------
#psi4
#
memory 32 gb

molecule  {
-1 1
  O        1.5553730    -1.4489990    -0.0078940
  O       -2.4744110     1.3948030    -0.0154550
  O       -3.5371250    -0.6067510    -0.0268560
  N       -0.0146490     0.2143920     0.0158120
  C        2.3272120     0.8379530     0.0018960
  C        1.2781941    -0.2542300     0.0701575
  C       -1.1489000    -0.6463140     0.0180560
  C        3.7164760     0.2336920    -0.0114620
  C       -2.5073920     0.1288020     0.0323140
  H        2.2110763     1.5267078    -0.8460824
  H        2.1776990     1.4878210     0.8748480
  H       -1.1517560    -1.3070500    -0.8570610
  H       -1.1395970    -1.3178250     0.8849180
  H       -0.2830670     1.1965190     0.0239890
  H        3.8663740    -0.3931470     0.8680960
  H        3.8530680    -0.3842560    -0.8995260
  H        4.4669480     1.0276640    -0.0135300
units angstrom
no_reorient  #important for SAPT in psi4, default
symmetry c1  #important for SAPT in psi4, default
}

set PROPERTIES_ORIGIN ["COM"]
properties('MP2/aug-cc-pvtz', properties = ['dipole'])
--------------------------------------------------------------------------

    Molecular point group: c1
  Charge       = -1
  Multiplicity = 1
  Basis Set: AUG-CC-PVTZ
    Blend: AUG-CC-PVTZ
  Basis Set: (AUG-CC-PVTZ AUX)
    Blend: AUG-CC-PVTZ-JKFIT

    Orbital Energies [Eh]
    ---------------------

    Doubly Occupied:

       1A    -20.402402     2A    -20.319426     3A    -20.308036
       4A    -15.442908     5A    -11.231011     6A    -11.161595
       7A    -11.137699     8A    -11.124790     9A    -11.104482
      10A     -1.257134    11A     -1.184230    12A     -1.092152
      13A     -1.078211    14A     -0.954575    15A     -0.828540
      16A     -0.755078    17A     -0.653069    18A     -0.592929
      19A     -0.542899    20A     -0.534552    21A     -0.511125
      22A     -0.480105    23A     -0.479043    24A     -0.424556
      25A     -0.423319    26A     -0.418368    27A     -0.417615
      28A     -0.395450    29A     -0.383942    30A     -0.345022
      31A     -0.310127    32A     -0.253012    33A     -0.232286
      34A     -0.221538    35A     -0.210159

  @DF-RHF Final Energy:  -473.27925269711358

   => Energetics <=

    Nuclear Repulsion Energy =            433.1791972291870820
    One-Electron Energy =               -1518.4941327631329386
    Two-Electron Energy =                 612.0356828368322795
    Total Energy =                       -473.2792526971135203
  Basis Set: (AUG-CC-PVTZ AUX)
    Blend: AUG-CC-PVTZ-RI
    Molecular point group: c1

    Geometry (in Angstrom), charge = -1, multiplicity = 1:

       Center              X                  Y                   Z               Mass
    ------------   -----------------  -----------------  -----------------  -----------------
         O            1.658284587345    -1.432697600373    -0.013936737147    15.994914619570
         O           -2.371499412655     1.411104399627    -0.021497737147    15.994914619570
         O           -3.434213412655    -0.590449600373    -0.032898737147    15.994914619570
         N            0.088262587345     0.230693399627     0.009769262853    14.003074004430
         C            2.430123587345     0.854254399627    -0.004146737147    12.000000000000
         C            1.381105687345    -0.237928600373     0.064114762853    12.000000000000
         C           -1.045988412655    -0.630012600373     0.012013262853    12.000000000000
         C            3.819387587345     0.249993399627    -0.017504737147    12.000000000000
         C           -2.404480412655     0.145103399627     0.026271262853    12.000000000000
         H            2.313987887345     1.543009199627    -0.852125137147     1.007825032230
         H            2.280610587345     1.504122399627     0.868805262853     1.007825032230
         H           -1.048844412655    -1.290748600373    -0.863103737147     1.007825032230
         H           -1.036685412655    -1.301523600373     0.878875262853     1.007825032230
         H           -0.180155412655     1.212820399627     0.017946262853     1.007825032230
         H            3.969285587345    -0.376845600373     0.862053262853     1.007825032230
         H            3.955979587345    -0.367954600373    -0.905568737147     1.007825032230
         H            4.569859587345     1.043965399627    -0.019572737147     1.007825032230

  Basis Set: AUG-CC-PVTZ
    Blend: AUG-CC-PVTZ
  Basis Set: (AUG-CC-PVTZ AUX)
    Blend: AUG-CC-PVTZ-JKFIT
	 Reference Energy          =    -473.2792526971135771 [Eh]
	 Singles Energy            =      -0.0000000000000000 [Eh]
	 Same-Spin Energy          =      -0.4758507545584948 [Eh]
	 Opposite-Spin Energy      =      -1.4648826951892939 [Eh]
	 Correlation Energy        =      -1.9407334497477888 [Eh]
	 Total Energy              =    -475.2199861468613449 [Eh]

	 ================> DF-SCS-MP2 Energies <==================
	-----------------------------------------------------------
	 SCS Same-Spin Scale       =       0.3333333333333333 [-]
	 SCS Opposite-Spin Scale   =       1.2000000000000000 [-]
	 SCS Same-Spin Energy      =      -0.1586169181861649 [Eh]
	 SCS Opposite-Spin Energy  =      -1.7578592342271526 [Eh]
	 SCS Correlation Energy    =      -1.9164761524133176 [Eh]
	 SCS Total Energy          =    -475.1957288495269154 [Eh]
	-----------------------------------------------------------

  Dipole Moment: [D]
     X:    10.2609      Y:     1.3508      Z:     0.2019     Total:    10.3514

*** Psi4 exiting successfully. Buy a developer a beer!
