                               Psi4 1.3.2 release

  ==> Input File <==

--------------------------------------------------------------------------
#psi4
#
memory 32 gb

molecule  {
-1 1
  O        1.5553730    -1.4489990    -0.0078940
  O       -2.4744110     1.3948030    -0.0154550
  O       -3.5371250    -0.6067510    -0.0268560
  N       -0.0146490     0.2143920     0.0158120
  C        2.3272120     0.8379530     0.0018960
  C        1.2492816    -0.2130413     0.0044804
  C       -1.1563673    -0.6363834     0.0181701
  C        3.7164760     0.2336920    -0.0114620
  C       -2.5073920     0.1288020     0.0323140
  H        2.1647820     1.4966320    -0.8622200
  H        2.1776990     1.4878210     0.8748480
  H       -1.1517560    -1.3070500    -0.8570610
  H       -1.1395970    -1.3178250     0.8849180
  H       -0.2830670     1.1965190     0.0239890
  H        3.8663740    -0.3931470     0.8680960
  H        3.8530680    -0.3842560    -0.8995260
  H        4.4669480     1.0276640    -0.0135300
units angstrom
no_reorient  #important for SAPT in psi4, default
symmetry c1  #important for SAPT in psi4, default
}

set PROPERTIES_ORIGIN ["COM"]
properties('MP2/aug-cc-pvtz', properties = ['dipole'])
--------------------------------------------------------------------------

    Molecular point group: c1
  Charge       = -1
  Multiplicity = 1
  Basis Set: AUG-CC-PVTZ
    Blend: AUG-CC-PVTZ
  Basis Set: (AUG-CC-PVTZ AUX)
    Blend: AUG-CC-PVTZ-JKFIT

    Orbital Energies [Eh]
    ---------------------

    Doubly Occupied:

       1A    -20.390070     2A    -20.322352     3A    -20.310865
       4A    -15.452259     5A    -11.228286     6A    -11.164472
       7A    -11.138357     8A    -11.124654     9A    -11.110168
      10A     -1.230258    11A     -1.187318    12A     -1.101543
      13A     -1.082442    14A     -0.954531    15A     -0.838063
      16A     -0.760572    17A     -0.659720    18A     -0.591358
      19A     -0.546782    20A     -0.536218    21A     -0.505817
      22A     -0.483024    23A     -0.473317    24A     -0.426867
      25A     -0.426383    26A     -0.417205    27A     -0.413310
      28A     -0.395843    29A     -0.378993    30A     -0.342073
      31A     -0.303252    32A     -0.256607    33A     -0.235616
      34A     -0.226055    35A     -0.213223

  @DF-RHF Final Energy:  -473.28010791935372

   => Energetics <=

    Nuclear Repulsion Energy =            433.4141432470181030
    One-Electron Energy =               -1518.9327617727547022
    Two-Electron Energy =                 612.2385106063829880
    Total Energy =                       -473.2801079193536680
  Basis Set: (AUG-CC-PVTZ AUX)
    Blend: AUG-CC-PVTZ-RI
    Molecular point group: c1

    Geometry (in Angstrom), charge = -1, multiplicity = 1:

       Center              X                  Y                   Z               Mass
    ------------   -----------------  -----------------  -----------------  -----------------
         O            1.662000178278    -1.437181403381    -0.007762055906    15.994914619570
         O           -2.367783821722     1.406620596619    -0.015323055906    15.994914619570
         O           -3.430497821722    -0.594933403381    -0.026724055906    15.994914619570
         N            0.091978178278     0.226209596619     0.015943944094    14.003074004430
         C            2.433839178278     0.849770596619     0.002027944094    12.000000000000
         C            1.355908778278    -0.201223703381     0.004612344094    12.000000000000
         C           -1.049740121722    -0.624565803381     0.018302044094    12.000000000000
         C            3.823103178278     0.245509596619    -0.011330055906    12.000000000000
         C           -2.400764821722     0.140619596619     0.032445944094    12.000000000000
         H            2.271409178278     1.508449596619    -0.862088055906     1.007825032230
         H            2.284326178278     1.499638596619     0.874979944094     1.007825032230
         H           -1.045128821722    -1.295232403381    -0.856929055906     1.007825032230
         H           -1.032969821722    -1.306007403381     0.885049944094     1.007825032230
         H           -0.176439821722     1.208336596619     0.024120944094     1.007825032230
         H            3.973001178278    -0.381329403381     0.868227944094     1.007825032230
         H            3.959695178278    -0.372438403381    -0.899394055906     1.007825032230
         H            4.573575178278     1.039481596619    -0.013398055906     1.007825032230

  Basis Set: AUG-CC-PVTZ
    Blend: AUG-CC-PVTZ
  Basis Set: (AUG-CC-PVTZ AUX)
    Blend: AUG-CC-PVTZ-JKFIT
	 Reference Energy          =    -473.2801079193537248 [Eh]
	 Singles Energy            =      -0.0000000000000000 [Eh]
	 Same-Spin Energy          =      -0.4764295390236074 [Eh]
	 Opposite-Spin Energy      =      -1.4659101372334919 [Eh]
	 Correlation Energy        =      -1.9423396762570992 [Eh]
	 Total Energy              =    -475.2224475956108449 [Eh]

	 ================> DF-SCS-MP2 Energies <==================
	-----------------------------------------------------------
	 SCS Same-Spin Scale       =       0.3333333333333333 [-]
	 SCS Opposite-Spin Scale   =       1.2000000000000000 [-]
	 SCS Same-Spin Energy      =      -0.1588098463412024 [Eh]
	 SCS Opposite-Spin Energy  =      -1.7590921646801903 [Eh]
	 SCS Correlation Energy    =      -1.9179020110213927 [Eh]
	 SCS Total Energy          =    -475.1980099303751217 [Eh]
	-----------------------------------------------------------

  Dipole Moment: [D]
     X:     9.9090      Y:     1.6251      Z:     0.1371     Total:    10.0423

*** Psi4 exiting successfully. Buy a developer a beer!
