                               Psi4 1.3.2 release

  ==> Input File <==

--------------------------------------------------------------------------
#psi4
#
memory 32 gb

molecule  {
-1 1
  O        1.5553730    -1.4489990    -0.0078940
  O       -2.4744110     1.3948030    -0.0154550
  O       -3.5371250    -0.6067510    -0.0268560
  N       -0.0146490     0.2143920     0.0158120
  C        2.3272120     0.8379530     0.0018960
  C        1.2376582    -0.2459813     0.0043472
  C       -1.1489000    -0.6463140     0.0180560
  C        3.7164760     0.2336920    -0.0114620
  C       -2.5073920     0.1288020     0.0323140
  H        2.1647820     1.4966320    -0.8622200
  H        2.1776990     1.4878210     0.8748480
  H       -1.1517560    -1.3070500    -0.8570610
  H       -1.1395970    -1.3178250     0.8849180
  H       -0.3001668     1.1916841     0.0240735
  H        3.8663740    -0.3931470     0.8680960
  H        3.8530680    -0.3842560    -0.8995260
  H        4.4669480     1.0276640    -0.0135300
units angstrom
no_reorient  #important for SAPT in psi4, default
symmetry c1  #important for SAPT in psi4, default
}

set PROPERTIES_ORIGIN ["COM"]
properties('MP2/aug-cc-pvtz', properties = ['dipole'])
--------------------------------------------------------------------------

    Molecular point group: c1
  Charge       = -1
  Multiplicity = 1
  Basis Set: AUG-CC-PVTZ
    Blend: AUG-CC-PVTZ
  Basis Set: (AUG-CC-PVTZ AUX)
    Blend: AUG-CC-PVTZ-JKFIT

    Orbital Energies [Eh]
    ---------------------

    Doubly Occupied:

       1A    -20.394452     2A    -20.322909     3A    -20.310815
       4A    -15.449252     5A    -11.226964     6A    -11.164712
       7A    -11.135881     8A    -11.122986     9A    -11.108023
      10A     -1.245908    11A     -1.187430    12A     -1.104204
      13A     -1.082679    14A     -0.948718    15A     -0.834052
      16A     -0.755147    17A     -0.662194    18A     -0.588899
      19A     -0.543734    20A     -0.533484    21A     -0.508909
      22A     -0.484450    23A     -0.477773    24A     -0.425626
      25A     -0.423290    26A     -0.417036    27A     -0.414821
      28A     -0.396665    29A     -0.382841    30A     -0.345904
      31A     -0.303090    32A     -0.258756    33A     -0.235655
      34A     -0.224641    35A     -0.213396

  @DF-RHF Final Energy:  -473.28322269793705

   => Energetics <=

    Nuclear Repulsion Energy =            433.5261101025402013
    One-Electron Energy =               -1519.1480734604713234
    Two-Electron Energy =                 612.3387406599941869
    Total Energy =                       -473.2832226979370489
  Basis Set: (AUG-CC-PVTZ AUX)
    Blend: AUG-CC-PVTZ-RI
    Molecular point group: c1

    Geometry (in Angstrom), charge = -1, multiplicity = 1:

       Center              X                  Y                   Z               Mass
    ------------   -----------------  -----------------  -----------------  -----------------
         O            1.662516184359    -1.433188183361    -0.007739891896    15.994914619570
         O           -2.367267815641     1.410613816639    -0.015300891896    15.994914619570
         O           -3.429981815641    -0.590940183361    -0.026701891896    15.994914619570
         N            0.092494184359     0.230202816639     0.015966108104    14.003074004430
         C            2.434355184359     0.853763816639     0.002050108104    12.000000000000
         C            1.344801384359    -0.230170483361     0.004501308104    12.000000000000
         C           -1.041756815641    -0.630503183361     0.018210108104    12.000000000000
         C            3.823619184359     0.249502816639    -0.011307891896    12.000000000000
         C           -2.400248815641     0.144612816639     0.032468108104    12.000000000000
         H            2.271925184359     1.512442816639    -0.862065891896     1.007825032230
         H            2.284842184359     1.503631816639     0.875002108104     1.007825032230
         H           -1.044612815641    -1.291239183361    -0.856906891896     1.007825032230
         H           -1.032453815641    -1.302014183361     0.885072108104     1.007825032230
         H           -0.193023615641     1.207494916639     0.024227608104     1.007825032230
         H            3.973517184359    -0.377336183361     0.868250108104     1.007825032230
         H            3.960211184359    -0.368445183361    -0.899371891896     1.007825032230
         H            4.574091184359     1.043474816639    -0.013375891896     1.007825032230

  Basis Set: AUG-CC-PVTZ
    Blend: AUG-CC-PVTZ
  Basis Set: (AUG-CC-PVTZ AUX)
    Blend: AUG-CC-PVTZ-JKFIT
	 Reference Energy          =    -473.2832226979370489 [Eh]
	 Singles Energy            =      -0.0000000000000000 [Eh]
	 Same-Spin Energy          =      -0.4757914041381999 [Eh]
	 Opposite-Spin Energy      =      -1.4646187660874210 [Eh]
	 Correlation Energy        =      -1.9404101702256209 [Eh]
	 Total Energy              =    -475.2236328681626674 [Eh]

	 ================> DF-SCS-MP2 Energies <==================
	-----------------------------------------------------------
	 SCS Same-Spin Scale       =       0.3333333333333333 [-]
	 SCS Opposite-Spin Scale   =       1.2000000000000000 [-]
	 SCS Same-Spin Energy      =      -0.1585971347127333 [Eh]
	 SCS Opposite-Spin Energy  =      -1.7575425193049052 [Eh]
	 SCS Correlation Energy    =      -1.9161396540176385 [Eh]
	 SCS Total Energy          =    -475.1993623519546759 [Eh]
	-----------------------------------------------------------

  Dipole Moment: [D]
     X:     9.8567      Y:     1.4386      Z:     0.1359     Total:     9.9621

*** Psi4 exiting successfully. Buy a developer a beer!
