                               Psi4 1.3.2 release

  ==> Input File <==

--------------------------------------------------------------------------
#psi4
#
memory 32 gb

molecule  {
-1 1
  O        1.5553730    -1.4489990    -0.0078940
  O       -2.4744110     1.3948030    -0.0154550
  O       -3.5371250    -0.6067510    -0.0268560
  N       -0.0146490     0.2143920     0.0158120
  C        2.3272120     0.8379530     0.0018960
  C        1.2455030    -0.2240550     0.0044360
  C       -1.1637477    -0.6263881     0.0182865
  C        3.7164760     0.2336920    -0.0114620
  C       -2.5073920     0.1288020     0.0323140
  H        2.1647820     1.4966320    -0.8622200
  H        2.1776990     1.4878210     0.8748480
  H       -1.1517560    -1.3070500    -0.8570610
  H       -1.1395970    -1.3178250     0.8849180
  H       -0.3001668     1.1916841     0.0240753
  H        3.8663740    -0.3931470     0.8680960
  H        3.8530680    -0.3842560    -0.8995260
  H        4.4669480     1.0276640    -0.0135300
units angstrom
no_reorient  #important for SAPT in psi4, default
symmetry c1  #important for SAPT in psi4, default
}

set PROPERTIES_ORIGIN ["COM"]
properties('MP2/aug-cc-pvtz', properties = ['dipole'])
--------------------------------------------------------------------------

    Molecular point group: c1
  Charge       = -1
  Multiplicity = 1
  Basis Set: AUG-CC-PVTZ
    Blend: AUG-CC-PVTZ
  Basis Set: (AUG-CC-PVTZ AUX)
    Blend: AUG-CC-PVTZ-JKFIT

    Orbital Energies [Eh]
    ---------------------

    Doubly Occupied:

       1A    -20.391725     2A    -20.322577     3A    -20.310875
       4A    -15.451227     5A    -11.228410     6A    -11.164134
       7A    -11.137668     8A    -11.124143     9A    -11.110561
      10A     -1.235338    11A     -1.188138    12A     -1.102738
      13A     -1.082776    14A     -0.952650    15A     -0.837551
      16A     -0.759190    17A     -0.661152    18A     -0.591743
      19A     -0.547419    20A     -0.535191    21A     -0.505762
      22A     -0.482190    23A     -0.474998    24A     -0.427325
      25A     -0.425766    26A     -0.416824    27A     -0.414046
      28A     -0.394721    29A     -0.380491    30A     -0.342196
      31A     -0.303686    32A     -0.256317    33A     -0.236374
      34A     -0.226992    35A     -0.213387

  @DF-RHF Final Energy:  -473.28077612010139

   => Energetics <=

    Nuclear Repulsion Energy =            433.5798296138956403
    One-Electron Energy =               -1519.2486482294489178
    Two-Electron Energy =                 612.3880424954520549
    Total Energy =                       -473.2807761201013363
  Basis Set: (AUG-CC-PVTZ AUX)
    Blend: AUG-CC-PVTZ-RI
    Molecular point group: c1

    Geometry (in Angstrom), charge = -1, multiplicity = 1:

       Center              X                  Y                   Z               Mass
    ------------   -----------------  -----------------  -----------------  -----------------
         O            1.663162355291    -1.437049965639    -0.007769368264    15.994914619570
         O           -2.366621644709     1.406752034361    -0.015330368264    15.994914619570
         O           -3.429335644709    -0.594801965639    -0.026731368264    15.994914619570
         N            0.093140355291     0.226341034361     0.015936631736    14.003074004430
         C            2.435001355291     0.849902034361     0.002020631736    12.000000000000
         C            1.353292355291    -0.212105965639     0.004560631736    12.000000000000
         C           -1.055958344709    -0.614439065639     0.018411131736    12.000000000000
         C            3.824265355291     0.245641034361    -0.011337368264    12.000000000000
         C           -2.399602644709     0.140751034361     0.032438631736    12.000000000000
         H            2.272571355291     1.508581034361    -0.862095368264     1.007825032230
         H            2.285488355291     1.499770034361     0.874972631736     1.007825032230
         H           -1.043966644709    -1.295100965639    -0.856936368264     1.007825032230
         H           -1.031807644709    -1.305875965639     0.885042631736     1.007825032230
         H           -0.192377444709     1.203633134361     0.024199931736     1.007825032230
         H            3.974163355291    -0.381197965639     0.868220631736     1.007825032230
         H            3.960857355291    -0.372306965639    -0.899401368264     1.007825032230
         H            4.574737355291     1.039613034361    -0.013405368264     1.007825032230

  Basis Set: AUG-CC-PVTZ
    Blend: AUG-CC-PVTZ
  Basis Set: (AUG-CC-PVTZ AUX)
    Blend: AUG-CC-PVTZ-JKFIT
	 Reference Energy          =    -473.2807761201013932 [Eh]
	 Singles Energy            =      -0.0000000000000000 [Eh]
	 Same-Spin Energy          =      -0.4763077397294001 [Eh]
	 Opposite-Spin Energy      =      -1.4656128944110871 [Eh]
	 Correlation Energy        =      -1.9419206341404873 [Eh]
	 Total Energy              =    -475.2226967542418947 [Eh]

	 ================> DF-SCS-MP2 Energies <==================
	-----------------------------------------------------------
	 SCS Same-Spin Scale       =       0.3333333333333333 [-]
	 SCS Opposite-Spin Scale   =       1.2000000000000000 [-]
	 SCS Same-Spin Energy      =      -0.1587692465764667 [Eh]
	 SCS Opposite-Spin Energy  =      -1.7587354732933045 [Eh]
	 SCS Correlation Energy    =      -1.9175047198697712 [Eh]
	 SCS Total Energy          =    -475.1982808399711757 [Eh]
	-----------------------------------------------------------

  Dipole Moment: [D]
     X:     9.8886      Y:     1.5659      Z:     0.1367     Total:    10.0128

*** Psi4 exiting successfully. Buy a developer a beer!
