                               Psi4 1.3.2 release

  ==> Input File <==

--------------------------------------------------------------------------
#psi4
#
memory 32 gb

molecule  {
-1 1
  O        1.5553730    -1.4489990    -0.0078940
  O       -2.4744110     1.3948030    -0.0154550
  O       -3.5371250    -0.6067510    -0.0268560
  N       -0.0146490     0.2143920     0.0158120
  C        2.3272120     0.8379530     0.0018960
  C        1.1510599    -0.1911952     0.0052886
  C       -1.1489000    -0.6463140     0.0180560
  C        3.7164760     0.2336920    -0.0114620
  C       -2.5073920     0.1288020     0.0323140
  H        2.1647820     1.4966320    -0.8622200
  H        2.1776990     1.4878210     0.8748480
  H       -1.1517560    -1.3070500    -0.8570610
  H       -1.1395970    -1.3178250     0.8849180
  H       -0.2830670     1.1965190     0.0239890
  H        3.8663740    -0.3931470     0.8680960
  H        3.8530680    -0.3842560    -0.8995260
  H        4.4669480     1.0276640    -0.0135300
units angstrom
no_reorient  #important for SAPT in psi4, default
symmetry c1  #important for SAPT in psi4, default
}

set PROPERTIES_ORIGIN ["COM"]
properties('MP2/aug-cc-pvtz', properties = ['dipole'])
--------------------------------------------------------------------------

    Molecular point group: c1
  Charge       = -1
  Multiplicity = 1
  Basis Set: AUG-CC-PVTZ
    Blend: AUG-CC-PVTZ
  Basis Set: (AUG-CC-PVTZ AUX)
    Blend: AUG-CC-PVTZ-JKFIT

    Orbital Energies [Eh]
    ---------------------

    Doubly Occupied:

       1A    -20.371691     2A    -20.330062     3A    -20.317439
       4A    -15.468564     5A    -11.218882     6A    -11.172139
       7A    -11.135883     8A    -11.119424     9A    -11.118973
      10A     -1.225143    11A     -1.191831    12A     -1.117009
      13A     -1.090291    14A     -0.940867    15A     -0.854120
      16A     -0.756873    17A     -0.685196    18A     -0.592530
      19A     -0.540843    20A     -0.534114    21A     -0.512959
      22A     -0.494926    23A     -0.462558    24A     -0.433520
      25A     -0.425866    26A     -0.414727    27A     -0.410560
      28A     -0.383899    29A     -0.380613    30A     -0.343010
      31A     -0.282807    32A     -0.264592    33A     -0.242443
      34A     -0.232078    35A     -0.220375

  @DF-RHF Final Energy:  -473.26157635715055

   => Energetics <=

    Nuclear Repulsion Energy =            433.9192363582722010
    One-Electron Energy =               -1519.7880099427316054
    Two-Electron Energy =                 612.6071972273089159
    Total Energy =                       -473.2615763571504885
  Basis Set: (AUG-CC-PVTZ AUX)
    Blend: AUG-CC-PVTZ-RI
    Molecular point group: c1

    Geometry (in Angstrom), charge = -1, multiplicity = 1:

       Center              X                  Y                   Z               Mass
    ------------   -----------------  -----------------  -----------------  -----------------
         O            1.670374259775    -1.438280869281    -0.007826101836    15.994914619570
         O           -2.359409740225     1.405521130719    -0.015387101836    15.994914619570
         O           -3.422123740225    -0.596032869281    -0.026788101836    15.994914619570
         N            0.100352259775     0.225110130719     0.015879898164    14.003074004430
         C            2.442213259775     0.848671130719     0.001963898164    12.000000000000
         C            1.266061159775    -0.180477069281     0.005356498164    12.000000000000
         C           -1.033898740225    -0.635595869281     0.018123898164    12.000000000000
         C            3.831477259775     0.244410130719    -0.011394101836    12.000000000000
         C           -2.392390740225     0.139520130719     0.032381898164    12.000000000000
         H            2.279783259775     1.507350130719    -0.862152101836     1.007825032230
         H            2.292700259775     1.498539130719     0.874915898164     1.007825032230
         H           -1.036754740225    -1.296331869281    -0.856993101836     1.007825032230
         H           -1.024595740225    -1.307106869281     0.884985898164     1.007825032230
         H           -0.168065740225     1.207237130719     0.024056898164     1.007825032230
         H            3.981375259775    -0.382428869281     0.868163898164     1.007825032230
         H            3.968069259775    -0.373537869281    -0.899458101836     1.007825032230
         H            4.581949259775     1.038382130719    -0.013462101836     1.007825032230

  Basis Set: AUG-CC-PVTZ
    Blend: AUG-CC-PVTZ
  Basis Set: (AUG-CC-PVTZ AUX)
    Blend: AUG-CC-PVTZ-JKFIT
	 Reference Energy          =    -473.2615763571505454 [Eh]
	 Singles Energy            =      -0.0000000000000000 [Eh]
	 Same-Spin Energy          =      -0.4766073817266033 [Eh]
	 Opposite-Spin Energy      =      -1.4664193954044178 [Eh]
	 Correlation Energy        =      -1.9430267771310210 [Eh]
	 Total Energy              =    -475.2046031342815695 [Eh]

	 ================> DF-SCS-MP2 Energies <==================
	-----------------------------------------------------------
	 SCS Same-Spin Scale       =       0.3333333333333333 [-]
	 SCS Opposite-Spin Scale   =       1.2000000000000000 [-]
	 SCS Same-Spin Energy      =      -0.1588691272422011 [Eh]
	 SCS Opposite-Spin Energy  =      -1.7597032744853014 [Eh]
	 SCS Correlation Energy    =      -1.9185724017275025 [Eh]
	 SCS Total Energy          =    -475.1801487588780333 [Eh]
	-----------------------------------------------------------

  Dipole Moment: [D]
     X:     8.9729      Y:     1.8886      Z:     0.1452     Total:     9.1707

*** Psi4 exiting successfully. Buy a developer a beer!
