                               Psi4 1.3.2 release

  ==> Input File <==

--------------------------------------------------------------------------
#psi4
#
memory 32 gb

molecule  {
-1 1
  O        1.5553730    -1.4489990    -0.0078940
  O       -2.4744110     1.3948030    -0.0154550
  O       -3.5371250    -0.6067510    -0.0268560
  N        0.0001987     0.1944661     0.0155828
  C        2.3272120     0.8379530     0.0018960
  C        1.2455030    -0.2240550     0.0044360
  C       -1.1489000    -0.6463140     0.0180560
  C        3.7164760     0.2336920    -0.0114620
  C       -2.5207137     0.1049743     0.0322525
  H        2.1647820     1.4966320    -0.8622200
  H        2.1776990     1.4878210     0.8748480
  H       -1.1517560    -1.3070500    -0.8570610
  H       -1.1395970    -1.3178250     0.8849180
  H       -0.2830670     1.1965190     0.0239890
  H        3.8663740    -0.3931470     0.8680960
  H        3.8530680    -0.3842560    -0.8995260
  H        4.4669480     1.0276640    -0.0135300
units angstrom
no_reorient  #important for SAPT in psi4, default
symmetry c1  #important for SAPT in psi4, default
}

set PROPERTIES_ORIGIN ["COM"]
properties('MP2/aug-cc-pvtz', properties = ['dipole'])
--------------------------------------------------------------------------

    Molecular point group: c1
  Charge       = -1
  Multiplicity = 1
  Basis Set: AUG-CC-PVTZ
    Blend: AUG-CC-PVTZ
  Basis Set: (AUG-CC-PVTZ AUX)
    Blend: AUG-CC-PVTZ-JKFIT

    Orbital Energies [Eh]
    ---------------------

    Doubly Occupied:

       1A    -20.386219     2A    -20.318837     3A    -20.317668
       4A    -15.452816     5A    -11.223060     6A    -11.166448
       7A    -11.136463     8A    -11.123032     9A    -11.110161
      10A     -1.234755    11A     -1.189942    12A     -1.104960
      13A     -1.081456    14A     -0.951411    15A     -0.839110
      16A     -0.758541    17A     -0.656511    18A     -0.589822
      19A     -0.547255    20A     -0.535062    21A     -0.505279
      22A     -0.485508    23A     -0.472250    24A     -0.427626
      25A     -0.425242    26A     -0.417037    27A     -0.413317
      28A     -0.392731    29A     -0.380721    30A     -0.344394
      31A     -0.300601    32A     -0.256845    33A     -0.234438
      34A     -0.228370    35A     -0.215570

  @DF-RHF Final Energy:  -473.27970698249953

   => Energetics <=

    Nuclear Repulsion Energy =            433.5493342563455030
    One-Electron Energy =               -1519.2111620359778499
    Two-Electron Energy =                 612.3821207971328704
    Total Energy =                       -473.2797069824995333
  Basis Set: (AUG-CC-PVTZ AUX)
    Blend: AUG-CC-PVTZ-RI
    Molecular point group: c1

    Geometry (in Angstrom), charge = -1, multiplicity = 1:

       Center              X                  Y                   Z               Mass
    ------------   -----------------  -----------------  -----------------  -----------------
         O            1.661290319416    -1.430904700360    -0.007717077161    15.994914619570
         O           -2.368493680584     1.412897299640    -0.015278077161    15.994914619570
         O           -3.431207680584    -0.588656700360    -0.026679077161    15.994914619570
         N            0.106116019416     0.212560399640     0.015759722839    14.003074004430
         C            2.433129319416     0.856047299640     0.002072922839    12.000000000000
         C            1.351420319416    -0.205960700360     0.004612922839    12.000000000000
         C           -1.042982680584    -0.628219700360     0.018232922839    12.000000000000
         C            3.822393319416     0.251786299640    -0.011285077161    12.000000000000
         C           -2.414796380584     0.123068599640     0.032429422839    12.000000000000
         H            2.270699319416     1.514726299640    -0.862043077161     1.007825032230
         H            2.283616319416     1.505915299640     0.875024922839     1.007825032230
         H           -1.045838680584    -1.288955700360    -0.856884077161     1.007825032230
         H           -1.033679680584    -1.299730700360     0.885094922839     1.007825032230
         H           -0.177149680584     1.214613299640     0.024165922839     1.007825032230
         H            3.972291319416    -0.375052700360     0.868272922839     1.007825032230
         H            3.958985319416    -0.366161700360    -0.899349077161     1.007825032230
         H            4.572865319416     1.045758299640    -0.013353077161     1.007825032230

  Basis Set: AUG-CC-PVTZ
    Blend: AUG-CC-PVTZ
  Basis Set: (AUG-CC-PVTZ AUX)
    Blend: AUG-CC-PVTZ-JKFIT
	 Reference Energy          =    -473.2797069824995333 [Eh]
	 Singles Energy            =      -0.0000000000000000 [Eh]
	 Same-Spin Energy          =      -0.4762814330180294 [Eh]
	 Opposite-Spin Energy      =      -1.4654731084269612 [Eh]
	 Correlation Energy        =      -1.9417545414449906 [Eh]
	 Total Energy              =    -475.2214615239445266 [Eh]

	 ================> DF-SCS-MP2 Energies <==================
	-----------------------------------------------------------
	 SCS Same-Spin Scale       =       0.3333333333333333 [-]
	 SCS Opposite-Spin Scale   =       1.2000000000000000 [-]
	 SCS Same-Spin Energy      =      -0.1587604776726765 [Eh]
	 SCS Opposite-Spin Energy  =      -1.7585677301123535 [Eh]
	 SCS Correlation Energy    =      -1.9173282077850300 [Eh]
	 SCS Total Energy          =    -475.1970351902845664 [Eh]
	-----------------------------------------------------------

  Dipole Moment: [D]
     X:     9.5917      Y:     1.3736      Z:     0.1364     Total:     9.6905

*** Psi4 exiting successfully. Buy a developer a beer!
