                               Psi4 1.3.2 release

  ==> Input File <==

--------------------------------------------------------------------------
#psi4
#
memory 32 gb

molecule  {
-1 1
  O        1.5553730    -1.4489990    -0.0078940
  O       -2.4744110     1.3948030    -0.0154550
  O       -3.5371250    -0.6067510    -0.0268560
  N       -0.0146490     0.2143920     0.0158120
  C        2.3272120     0.8379530     0.0018960
  C        1.2294319    -0.2677674     0.0042671
  C       -1.1181726    -0.6853733     0.0175979
  C        3.7164760     0.2336920    -0.0114620
  C       -2.5073920     0.1288020     0.0323140
  H        2.1647820     1.4966320    -0.8622200
  H        2.1776990     1.4878210     0.8748480
  H       -1.1517560    -1.3070500    -0.8570610
  H       -1.1395970    -1.3178250     0.8849180
  H       -0.2830670     1.1965190     0.0239890
  H        3.8663740    -0.3931470     0.8680960
  H        3.8530680    -0.3842560    -0.8995260
  H        4.4669480     1.0276640    -0.0135300
units angstrom
no_reorient  #important for SAPT in psi4, default
symmetry c1  #important for SAPT in psi4, default
}

set PROPERTIES_ORIGIN ["COM"]
properties('MP2/aug-cc-pvtz', properties = ['dipole'])
--------------------------------------------------------------------------

    Molecular point group: c1
  Charge       = -1
  Multiplicity = 1
  Basis Set: AUG-CC-PVTZ
    Blend: AUG-CC-PVTZ
  Basis Set: (AUG-CC-PVTZ AUX)
    Blend: AUG-CC-PVTZ-JKFIT

    Orbital Energies [Eh]
    ---------------------

    Doubly Occupied:

       1A    -20.396949     2A    -20.323325     3A    -20.310822
       4A    -15.447617     5A    -11.224814     6A    -11.165862
       7A    -11.133684     8A    -11.121719     9A    -11.104356
      10A     -1.257150    11A     -1.185773    12A     -1.105373
      13A     -1.082266    14A     -0.944756    15A     -0.829566
      16A     -0.750879    17A     -0.662524    18A     -0.584942
      19A     -0.538175    20A     -0.532259    21A     -0.513169
      22A     -0.488917    23A     -0.480872    24A     -0.422409
      25A     -0.420009    26A     -0.418512    27A     -0.415308
      28A     -0.399955    29A     -0.384938    30A     -0.350382
      31A     -0.301062    32A     -0.262546    33A     -0.234385
      34A     -0.218953    35A     -0.213347

  @DF-RHF Final Energy:  -473.28114880800223

   => Energetics <=

    Nuclear Repulsion Energy =            433.3073435144536916
    One-Electron Energy =               -1518.7218386329909663
    Two-Electron Energy =                 612.1333463105348756
    Total Energy =                       -473.2811488080022855
  Basis Set: (AUG-CC-PVTZ AUX)
    Blend: AUG-CC-PVTZ-RI
    Molecular point group: c1

    Geometry (in Angstrom), charge = -1, multiplicity = 1:

       Center              X                  Y                   Z               Mass
    ------------   -----------------  -----------------  -----------------  -----------------
         O            1.660307450157    -1.427611330343    -0.007689576323    15.994914619570
         O           -2.369476549843     1.416190669657    -0.015250576323    15.994914619570
         O           -3.432190549843    -0.585363330343    -0.026651576323    15.994914619570
         N            0.090285450157     0.235779669657     0.016016423677    14.003074004430
         C            2.432146450157     0.859340669657     0.002100423677    12.000000000000
         C            1.334366350157    -0.246379730343     0.004471523677    12.000000000000
         C           -1.013238149843    -0.663985630343     0.017802323677    12.000000000000
         C            3.821410450157     0.255079669657    -0.011257576323    12.000000000000
         C           -2.402457549843     0.150189669657     0.032518423677    12.000000000000
         H            2.269716450157     1.518019669657    -0.862015576323     1.007825032230
         H            2.282633450157     1.509208669657     0.875052423677     1.007825032230
         H           -1.046821549843    -1.285662330343    -0.856856576323     1.007825032230
         H           -1.034662549843    -1.296437330343     0.885122423677     1.007825032230
         H           -0.178132549843     1.217906669657     0.024193423677     1.007825032230
         H            3.971308450157    -0.371759330343     0.868300423677     1.007825032230
         H            3.958002450157    -0.362868330343    -0.899321576323     1.007825032230
         H            4.571882450157     1.049051669657    -0.013325576323     1.007825032230

  Basis Set: AUG-CC-PVTZ
    Blend: AUG-CC-PVTZ
  Basis Set: (AUG-CC-PVTZ AUX)
    Blend: AUG-CC-PVTZ-JKFIT
	 Reference Energy          =    -473.2811488080022286 [Eh]
	 Singles Energy            =      -0.0000000000000000 [Eh]
	 Same-Spin Energy          =      -0.4753957178438022 [Eh]
	 Opposite-Spin Energy      =      -1.4639033460223270 [Eh]
	 Correlation Energy        =      -1.9392990638661292 [Eh]
	 Total Energy              =    -475.2204478718683731 [Eh]

	 ================> DF-SCS-MP2 Energies <==================
	-----------------------------------------------------------
	 SCS Same-Spin Scale       =       0.3333333333333333 [-]
	 SCS Opposite-Spin Scale   =       1.2000000000000000 [-]
	 SCS Same-Spin Energy      =      -0.1584652392812674 [Eh]
	 SCS Opposite-Spin Energy  =      -1.7566840152267924 [Eh]
	 SCS Correlation Energy    =      -1.9151492545080597 [Eh]
	 SCS Total Energy          =    -475.1962980625102659 [Eh]
	-----------------------------------------------------------

  Dipole Moment: [D]
     X:     9.8156      Y:     1.3105      Z:     0.1348     Total:     9.9036

*** Psi4 exiting successfully. Buy a developer a beer!
