                               Psi4 1.3.2 release

  ==> Input File <==

--------------------------------------------------------------------------
#psi4
#
memory 32 gb

molecule  {
-1 1
  O        1.5553730    -1.4489990    -0.0078940
  O       -2.4744110     1.3948030    -0.0154550
  O       -3.5371250    -0.6067510    -0.0268560
  N       -0.0146490     0.2143920     0.0158120
  C        2.3272120     0.8379530     0.0018960
  C        1.2271341    -0.2050153     0.0046693
  C       -1.1489000    -0.6463140     0.0180560
  C        3.7268110     0.2580308    -0.0114135
  C       -2.5073920     0.1288020     0.0323140
  H        2.1647820     1.4966320    -0.8622200
  H        2.1776990     1.4878210     0.8748480
  H       -1.1517560    -1.3070500    -0.8570610
  H       -1.1395970    -1.3178250     0.8849180
  H       -0.2830670     1.1965190     0.0239890
  H        3.8663740    -0.3931470     0.8680960
  H        3.8530680    -0.3842560    -0.8995260
  H        4.4669480     1.0276640    -0.0135300
units angstrom
no_reorient  #important for SAPT in psi4, default
symmetry c1  #important for SAPT in psi4, default
}

set PROPERTIES_ORIGIN ["COM"]
properties('MP2/aug-cc-pvtz', properties = ['dipole'])
--------------------------------------------------------------------------

    Molecular point group: c1
  Charge       = -1
  Multiplicity = 1
  Basis Set: AUG-CC-PVTZ
    Blend: AUG-CC-PVTZ
  Basis Set: (AUG-CC-PVTZ AUX)
    Blend: AUG-CC-PVTZ-JKFIT

    Orbital Energies [Eh]
    ---------------------

    Doubly Occupied:

       1A    -20.385320     2A    -20.324392     3A    -20.312560
       4A    -15.456584     5A    -11.226628     6A    -11.166698
       7A    -11.137778     8A    -11.123443     9A    -11.111722
      10A     -1.224772    11A     -1.188331    12A     -1.106769
      13A     -1.084497    14A     -0.951513    15A     -0.841387
      16A     -0.760550    17A     -0.665222    18A     -0.590120
      19A     -0.546480    20A     -0.533591    21A     -0.507208
      22A     -0.485796    23A     -0.474014    24A     -0.430825
      25A     -0.426143    26A     -0.412373    27A     -0.410075
      28A     -0.397262    29A     -0.377309    30A     -0.342664
      31A     -0.298671    32A     -0.259637    33A     -0.237087
      34A     -0.226844    35A     -0.215050

  @DF-RHF Final Energy:  -473.27770821950753

   => Energetics <=

    Nuclear Repulsion Energy =            433.2697952587221835
    One-Electron Energy =               -1518.6163773865337134
    Two-Electron Energy =                 612.0688739083038854
    Total Energy =                       -473.2777082195075309
  Basis Set: (AUG-CC-PVTZ AUX)
    Blend: AUG-CC-PVTZ-RI
    Molecular point group: c1

    Geometry (in Angstrom), charge = -1, multiplicity = 1:

       Center              X                  Y                   Z               Mass
    ------------   -----------------  -----------------  -----------------  -----------------
         O            1.662401118166    -1.439251449782    -0.007773433032    15.994914619570
         O           -2.367382881834     1.404550550218    -0.015334433032    15.994914619570
         O           -3.430096881834    -0.597003449782    -0.026735433032    15.994914619570
         N            0.092379118166     0.224139550218     0.015932566968    14.003074004430
         C            2.434240118166     0.847700550218     0.002016566968    12.000000000000
         C            1.334162218166    -0.195267749782     0.004789866968    12.000000000000
         C           -1.041871881834    -0.636566449782     0.018176566968    12.000000000000
         C            3.833839118166     0.267778350218    -0.011292933032    12.000000000000
         C           -2.400363881834     0.138549550218     0.032434566968    12.000000000000
         H            2.271810118166     1.506379550218    -0.862099433032     1.007825032230
         H            2.284727118166     1.497568550218     0.874968566968     1.007825032230
         H           -1.044727881834    -1.297302449782    -0.856940433032     1.007825032230
         H           -1.032568881834    -1.308077449782     0.885038566968     1.007825032230
         H           -0.176038881834     1.206266550218     0.024109566968     1.007825032230
         H            3.973402118166    -0.383399449782     0.868216566968     1.007825032230
         H            3.960096118166    -0.374508449782    -0.899405433032     1.007825032230
         H            4.573976118166     1.037411550218    -0.013409433032     1.007825032230

  Basis Set: AUG-CC-PVTZ
    Blend: AUG-CC-PVTZ
  Basis Set: (AUG-CC-PVTZ AUX)
    Blend: AUG-CC-PVTZ-JKFIT
	 Reference Energy          =    -473.2777082195075309 [Eh]
	 Singles Energy            =      -0.0000000000000000 [Eh]
	 Same-Spin Energy          =      -0.4764929570383906 [Eh]
	 Opposite-Spin Energy      =      -1.4660845126785613 [Eh]
	 Correlation Energy        =      -1.9425774697169520 [Eh]
	 Total Energy              =    -475.2202856892245109 [Eh]

	 ================> DF-SCS-MP2 Energies <==================
	-----------------------------------------------------------
	 SCS Same-Spin Scale       =       0.3333333333333333 [-]
	 SCS Opposite-Spin Scale   =       1.2000000000000000 [-]
	 SCS Same-Spin Energy      =      -0.1588309856794635 [Eh]
	 SCS Opposite-Spin Energy  =      -1.7593014152142736 [Eh]
	 SCS Correlation Energy    =      -1.9181324008937373 [Eh]
	 SCS Total Energy          =    -475.1958406204012704 [Eh]
	-----------------------------------------------------------

  Dipole Moment: [D]
     X:     9.6875      Y:     1.7226      Z:     0.1390     Total:     9.8405

*** Psi4 exiting successfully. Buy a developer a beer!
