                               Psi4 1.4a3.dev225

  ==> Input File <==

--------------------------------------------------------------------------
#psi4
#
memory 32 gb

molecule  {
-1 1
  O       -1.5186010     1.5599430    -0.1433510
  O        2.2638970    -1.4295650    -0.0456660
  O        3.5317420     0.4486470     0.1950180
  N        0.0040180    -0.1295860    -0.1151350
  C       -2.3384940    -0.6954940    -0.4149760
  C       -1.2401210     0.2951588    -0.2128608
  C        1.1754880     0.7048690     0.0403840
  C       -3.5055210    -0.4701880     0.5431350
  C        2.4465640    -0.1793200     0.0655420
  H       -2.6873130    -0.6028840    -1.4504550
  H       -1.9319890    -1.7056860    -0.3020050
  H        1.2516430     1.4279040    -0.7806770
  H        1.1211640     1.2868180     0.9683990
  H        0.2309340    -1.1197490    -0.1755670
  H       -3.1861080    -0.6022700     1.5809140
  H       -3.8905480     0.5449040     0.4307430
  H       -4.3152940    -1.1768540     0.3431720
units angstrom
no_reorient  #important for SAPT in psi4, default
symmetry c1  #important for SAPT in psi4, default
}

set PROPERTIES_ORIGIN ["COM"]
properties('MP2/aug-cc-pvtz', properties = ['dipole'])
--------------------------------------------------------------------------

    Molecular point group: c1
  Charge       = -1
  Multiplicity = 1
  Basis Set: AUG-CC-PVTZ
    Blend: AUG-CC-PVTZ
  Basis Set: (AUG-CC-PVTZ AUX)
    Blend: AUG-CC-PVTZ-JKFIT

    Orbital Energies [Eh]
    ---------------------

    Doubly Occupied:

       1A    -20.376229     2A    -20.325016     3A    -20.316160
       4A    -15.453214     5A    -11.221402     6A    -11.166498
       7A    -11.136906     8A    -11.128554     9A    -11.113051
      10A     -1.214393    11A     -1.191300    12A     -1.099349
      13A     -1.084717    14A     -0.953173    15A     -0.839000
      16A     -0.765646    17A     -0.656475    18A     -0.587675
      19A     -0.546839    20A     -0.529546    21A     -0.503352
      22A     -0.485834    23A     -0.467217    24A     -0.438899
      25A     -0.428906    26A     -0.419362    27A     -0.402978
      28A     -0.395190    29A     -0.377072    30A     -0.341868
      31A     -0.292792    32A     -0.256126    33A     -0.241160
      34A     -0.228768    35A     -0.218455

  @DF-RHF Final Energy:  -473.28098438557316

   => Energetics <=

    Nuclear Repulsion Energy =            435.1641540397350809
    One-Electron Energy =               -1522.4840325636027956
    Two-Electron Energy =                 614.0388941382946086
    Total Energy =                       -473.2809843855732197
  Basis Set: (AUG-CC-PVTZ AUX)
    Blend: AUG-CC-PVTZ-RI
    Molecular point group: c1

    Geometry (in Angstrom), charge = -1, multiplicity = 1:

       Center              X                  Y                   Z               Mass
    ------------   -----------------  -----------------  -----------------  -----------------
         O           -1.621712462263     1.549607747117    -0.138412643153    15.994914619570
         O            2.160785537737    -1.439900252883    -0.040727643153    15.994914619570
         O            3.428630537737     0.438311747117     0.199956356847    15.994914619570
         N           -0.099093462263    -0.139921252883    -0.110196643153    14.003074004430
         C           -2.441605462263    -0.705829252883    -0.410037643153    12.000000000000
         C           -1.343232462263     0.284823547117    -0.207922443153    12.000000000000
         C            1.072376537737     0.694533747117     0.045322356847    12.000000000000
         C           -3.608632462263    -0.480523252883     0.548073356847    12.000000000000
         C            2.343452537737    -0.189655252883     0.070480356847    12.000000000000
         H           -2.790424462263    -0.613219252883    -1.445516643153     1.007825032230
         H           -2.035100462263    -1.716021252883    -0.297066643153     1.007825032230
         H            1.148531537737     1.417568747117    -0.775738643153     1.007825032230
         H            1.018052537737     1.276482747117     0.973337356847     1.007825032230
         H            0.127822537737    -1.130084252883    -0.170628643153     1.007825032230
         H           -3.289219462263    -0.612605252883     1.585852356847     1.007825032230
         H           -3.993659462263     0.534568747117     0.435681356847     1.007825032230
         H           -4.418405462263    -1.187189252883     0.348110356847     1.007825032230

  Basis Set: AUG-CC-PVTZ
    Blend: AUG-CC-PVTZ
  Basis Set: (AUG-CC-PVTZ AUX)
    Blend: AUG-CC-PVTZ-JKFIT
	 Reference Energy          =    -473.2809843855731629 [Eh]
	 Singles Energy            =      -0.0000000000000000 [Eh]
	 Same-Spin Energy          =      -0.4767178461106311 [Eh]
	 Opposite-Spin Energy      =      -1.4666318482834582 [Eh]
	 Correlation Energy        =      -1.9433496943940893 [Eh]
	 Total Energy              =    -475.2243340799672637 [Eh]

	 ================> DF-SCS-MP2 Energies <==================
	-----------------------------------------------------------
	 SCS Same-Spin Scale       =       0.3333333333333333 [-]
	 SCS Opposite-Spin Scale   =       1.2000000000000000 [-]
	 SCS Same-Spin Energy      =      -0.1589059487035437 [Eh]
	 SCS Opposite-Spin Energy  =      -1.7599582179401498 [Eh]
	 SCS Correlation Energy    =      -1.9188641666436934 [Eh]
	 SCS Total Energy          =    -475.1998485522168494 [Eh]
	-----------------------------------------------------------

  Dipole Moment: [D]
     X:    -9.1397      Y:    -1.4587      Z:    -0.4055     Total:     9.2643

*** Psi4 exiting successfully. Buy a developer a beer!
