                               Psi4 1.4a3.dev225

  ==> Input File <==

--------------------------------------------------------------------------
#psi4
#
memory 32 gb

molecule  {
-1 1
  O       -1.5186010     1.5599430    -0.1433510
  O        2.2638970    -1.4295650    -0.0456660
  O        3.5317420     0.4486470     0.1950180
  N        0.0040180    -0.1295860    -0.1151350
  C       -2.3384940    -0.6954940    -0.4149760
  C       -1.2975205     0.3615266    -0.2137154
  C        1.1754880     0.7048690     0.0403840
  C       -3.5055210    -0.4701880     0.5431350
  C        2.4465640    -0.1793200     0.0655420
  H       -2.6873130    -0.6028840    -1.4504550
  H       -1.9319890    -1.7056860    -0.3020050
  H        1.2516430     1.4279040    -0.7806770
  H        1.1211640     1.2868180     0.9683990
  H        0.2309340    -1.1197490    -0.1755670
  H       -3.1861080    -0.6022700     1.5809140
  H       -3.8905480     0.5449040     0.4307430
  H       -4.3152940    -1.1768540     0.3431720
units angstrom
no_reorient  #important for SAPT in psi4, default
symmetry c1  #important for SAPT in psi4, default
}

set PROPERTIES_ORIGIN ["COM"]
properties('MP2/aug-cc-pvtz', properties = ['dipole'])
--------------------------------------------------------------------------

    Molecular point group: c1
  Charge       = -1
  Multiplicity = 1
  Basis Set: AUG-CC-PVTZ
    Blend: AUG-CC-PVTZ
  Basis Set: (AUG-CC-PVTZ AUX)
    Blend: AUG-CC-PVTZ-JKFIT

    Orbital Energies [Eh]
    ---------------------

    Doubly Occupied:

       1A    -20.396563     2A    -20.318777     3A    -20.310516
       4A    -15.435602     5A    -11.225293     6A    -11.160183
       7A    -11.136673     8A    -11.130311     9A    -11.103881
      10A     -1.256278    11A     -1.186923    12A     -1.090216
      13A     -1.069420    14A     -0.955469    15A     -0.824800
      16A     -0.759804    17A     -0.643537    18A     -0.586023
      19A     -0.546319    20A     -0.527431    21A     -0.502843
      22A     -0.485489    23A     -0.474102    24A     -0.439562
      25A     -0.428026    26A     -0.421031    27A     -0.410019
      28A     -0.392807    29A     -0.383137    30A     -0.344963
      31A     -0.304942    32A     -0.249758    33A     -0.235140
      34A     -0.222085    35A     -0.212162

  @DF-RHF Final Energy:  -473.28453610416506

   => Energetics <=

    Nuclear Repulsion Energy =            435.0266257586412735
    One-Electron Energy =               -1522.2821535861544362
    Two-Electron Energy =                 613.9709917233479928
    Total Energy =                       -473.2845361041651131
  Basis Set: (AUG-CC-PVTZ AUX)
    Blend: AUG-CC-PVTZ-RI
    Molecular point group: c1

    Geometry (in Angstrom), charge = -1, multiplicity = 1:

       Center              X                  Y                   Z               Mass
    ------------   -----------------  -----------------  -----------------  -----------------
         O           -1.616416100975     1.543483863691    -0.138333787582    15.994914619570
         O            2.166081899025    -1.446024136309    -0.040648787582    15.994914619570
         O            3.433926899025     0.432187863691     0.200035212418    15.994914619570
         N           -0.093797100975    -0.146045136309    -0.110117787582    14.003074004430
         C           -2.436309100975    -0.711953136309    -0.409958787582    12.000000000000
         C           -1.395335600975     0.345067463691    -0.208698187582    12.000000000000
         C            1.077672899025     0.688409863691     0.045401212418    12.000000000000
         C           -3.603336100975    -0.486647136309     0.548152212418    12.000000000000
         C            2.348748899025    -0.195779136309     0.070559212418    12.000000000000
         H           -2.785128100975    -0.619343136309    -1.445437787582     1.007825032230
         H           -2.029804100975    -1.722145136309    -0.296987787582     1.007825032230
         H            1.153827899025     1.411444863691    -0.775659787582     1.007825032230
         H            1.023348899025     1.270358863691     0.973416212418     1.007825032230
         H            0.133118899025    -1.136208136309    -0.170549787582     1.007825032230
         H           -3.283923100975    -0.618729136309     1.585931212418     1.007825032230
         H           -3.988363100975     0.528444863691     0.435760212418     1.007825032230
         H           -4.413109100975    -1.193313136309     0.348189212418     1.007825032230

  Basis Set: AUG-CC-PVTZ
    Blend: AUG-CC-PVTZ
  Basis Set: (AUG-CC-PVTZ AUX)
    Blend: AUG-CC-PVTZ-JKFIT
	 Reference Energy          =    -473.2845361041650563 [Eh]
	 Singles Energy            =      -0.0000000000000000 [Eh]
	 Same-Spin Energy          =      -0.4757821891835234 [Eh]
	 Opposite-Spin Energy      =      -1.4645933735656143 [Eh]
	 Correlation Energy        =      -1.9403755627491377 [Eh]
	 Total Energy              =    -475.2249116669141813 [Eh]

	 ================> DF-SCS-MP2 Energies <==================
	-----------------------------------------------------------
	 SCS Same-Spin Scale       =       0.3333333333333333 [-]
	 SCS Opposite-Spin Scale   =       1.2000000000000000 [-]
	 SCS Same-Spin Energy      =      -0.1585940630611745 [Eh]
	 SCS Opposite-Spin Energy  =      -1.7575120482787370 [Eh]
	 SCS Correlation Energy    =      -1.9161061113399114 [Eh]
	 SCS Total Energy          =    -475.2006422155049563 [Eh]
	-----------------------------------------------------------

  Dipole Moment: [D]
     X:    -9.8418      Y:    -0.9679      Z:    -0.4422     Total:     9.8992

*** Psi4 exiting successfully. Buy a developer a beer!
