                               Psi4 1.4a3.dev225

  ==> Input File <==

--------------------------------------------------------------------------
#psi4
#
memory 32 gb

molecule  {
-1 1
  O       -1.5186010     1.5599430    -0.1433510
  O        2.2638970    -1.4295650    -0.0456660
  O        3.5317420     0.4486470     0.1950180
  N        0.0040180    -0.1295860    -0.1151350
  C       -2.3384940    -0.6954940    -0.4149760
  C       -1.2651839     0.3302273    -0.2128787
  C        1.1754880     0.7048690     0.0403840
  C       -3.5055210    -0.4701880     0.5431350
  C        2.4465640    -0.1793200     0.0655420
  H       -2.6873130    -0.6028840    -1.4504550
  H       -1.9319890    -1.7056860    -0.3020050
  H        1.2516430     1.4279040    -0.7806770
  H        1.1211640     1.2868180     0.9683990
  H        0.2309340    -1.1197490    -0.1755670
  H       -3.1861080    -0.6022700     1.5809140
  H       -3.8905480     0.5449040     0.4307430
  H       -4.3152940    -1.1768540     0.3431720
units angstrom
no_reorient  #important for SAPT in psi4, default
symmetry c1  #important for SAPT in psi4, default
}

set PROPERTIES_ORIGIN ["COM"]
properties('MP2/aug-cc-pvtz', properties = ['dipole'])
--------------------------------------------------------------------------

    Molecular point group: c1
  Charge       = -1
  Multiplicity = 1
  Basis Set: AUG-CC-PVTZ
    Blend: AUG-CC-PVTZ
  Basis Set: (AUG-CC-PVTZ AUX)
    Blend: AUG-CC-PVTZ-JKFIT

    Orbital Energies [Eh]
    ---------------------

    Doubly Occupied:

       1A    -20.386289     2A    -20.322092     3A    -20.313479
       4A    -15.444855     5A    -11.223327     6A    -11.163505
       7A    -11.136463     8A    -11.129140     9A    -11.108633
      10A     -1.232393    11A     -1.189875    12A     -1.095423
      13A     -1.079290    14A     -0.953555    15A     -0.831720
      16A     -0.762512    17A     -0.650172    18A     -0.586179
      19A     -0.546529    20A     -0.528014    21A     -0.500938
      22A     -0.483712    23A     -0.474125    24A     -0.438471
      25A     -0.427468    26A     -0.420208    27A     -0.407502
      28A     -0.394875    29A     -0.378820    30A     -0.344169
      31A     -0.299668    32A     -0.254413    33A     -0.238390
      34A     -0.225628    35A     -0.215550

  @DF-RHF Final Energy:  -473.28589631877639

   => Energetics <=

    Nuclear Repulsion Energy =            435.1021052870049175
    One-Electron Energy =               -1522.4012412167082857
    Two-Electron Energy =                 614.0132396109270303
    Total Energy =                       -473.2858963187763948
  Basis Set: (AUG-CC-PVTZ AUX)
    Blend: AUG-CC-PVTZ-RI
    Molecular point group: c1

    Geometry (in Angstrom), charge = -1, multiplicity = 1:

       Center              X                  Y                   Z               Mass
    ------------   -----------------  -----------------  -----------------  -----------------
         O           -1.619399860701     1.546371909769    -0.138410991486    15.994914619570
         O            2.163098139299    -1.443136090231    -0.040725991486    15.994914619570
         O            3.430943139299     0.435075909769     0.199958008514    15.994914619570
         N           -0.096780860701    -0.143157090231    -0.110194991486    14.003074004430
         C           -2.439292860701    -0.709065090231    -0.410035991486    12.000000000000
         C           -1.365982760701     0.316656209769    -0.207938691486    12.000000000000
         C            1.074689139299     0.691297909769     0.045324008514    12.000000000000
         C           -3.606319860701    -0.483759090231     0.548075008514    12.000000000000
         C            2.345765139299    -0.192891090231     0.070482008514    12.000000000000
         H           -2.788111860701    -0.616455090231    -1.445514991486     1.007825032230
         H           -2.032787860701    -1.719257090231    -0.297064991486     1.007825032230
         H            1.150844139299     1.414332909769    -0.775736991486     1.007825032230
         H            1.020365139299     1.273246909769     0.973339008514     1.007825032230
         H            0.130135139299    -1.133320090231    -0.170626991486     1.007825032230
         H           -3.286906860701    -0.615841090231     1.585854008514     1.007825032230
         H           -3.991346860701     0.531332909769     0.435683008514     1.007825032230
         H           -4.416092860701    -1.190425090231     0.348112008514     1.007825032230

  Basis Set: AUG-CC-PVTZ
    Blend: AUG-CC-PVTZ
  Basis Set: (AUG-CC-PVTZ AUX)
    Blend: AUG-CC-PVTZ-JKFIT
	 Reference Energy          =    -473.2858963187763948 [Eh]
	 Singles Energy            =      -0.0000000000000000 [Eh]
	 Same-Spin Energy          =      -0.4762009428460540 [Eh]
	 Opposite-Spin Energy      =      -1.4654978417832614 [Eh]
	 Correlation Energy        =      -1.9416987846293154 [Eh]
	 Total Energy              =    -475.2275951034056902 [Eh]

	 ================> DF-SCS-MP2 Energies <==================
	-----------------------------------------------------------
	 SCS Same-Spin Scale       =       0.3333333333333333 [-]
	 SCS Opposite-Spin Scale   =       1.2000000000000000 [-]
	 SCS Same-Spin Energy      =      -0.1587336476153513 [Eh]
	 SCS Opposite-Spin Energy  =      -1.7585974101399136 [Eh]
	 SCS Correlation Energy    =      -1.9173310577552649 [Eh]
	 SCS Total Energy          =    -475.2032273765316859 [Eh]
	-----------------------------------------------------------

  Dipole Moment: [D]
     X:    -9.4588      Y:    -1.2086      Z:    -0.4213     Total:     9.5450

*** Psi4 exiting successfully. Buy a developer a beer!
