                               Psi4 1.4a3.dev225

  ==> Input File <==

--------------------------------------------------------------------------
#psi4
#
memory 32 gb

molecule  {
-1 1
  O       -1.5186010     1.5599430    -0.1433510
  O        2.2638970    -1.4295650    -0.0456660
  O        3.5317420     0.4486470     0.1950180
  N        0.0040180    -0.1295860    -0.1151350
  C       -2.3384940    -0.6954940    -0.4149760
  C       -1.2508570     0.3439190    -0.2101810
  C        1.1754880     0.7048690     0.0403840
  C       -3.5055210    -0.4701880     0.5431350
  C        2.4465640    -0.1793200     0.0655420
  H       -2.6873130    -0.6028840    -1.4504550
  H       -1.9319890    -1.7056860    -0.3020050
  H        1.2516430     1.4279040    -0.7806770
  H        1.1236406     1.2602870     0.9260909
  H        0.2309340    -1.1197490    -0.1755670
  H       -3.1861080    -0.6022700     1.5809140
  H       -3.8905480     0.5449040     0.4307430
  H       -4.3152940    -1.1768540     0.3431720
units angstrom
no_reorient  #important for SAPT in psi4, default
symmetry c1  #important for SAPT in psi4, default
}

set PROPERTIES_ORIGIN ["COM"]
properties('MP2/aug-cc-pvtz', properties = ['dipole'])
--------------------------------------------------------------------------

    Molecular point group: c1
  Charge       = -1
  Multiplicity = 1
  Basis Set: AUG-CC-PVTZ
    Blend: AUG-CC-PVTZ
  Basis Set: (AUG-CC-PVTZ AUX)
    Blend: AUG-CC-PVTZ-JKFIT

    Orbital Energies [Eh]
    ---------------------

    Doubly Occupied:

       1A    -20.386864     2A    -20.322365     3A    -20.313867
       4A    -15.444420     5A    -11.221792     6A    -11.163534
       7A    -11.135147     8A    -11.127725     9A    -11.102778
      10A     -1.238194    11A     -1.190339    12A     -1.097132
      13A     -1.081729    14A     -0.949528    15A     -0.834036
      16A     -0.761189    17A     -0.653486    18A     -0.585305
      19A     -0.545025    20A     -0.528689    21A     -0.502056
      22A     -0.488672    23A     -0.476248    24A     -0.438382
      25A     -0.427965    26A     -0.419825    27A     -0.407445
      28A     -0.395641    29A     -0.380792    30A     -0.346840
      31A     -0.298412    32A     -0.256837    33A     -0.238830
      34A     -0.225710    35A     -0.216092

  @DF-RHF Final Energy:  -473.28730253771454

   => Energetics <=

    Nuclear Repulsion Energy =            435.4924399338581225
    One-Electron Energy =               -1523.1536987447441334
    Two-Electron Energy =                 614.3739562731714159
    Total Energy =                       -473.2873025377145950
  Basis Set: (AUG-CC-PVTZ AUX)
    Blend: AUG-CC-PVTZ-RI
    Molecular point group: c1

    Geometry (in Angstrom), charge = -1, multiplicity = 1:

       Center              X                  Y                   Z               Mass
    ------------   -----------------  -----------------  -----------------  -----------------
         O           -1.620741023475     1.545314152355    -0.138332047009    15.994914619570
         O            2.161756976525    -1.444193847645    -0.040647047009    15.994914619570
         O            3.429601976525     0.434018152355     0.200036952991    15.994914619570
         N           -0.098122023475    -0.144214847645    -0.110116047009    14.003074004430
         C           -2.440634023475    -0.710122847645    -0.409957047009    12.000000000000
         C           -1.352997023475     0.329290152355    -0.205162047009    12.000000000000
         C            1.073347976525     0.690240152355     0.045402952991    12.000000000000
         C           -3.607661023475    -0.484816847645     0.548153952991    12.000000000000
         C            2.344423976525    -0.193948847645     0.070560952991    12.000000000000
         H           -2.789453023475    -0.617512847645    -1.445436047009     1.007825032230
         H           -2.034129023475    -1.720314847645    -0.296986047009     1.007825032230
         H            1.149502976525     1.413275152355    -0.775658047009     1.007825032230
         H            1.021500576525     1.245658152355     0.931109852991     1.007825032230
         H            0.128793976525    -1.134377847645    -0.170548047009     1.007825032230
         H           -3.288248023475    -0.616898847645     1.585932952991     1.007825032230
         H           -3.992688023475     0.530275152355     0.435761952991     1.007825032230
         H           -4.417434023475    -1.191482847645     0.348190952991     1.007825032230

  Basis Set: AUG-CC-PVTZ
    Blend: AUG-CC-PVTZ
  Basis Set: (AUG-CC-PVTZ AUX)
    Blend: AUG-CC-PVTZ-JKFIT
	 Reference Energy          =    -473.2873025377145382 [Eh]
	 Singles Energy            =      -0.0000000000000000 [Eh]
	 Same-Spin Energy          =      -0.4757773607222875 [Eh]
	 Opposite-Spin Energy      =      -1.4644775775222501 [Eh]
	 Correlation Energy        =      -1.9402549382445375 [Eh]
	 Total Energy              =    -475.2275574759590882 [Eh]

	 ================> DF-SCS-MP2 Energies <==================
	-----------------------------------------------------------
	 SCS Same-Spin Scale       =       0.3333333333333333 [-]
	 SCS Opposite-Spin Scale   =       1.2000000000000000 [-]
	 SCS Same-Spin Energy      =      -0.1585924535740958 [Eh]
	 SCS Opposite-Spin Energy  =      -1.7573730930267000 [Eh]
	 SCS Correlation Energy    =      -1.9159655466007959 [Eh]
	 SCS Total Energy          =    -475.2032680843153116 [Eh]
	-----------------------------------------------------------

  Dipole Moment: [D]
     X:    -9.3694      Y:    -1.1241      Z:    -0.3952     Total:     9.4449

*** Psi4 exiting successfully. Buy a developer a beer!
