                               Psi4 1.3.2 release

  ==> Input File <==

--------------------------------------------------------------------------
#psi4
#
memory 32 gb

molecule  {
-1 1
  O        1.5553730    -1.4489990    -0.0078940
  O       -2.4744110     1.3948030    -0.0154550
  O       -3.5371250    -0.6067510    -0.0268560
  N       -0.0146490     0.2143920     0.0158120
  C        2.3272120     0.8379530     0.0018960
  C        1.2209800    -0.1271134     0.0054118
  C       -1.1489000    -0.6463140     0.0180560
  C        3.7164760     0.2336920    -0.0114620
  C       -2.5073920     0.1288020     0.0323140
  H        2.1647820     1.4966320    -0.8622200
  H        2.1776990     1.4878210     0.8748480
  H       -1.1517560    -1.3070500    -0.8570610
  H       -1.1395970    -1.3178250     0.8849180
  H       -0.2830670     1.1965190     0.0239890
  H        3.8663740    -0.3931470     0.8680960
  H        3.8530680    -0.3842560    -0.8995260
  H        4.4669480     1.0276640    -0.0135300
units angstrom
no_reorient  #important for SAPT in psi4, default
symmetry c1  #important for SAPT in psi4, default
}

set PROPERTIES_ORIGIN ["COM"]
properties('MP2/aug-cc-pvtz', properties = ['dipole'])
--------------------------------------------------------------------------

    Molecular point group: c1
  Charge       = -1
  Multiplicity = 1
  Basis Set: AUG-CC-PVTZ
    Blend: AUG-CC-PVTZ
  Basis Set: (AUG-CC-PVTZ AUX)
    Blend: AUG-CC-PVTZ-JKFIT

    Orbital Energies [Eh]
    ---------------------

    Doubly Occupied:

       1A    -20.370479     2A    -20.327010     3A    -20.315295
       4A    -15.466930     5A    -11.225412     6A    -11.169741
       7A    -11.140725     8A    -11.124773     9A    -11.116699
      10A     -1.207102    11A     -1.187054    12A     -1.096390
      13A     -1.085956    14A     -0.958832    15A     -0.851639
      16A     -0.770934    17A     -0.668467    18A     -0.593596
      19A     -0.550995    20A     -0.540098    21A     -0.509031
      22A     -0.489942    23A     -0.457285    24A     -0.435943
      25A     -0.428844    26A     -0.418089    27A     -0.408983
      28A     -0.383200    29A     -0.375146    30A     -0.335658
      31A     -0.287756    32A     -0.255613    33A     -0.239430
      34A     -0.230052    35A     -0.217649

  @DF-RHF Final Energy:  -473.25772469915483

   => Energetics <=

    Nuclear Repulsion Energy =            433.2678472193565540
    One-Electron Energy =               -1518.5696465445414560
    Two-Electron Energy =                 612.0440746260300102
    Total Energy =                       -473.2577246991548918
  Basis Set: (AUG-CC-PVTZ AUX)
    Blend: AUG-CC-PVTZ-RI
    Molecular point group: c1

    Geometry (in Angstrom), charge = -1, multiplicity = 1:

       Center              X                  Y                   Z               Mass
    ------------   -----------------  -----------------  -----------------  -----------------
         O            1.663922598856    -1.444193819128    -0.007837469735    15.994914619570
         O           -2.365861401144     1.399608180872    -0.015398469735    15.994914619570
         O           -3.428575401144    -0.601945819128    -0.026799469735    15.994914619570
         N            0.093900598856     0.219197180872     0.015868530265    14.003074004430
         C            2.435761598856     0.842758180872     0.001952530265    12.000000000000
         C            1.329529598856    -0.122308219128     0.005468330265    12.000000000000
         C           -1.040350401144    -0.641508819128     0.018112530265    12.000000000000
         C            3.825025598856     0.238497180872    -0.011405469735    12.000000000000
         C           -2.398842401144     0.133607180872     0.032370530265    12.000000000000
         H            2.273331598856     1.501437180872    -0.862163469735     1.007825032230
         H            2.286248598856     1.492626180872     0.874904530265     1.007825032230
         H           -1.043206401144    -1.302244819128    -0.857004469735     1.007825032230
         H           -1.031047401144    -1.313019819128     0.884974530265     1.007825032230
         H           -0.174517401144     1.201324180872     0.024045530265     1.007825032230
         H            3.974923598856    -0.388341819128     0.868152530265     1.007825032230
         H            3.961617598856    -0.379450819128    -0.899469469735     1.007825032230
         H            4.575497598856     1.032469180872    -0.013473469735     1.007825032230

  Basis Set: AUG-CC-PVTZ
    Blend: AUG-CC-PVTZ
  Basis Set: (AUG-CC-PVTZ AUX)
    Blend: AUG-CC-PVTZ-JKFIT
	 Reference Energy          =    -473.2577246991548350 [Eh]
	 Singles Energy            =      -0.0000000000000000 [Eh]
	 Same-Spin Energy          =      -0.4779662305622287 [Eh]
	 Opposite-Spin Energy      =      -1.4691537744400980 [Eh]
	 Correlation Energy        =      -1.9471200050023267 [Eh]
	 Total Energy              =    -475.2048447041571535 [Eh]

	 ================> DF-SCS-MP2 Energies <==================
	-----------------------------------------------------------
	 SCS Same-Spin Scale       =       0.3333333333333333 [-]
	 SCS Opposite-Spin Scale   =       1.2000000000000000 [-]
	 SCS Same-Spin Energy      =      -0.1593220768540762 [Eh]
	 SCS Opposite-Spin Energy  =      -1.7629845293281174 [Eh]
	 SCS Correlation Energy    =      -1.9223066061821936 [Eh]
	 SCS Total Energy          =    -475.1800313053370246 [Eh]
	-----------------------------------------------------------

  Dipole Moment: [D]
     X:     9.4178      Y:     2.1389      Z:     0.1435     Total:     9.6587

*** Psi4 exiting successfully. Buy a developer a beer!
