                               Psi4 1.3.2 release

  ==> Input File <==

--------------------------------------------------------------------------
#psi4
#
memory 32 gb

molecule  {
-1 1
  O        1.5553730    -1.4489990    -0.0078940
  O       -2.4744110     1.3948030    -0.0154550
  O       -3.5371250    -0.6067510    -0.0268560
  N        0.0146964     0.1742841     0.0153543
  C        2.3272120     0.8379530     0.0018960
  C        1.2455030    -0.2240550     0.0044360
  C       -1.1489000    -0.6463140     0.0180560
  C        3.7164760     0.2336920    -0.0114620
  C       -2.5336176     0.0809178     0.0321866
  H        2.1647820     1.4966320    -0.8622200
  H        2.1776990     1.4878210     0.8748480
  H       -1.1517560    -1.3070500    -0.8570610
  H       -1.1395970    -1.3178250     0.8849180
  H       -0.2830670     1.1965190     0.0239890
  H        3.8663740    -0.3931470     0.8680960
  H        3.8530680    -0.3842560    -0.8995260
  H        4.4669480     1.0276640    -0.0135300
units angstrom
no_reorient  #important for SAPT in psi4, default
symmetry c1  #important for SAPT in psi4, default
}

set PROPERTIES_ORIGIN ["COM"]
properties('MP2/aug-cc-pvtz', properties = ['dipole'])
--------------------------------------------------------------------------

    Molecular point group: c1
  Charge       = -1
  Multiplicity = 1
  Basis Set: AUG-CC-PVTZ
    Blend: AUG-CC-PVTZ
  Basis Set: (AUG-CC-PVTZ AUX)
    Blend: AUG-CC-PVTZ-JKFIT

    Orbital Energies [Eh]
    ---------------------

    Doubly Occupied:

       1A    -20.380993     2A    -20.326850     3A    -20.312872
       4A    -15.454255     5A    -11.218531     6A    -11.167896
       7A    -11.135401     8A    -11.121977     9A    -11.111604
      10A     -1.234774    11A     -1.199768    12A     -1.106344
      13A     -1.075757    14A     -0.950312    15A     -0.842082
      16A     -0.758664    17A     -0.653086    18A     -0.589836
      19A     -0.549452    20A     -0.534953    21A     -0.504046
      22A     -0.486975    23A     -0.470702    24A     -0.430854
      25A     -0.425027    26A     -0.417353    27A     -0.412675
      28A     -0.388113    29A     -0.381966    30A     -0.346159
      31A     -0.297720    32A     -0.255784    33A     -0.235416
      34A     -0.227708    35A     -0.216471

  @DF-RHF Final Energy:  -473.27328840023682

   => Energetics <=

    Nuclear Repulsion Energy =            433.7477391252302255
    One-Electron Energy =               -1519.5973050475904529
    Two-Electron Energy =                 612.5762775221232914
    Total Energy =                       -473.2732884002368792
  Basis Set: (AUG-CC-PVTZ AUX)
    Blend: AUG-CC-PVTZ-RI
    Molecular point group: c1

    Geometry (in Angstrom), charge = -1, multiplicity = 1:

       Center              X                  Y                   Z               Mass
    ------------   -----------------  -----------------  -----------------  -----------------
         O            1.660919958699    -1.426511880653    -0.007686392889    15.994914619570
         O           -2.368864041301     1.417290119347    -0.015247392889    15.994914619570
         O           -3.431578041301    -0.584263880653    -0.026648392889    15.994914619570
         N            0.120243358699     0.196771219347     0.015561907111    14.003074004430
         C            2.432758958699     0.860440119347     0.002103607111    12.000000000000
         C            1.351049958699    -0.201567880653     0.004643607111    12.000000000000
         C           -1.043353041301    -0.623826880653     0.018263607111    12.000000000000
         C            3.822022958699     0.256179119347    -0.011254392889    12.000000000000
         C           -2.428070641301     0.103404919347     0.032394207111    12.000000000000
         H            2.270328958699     1.519119119347    -0.862012392889     1.007825032230
         H            2.283245958699     1.510308119347     0.875055607111     1.007825032230
         H           -1.046209041301    -1.284562880653    -0.856853392889     1.007825032230
         H           -1.034050041301    -1.295337880653     0.885125607111     1.007825032230
         H           -0.177520041301     1.219006119347     0.024196607111     1.007825032230
         H            3.971920958699    -0.370659880653     0.868303607111     1.007825032230
         H            3.958614958699    -0.361768880653    -0.899318392889     1.007825032230
         H            4.572494958699     1.050151119347    -0.013322392889     1.007825032230

  Basis Set: AUG-CC-PVTZ
    Blend: AUG-CC-PVTZ
  Basis Set: (AUG-CC-PVTZ AUX)
    Blend: AUG-CC-PVTZ-JKFIT
	 Reference Energy          =    -473.2732884002368223 [Eh]
	 Singles Energy            =      -0.0000000000000000 [Eh]
	 Same-Spin Energy          =      -0.4764392101320366 [Eh]
	 Opposite-Spin Energy      =      -1.4656796617431733 [Eh]
	 Correlation Energy        =      -1.9421188718752098 [Eh]
	 Total Energy              =    -475.2154072721120315 [Eh]

	 ================> DF-SCS-MP2 Energies <==================
	-----------------------------------------------------------
	 SCS Same-Spin Scale       =       0.3333333333333333 [-]
	 SCS Opposite-Spin Scale   =       1.2000000000000000 [-]
	 SCS Same-Spin Energy      =      -0.1588130700440122 [Eh]
	 SCS Opposite-Spin Energy  =      -1.7588155940918080 [Eh]
	 SCS Correlation Energy    =      -1.9176286641358202 [Eh]
	 SCS Total Energy          =    -475.1909170643726270 [Eh]
	-----------------------------------------------------------

  Dipole Moment: [D]
     X:     9.2926      Y:     1.1798      Z:     0.1362     Total:     9.3682

*** Psi4 exiting successfully. Buy a developer a beer!
