                               Psi4 1.4a3.dev225

  ==> Input File <==

--------------------------------------------------------------------------
#psi4
#
memory 32 gb

molecule  {
-1 1
  O       -1.5186010     1.5599430    -0.1433510
  O        2.2638970    -1.4295650    -0.0456660
  O        3.5317420     0.4486470     0.1950180
  N        0.0040180    -0.1295860    -0.1151350
  C       -2.3384940    -0.6954940    -0.4149760
  C       -1.2508570     0.3439190    -0.2101810
  C        1.1754880     0.7048690     0.0403840
  C       -3.5055210    -0.4701880     0.5431350
  C        2.4035165    -0.2042306     0.0604059
  H       -2.6873130    -0.6028840    -1.4504550
  H       -1.9319890    -1.7056860    -0.3020050
  H        1.2516430     1.4279040    -0.7806770
  H        1.1211640     1.2868180     0.9683990
  H        0.2309340    -1.1197490    -0.1755670
  H       -3.1861080    -0.6022700     1.5809140
  H       -3.8905480     0.5449040     0.4307430
  H       -4.3152940    -1.1768540     0.3431720
units angstrom
no_reorient  #important for SAPT in psi4, default
symmetry c1  #important for SAPT in psi4, default
}

set PROPERTIES_ORIGIN ["COM"]
properties('MP2/aug-cc-pvtz', properties = ['dipole'])
--------------------------------------------------------------------------

    Molecular point group: c1
  Charge       = -1
  Multiplicity = 1
  Basis Set: AUG-CC-PVTZ
    Blend: AUG-CC-PVTZ
  Basis Set: (AUG-CC-PVTZ AUX)
    Blend: AUG-CC-PVTZ-JKFIT

    Orbital Energies [Eh]
    ---------------------

    Doubly Occupied:

       1A    -20.389146     2A    -20.332429     3A    -20.302211
       4A    -15.447147     5A    -11.223903     6A    -11.163762
       7A    -11.136820     8A    -11.129056     9A    -11.111404
      10A     -1.240494    11A     -1.196490    12A     -1.092220
      13A     -1.072289    14A     -0.951240    15A     -0.835878
      16A     -0.762293    17A     -0.655750    18A     -0.588726
      19A     -0.546507    20A     -0.529338    21A     -0.505263
      22A     -0.488048    23A     -0.477686    24A     -0.439021
      25A     -0.428683    26A     -0.416268    27A     -0.408772
      28A     -0.395390    29A     -0.381730    30A     -0.345781
      31A     -0.299837    32A     -0.258845    33A     -0.241203
      34A     -0.219851    35A     -0.209325

  @DF-RHF Final Energy:  -473.28234416625520

   => Energetics <=

    Nuclear Repulsion Energy =            435.4997710563879991
    One-Electron Energy =               -1523.1186253027810835
    Two-Electron Energy =                 614.3365100801379413
    Total Energy =                       -473.2823441662551431
  Basis Set: (AUG-CC-PVTZ AUX)
    Blend: AUG-CC-PVTZ-RI
    Molecular point group: c1

    Geometry (in Angstrom), charge = -1, multiplicity = 1:

       Center              X                  Y                   Z               Mass
    ------------   -----------------  -----------------  -----------------  -----------------
         O           -1.616749756188     1.547407099059    -0.138185995670    15.994914619570
         O            2.165748243812    -1.442100900941    -0.040500995670    15.994914619570
         O            3.433593243812     0.436111099059     0.200183004330    15.994914619570
         N           -0.094130756188    -0.142121900941    -0.109969995670    14.003074004430
         C           -2.436642756188    -0.708029900941    -0.409810995670    12.000000000000
         C           -1.349005756188     0.331383099059    -0.205015995670    12.000000000000
         C            1.077339243812     0.692333099059     0.045549004330    12.000000000000
         C           -3.603669756188    -0.482723900941     0.548300004330    12.000000000000
         C            2.305367743812    -0.216766500941     0.065570904330    12.000000000000
         H           -2.785461756188    -0.615419900941    -1.445289995670     1.007825032230
         H           -2.030137756188    -1.718221900941    -0.296839995670     1.007825032230
         H            1.153494243812     1.415368099059    -0.775511995670     1.007825032230
         H            1.023015243812     1.274282099059     0.973564004330     1.007825032230
         H            0.132785243812    -1.132284900941    -0.170401995670     1.007825032230
         H           -3.284256756188    -0.614805900941     1.586079004330     1.007825032230
         H           -3.988696756188     0.532368099059     0.435908004330     1.007825032230
         H           -4.413442756188    -1.189389900941     0.348337004330     1.007825032230

  Basis Set: AUG-CC-PVTZ
    Blend: AUG-CC-PVTZ
  Basis Set: (AUG-CC-PVTZ AUX)
    Blend: AUG-CC-PVTZ-JKFIT
	 Reference Energy          =    -473.2823441662552000 [Eh]
	 Singles Energy            =      -0.0000000000000000 [Eh]
	 Same-Spin Energy          =      -0.4762251290905741 [Eh]
	 Opposite-Spin Energy      =      -1.4656749645766962 [Eh]
	 Correlation Energy        =      -1.9419000936672703 [Eh]
	 Total Energy              =    -475.2242442599224432 [Eh]

	 ================> DF-SCS-MP2 Energies <==================
	-----------------------------------------------------------
	 SCS Same-Spin Scale       =       0.3333333333333333 [-]
	 SCS Opposite-Spin Scale   =       1.2000000000000000 [-]
	 SCS Same-Spin Energy      =      -0.1587417096968580 [Eh]
	 SCS Opposite-Spin Energy  =      -1.7588099574920355 [Eh]
	 SCS Correlation Energy    =      -1.9175516671888935 [Eh]
	 SCS Total Energy          =    -475.1998958334440886 [Eh]
	-----------------------------------------------------------

  Dipole Moment: [D]
     X:    -9.8175      Y:    -1.4358      Z:    -0.4658     Total:     9.9329

*** Psi4 exiting successfully. Buy a developer a beer!
