                               Psi4 1.3.2 release

  ==> Input File <==

--------------------------------------------------------------------------
#psi4
#
memory 32 gb

molecule  {
-1 1
  O        1.5553730    -1.4489990    -0.0078940
  O       -2.4744110     1.3948030    -0.0154550
  O       -3.5371250    -0.6067510    -0.0268560
  N       -0.0146490     0.2143920     0.0158120
  C        2.3272120     0.8379530     0.0018960
  C        1.2455030    -0.2240550     0.0044360
  C       -1.3082218    -0.7672125     0.0183712
  C        3.7164760     0.2336920    -0.0114620
  C       -2.5073920     0.1288020     0.0323140
  H        2.1647820     1.4966320    -0.8622200
  H        2.1776990     1.4878210     0.8748480
  H       -1.1517560    -1.3070500    -0.8570610
  H       -1.1395970    -1.3178250     0.8849180
  H       -0.2830670     1.1965190     0.0239890
  H        3.8663740    -0.3931470     0.8680960
  H        3.8530680    -0.3842560    -0.8995260
  H        4.4669480     1.0276640    -0.0135300
units angstrom
no_reorient  #important for SAPT in psi4, default
symmetry c1  #important for SAPT in psi4, default
}

set PROPERTIES_ORIGIN ["COM"]
properties('MP2/aug-cc-pvtz', properties = ['dipole'])
--------------------------------------------------------------------------

    Molecular point group: c1
  Charge       = -1
  Multiplicity = 1
  Basis Set: AUG-CC-PVTZ
    Blend: AUG-CC-PVTZ
  Basis Set: (AUG-CC-PVTZ AUX)
    Blend: AUG-CC-PVTZ-JKFIT

    Orbital Energies [Eh]
    ---------------------

    Doubly Occupied:

       1A    -20.381048     2A    -20.328740     3A    -20.313556
       4A    -15.437692     5A    -11.217266     6A    -11.166755
       7A    -11.130567     8A    -11.121698     9A    -11.119049
      10A     -1.222325    11A     -1.194028    12A     -1.091433
      13A     -1.063054    14A     -0.943544    15A     -0.839851
      16A     -0.761921    17A     -0.642417    18A     -0.584001
      19A     -0.546655    20A     -0.528437    21A     -0.498497
      22A     -0.490367    23A     -0.466553    24A     -0.439215
      25A     -0.422875    26A     -0.419477    27A     -0.409399
      28A     -0.376590    29A     -0.373485    30A     -0.353522
      31A     -0.293447    32A     -0.256114    33A     -0.244968
      34A     -0.228013    35A     -0.217177

  @DF-RHF Final Energy:  -473.26006313543184

   => Energetics <=

    Nuclear Repulsion Energy =            431.4071391898796719
    One-Electron Energy =               -1515.0869340623626158
    Two-Electron Energy =                 610.4197317370510518
    Total Energy =                       -473.2600631354318921
  Basis Set: (AUG-CC-PVTZ AUX)
    Blend: AUG-CC-PVTZ-RI
    Molecular point group: c1

    Geometry (in Angstrom), charge = -1, multiplicity = 1:

       Center              X                  Y                   Z               Mass
    ------------   -----------------  -----------------  -----------------  -----------------
         O            1.676360741104    -1.424093297824    -0.007776514913    15.994914619570
         O           -2.353423258896     1.419708702176    -0.015337514913    15.994914619570
         O           -3.416137258896    -0.581845297824    -0.026738514913    15.994914619570
         N            0.106338741104     0.239297702176     0.015929485087    14.003074004430
         C            2.448199741104     0.862858702176     0.002013485087    12.000000000000
         C            1.366490741104    -0.199149297824     0.004553485087    12.000000000000
         C           -1.187234058896    -0.742306797824     0.018488685087    12.000000000000
         C            3.837463741104     0.258597702176    -0.011344514913    12.000000000000
         C           -2.386404258896     0.153707702176     0.032431485087    12.000000000000
         H            2.285769741104     1.521537702176    -0.862102514913     1.007825032230
         H            2.298686741104     1.512726702176     0.874965485087     1.007825032230
         H           -1.030768258896    -1.282144297824    -0.856943514913     1.007825032230
         H           -1.018609258896    -1.292919297824     0.885035485087     1.007825032230
         H           -0.162079258896     1.221424702176     0.024106485087     1.007825032230
         H            3.987361741104    -0.368241297824     0.868213485087     1.007825032230
         H            3.974055741104    -0.359350297824    -0.899408514913     1.007825032230
         H            4.587935741104     1.052569702176    -0.013412514913     1.007825032230

  Basis Set: AUG-CC-PVTZ
    Blend: AUG-CC-PVTZ
  Basis Set: (AUG-CC-PVTZ AUX)
    Blend: AUG-CC-PVTZ-JKFIT
	 Reference Energy          =    -473.2600631354318352 [Eh]
	 Singles Energy            =      -0.0000000000000000 [Eh]
	 Same-Spin Energy          =      -0.4760506420426401 [Eh]
	 Opposite-Spin Energy      =      -1.4671951793888549 [Eh]
	 Correlation Energy        =      -1.9432458214314949 [Eh]
	 Total Energy              =    -475.2033089568633386 [Eh]

	 ================> DF-SCS-MP2 Energies <==================
	-----------------------------------------------------------
	 SCS Same-Spin Scale       =       0.3333333333333333 [-]
	 SCS Opposite-Spin Scale   =       1.2000000000000000 [-]
	 SCS Same-Spin Energy      =      -0.1586835473475467 [Eh]
	 SCS Opposite-Spin Energy  =      -1.7606342152666259 [Eh]
	 SCS Correlation Energy    =      -1.9193177626141726 [Eh]
	 SCS Total Energy          =    -475.1793808980460199 [Eh]
	-----------------------------------------------------------

  Dipole Moment: [D]
     X:     9.1655      Y:     1.2737      Z:     0.1418     Total:     9.2546

*** Psi4 exiting successfully. Buy a developer a beer!
