                               Psi4 1.3.2 release

  ==> Input File <==

--------------------------------------------------------------------------
#psi4
#
memory 32 gb

molecule  {
-1 1
  O        1.5553730    -1.4489990    -0.0078940
  O       -2.4744110     1.3948030    -0.0154550
  O       -3.5371250    -0.6067510    -0.0268560
  N       -0.0186818     0.2195893     0.0052709
  C        2.3272120     0.8379530     0.0018960
  C        1.2455030    -0.2240550     0.0044360
  C       -1.1489000    -0.6463140     0.0180560
  C        3.7164760     0.2336920    -0.0114620
  C       -2.5073920     0.1288020     0.0323140
  H        2.1647820     1.4966320    -0.8622200
  H        2.1776990     1.4878210     0.8748480
  H       -1.1517560    -1.3070500    -0.8570610
  H       -1.1478158    -1.3217168     0.8819386
  H       -0.2830670     1.1965190     0.0239890
  H        3.8663740    -0.3931470     0.8680960
  H        3.8530680    -0.3842560    -0.8995260
  H        4.4669480     1.0276640    -0.0135300
units angstrom
no_reorient  #important for SAPT in psi4, default
symmetry c1  #important for SAPT in psi4, default
}

set PROPERTIES_ORIGIN ["COM"]
properties('MP2/aug-cc-pvtz', properties = ['dipole'])
--------------------------------------------------------------------------

    Molecular point group: c1
  Charge       = -1
  Multiplicity = 1
  Basis Set: AUG-CC-PVTZ
    Blend: AUG-CC-PVTZ
  Basis Set: (AUG-CC-PVTZ AUX)
    Blend: AUG-CC-PVTZ-JKFIT

    Orbital Energies [Eh]
    ---------------------

    Doubly Occupied:

       1A    -20.392696     2A    -20.322039     3A    -20.310378
       4A    -15.450826     5A    -11.228646     6A    -11.164195
       7A    -11.137763     8A    -11.124303     9A    -11.108528
      10A     -1.235309    11A     -1.186634    12A     -1.102014
      13A     -1.081937    14A     -0.952741    15A     -0.835557
      16A     -0.758680    17A     -0.661024    18A     -0.589894
      19A     -0.544177    20A     -0.535275    21A     -0.507565
      22A     -0.483473    23A     -0.475461    24A     -0.426066
      25A     -0.424856    26A     -0.417099    27A     -0.414106
      28A     -0.397381    29A     -0.380070    30A     -0.343757
      31A     -0.303948    32A     -0.257873    33A     -0.234863
      34A     -0.224268    35A     -0.212802

  @DF-RHF Final Energy:  -473.28169724437754

   => Energetics <=

    Nuclear Repulsion Energy =            433.3158976446714519
    One-Electron Energy =               -1518.7427831116292509
    Two-Electron Energy =                 612.1451882225803729
    Total Energy =                       -473.2816972443774830
  Basis Set: (AUG-CC-PVTZ AUX)
    Blend: AUG-CC-PVTZ-RI
    Molecular point group: c1

    Geometry (in Angstrom), charge = -1, multiplicity = 1:

       Center              X                  Y                   Z               Mass
    ------------   -----------------  -----------------  -----------------  -----------------
         O            1.662157734936    -1.435778288500    -0.006589337513    15.994914619570
         O           -2.367626265064     1.408023711500    -0.014150337513    15.994914619570
         O           -3.430340265064    -0.593530288500    -0.025551337513    15.994914619570
         N            0.088102934936     0.232810011500     0.006575562487    14.003074004430
         C            2.433996734936     0.851173711500     0.003200662487    12.000000000000
         C            1.352287734936    -0.210834288500     0.005740662487    12.000000000000
         C           -1.042115265064    -0.633093288500     0.019360662487    12.000000000000
         C            3.823260734936     0.246912711500    -0.010157337513    12.000000000000
         C           -2.400607265064     0.142022711500     0.033618662487    12.000000000000
         H            2.271566734936     1.509852711500    -0.860915337513     1.007825032230
         H            2.284483734936     1.501041711500     0.876152662487     1.007825032230
         H           -1.044971265064    -1.293829288500    -0.855756337513     1.007825032230
         H           -1.041031065064    -1.308496088500     0.883243262487     1.007825032230
         H           -0.176282265064     1.209739711500     0.025293662487     1.007825032230
         H            3.973158734936    -0.379926288500     0.869400662487     1.007825032230
         H            3.959852734936    -0.371035288500    -0.898221337513     1.007825032230
         H            4.573732734936     1.040884711500    -0.012225337513     1.007825032230

  Basis Set: AUG-CC-PVTZ
    Blend: AUG-CC-PVTZ
  Basis Set: (AUG-CC-PVTZ AUX)
    Blend: AUG-CC-PVTZ-JKFIT
	 Reference Energy          =    -473.2816972443775398 [Eh]
	 Singles Energy            =      -0.0000000000000000 [Eh]
	 Same-Spin Energy          =      -0.4761332728380729 [Eh]
	 Opposite-Spin Energy      =      -1.4653696701143089 [Eh]
	 Correlation Energy        =      -1.9415029429523818 [Eh]
	 Total Energy              =    -475.2232001873298941 [Eh]

	 ================> DF-SCS-MP2 Energies <==================
	-----------------------------------------------------------
	 SCS Same-Spin Scale       =       0.3333333333333333 [-]
	 SCS Opposite-Spin Scale   =       1.2000000000000000 [-]
	 SCS Same-Spin Energy      =      -0.1587110909460243 [Eh]
	 SCS Opposite-Spin Energy  =      -1.7584436041371705 [Eh]
	 SCS Correlation Energy    =      -1.9171546950831948 [Eh]
	 SCS Total Energy          =    -475.1988519394607238 [Eh]
	-----------------------------------------------------------

  Dipole Moment: [D]
     X:     9.9364      Y:     1.5477      Z:     0.1465     Total:    10.0573

*** Psi4 exiting successfully. Buy a developer a beer!
