                               Psi4 1.3.2 release

  ==> Input File <==

--------------------------------------------------------------------------
#psi4
#
memory 32 gb

molecule  {
-1 1
  O        1.5553730    -1.4489990    -0.0078940
  O       -2.4744110     1.3948030    -0.0154550
  O       -3.5371250    -0.6067510    -0.0268560
  N       -0.0298422     0.2340557     0.0160419
  C        2.3272120     0.8379530     0.0018960
  C        1.2455030    -0.2240550     0.0044360
  C       -1.1489000    -0.6463140     0.0180560
  C        3.7164760     0.2336920    -0.0114620
  C       -2.4936565     0.1523936     0.0323712
  H        2.1647820     1.4966320    -0.8622200
  H        2.1776990     1.4878210     0.8748480
  H       -1.1517560    -1.3070500    -0.8570610
  H       -1.1395970    -1.3178250     0.8849180
  H       -0.2830670     1.1965190     0.0239890
  H        3.8663740    -0.3931470     0.8680960
  H        3.8530680    -0.3842560    -0.8995260
  H        4.4669480     1.0276640    -0.0135300
units angstrom
no_reorient  #important for SAPT in psi4, default
symmetry c1  #important for SAPT in psi4, default
}

set PROPERTIES_ORIGIN ["COM"]
properties('MP2/aug-cc-pvtz', properties = ['dipole'])
--------------------------------------------------------------------------

    Molecular point group: c1
  Charge       = -1
  Multiplicity = 1
  Basis Set: AUG-CC-PVTZ
    Blend: AUG-CC-PVTZ
  Basis Set: (AUG-CC-PVTZ AUX)
    Blend: AUG-CC-PVTZ-JKFIT

    Orbital Energies [Eh]
    ---------------------

    Doubly Occupied:

       1A    -20.396596     2A    -20.327369     3A    -20.302845
       4A    -15.449516     5A    -11.231934     6A    -11.162788
       7A    -11.138661     8A    -11.125149     9A    -11.107805
      10A     -1.236119    11A     -1.191165    12A     -1.100260
      13A     -1.076820    14A     -0.953681    15A     -0.833773
      16A     -0.758753    17A     -0.664016    18A     -0.590226
      19A     -0.542164    20A     -0.535672    21A     -0.509460
      22A     -0.482943    23A     -0.478277    24A     -0.426410
      25A     -0.424979    26A     -0.417511    27A     -0.414663
      28A     -0.399156    29A     -0.380250    30A     -0.345247
      31A     -0.305811    32A     -0.258643    33A     -0.235789
      34A     -0.219213    35A     -0.209509

  @DF-RHF Final Energy:  -473.27942084598004

   => Energetics <=

    Nuclear Repulsion Energy =            433.2553177609499926
    One-Electron Energy =               -1518.6031321186942478
    Two-Electron Energy =                 612.0683935117642704
    Total Energy =                       -473.2794208459799847
  Basis Set: (AUG-CC-PVTZ AUX)
    Blend: AUG-CC-PVTZ-RI
    Molecular point group: c1

    Geometry (in Angstrom), charge = -1, multiplicity = 1:

       Center              X                  Y                   Z               Mass
    ------------   -----------------  -----------------  -----------------  -----------------
         O            1.662028329698    -1.439542947855    -0.007777463059    15.994914619570
         O           -2.367755670302     1.404259052145    -0.015338463059    15.994914619570
         O           -3.430469670302    -0.597294947855    -0.026739463059    15.994914619570
         N            0.076813129698     0.243511752145     0.016158436941    14.003074004430
         C            2.433867329698     0.847409052145     0.002012536941    12.000000000000
         C            1.352158329698    -0.214598947855     0.004552536941    12.000000000000
         C           -1.042244670302    -0.636857947855     0.018172536941    12.000000000000
         C            3.823131329698     0.243148052145    -0.011345463059    12.000000000000
         C           -2.387001170302     0.161849652145     0.032487736941    12.000000000000
         H            2.271437329698     1.506088052145    -0.862103463059     1.007825032230
         H            2.284354329698     1.497277052145     0.874964536941     1.007825032230
         H           -1.045100670302    -1.297593947855    -0.856944463059     1.007825032230
         H           -1.032941670302    -1.308368947855     0.885034536941     1.007825032230
         H           -0.176411670302     1.205975052145     0.024105536941     1.007825032230
         H            3.973029329698    -0.383690947855     0.868212536941     1.007825032230
         H            3.959723329698    -0.374799947855    -0.899409463059     1.007825032230
         H            4.573603329698     1.037120052145    -0.013413463059     1.007825032230

  Basis Set: AUG-CC-PVTZ
    Blend: AUG-CC-PVTZ
  Basis Set: (AUG-CC-PVTZ AUX)
    Blend: AUG-CC-PVTZ-JKFIT
	 Reference Energy          =    -473.2794208459800416 [Eh]
	 Singles Energy            =      -0.0000000000000000 [Eh]
	 Same-Spin Energy          =      -0.4760748335690301 [Eh]
	 Opposite-Spin Energy      =      -1.4654333238668600 [Eh]
	 Correlation Energy        =      -1.9415081574358901 [Eh]
	 Total Energy              =    -475.2209290034159039 [Eh]

	 ================> DF-SCS-MP2 Energies <==================
	-----------------------------------------------------------
	 SCS Same-Spin Scale       =       0.3333333333333333 [-]
	 SCS Opposite-Spin Scale   =       1.2000000000000000 [-]
	 SCS Same-Spin Energy      =      -0.1586916111896767 [Eh]
	 SCS Opposite-Spin Energy  =      -1.7585199886402318 [Eh]
	 SCS Correlation Energy    =      -1.9172115998299086 [Eh]
	 SCS Total Energy          =    -475.1966324458099393 [Eh]
	-----------------------------------------------------------

  Dipole Moment: [D]
     X:    10.2041      Y:     1.7504      Z:     0.1369     Total:    10.3541

*** Psi4 exiting successfully. Buy a developer a beer!
