                               Psi4 1.3.2 release

  ==> Input File <==

--------------------------------------------------------------------------
#psi4
#
memory 32 gb

molecule  {
-1 1
  O        1.5553730    -1.4489990    -0.0078940
  O       -2.4744110     1.3948030    -0.0154550
  O       -3.5371250    -0.6067510    -0.0268560
  N       -0.0312954     0.2347840    -0.0263433
  C        2.3272120     0.8379530     0.0018960
  C        1.2455030    -0.2240550     0.0044360
  C       -1.1489000    -0.6463140     0.0180560
  C        3.7164760     0.2336920    -0.0114620
  C       -2.5073920     0.1288020     0.0323140
  H        2.1647820     1.4966320    -0.8622200
  H        2.1776990     1.4878210     0.8748480
  H       -1.1517560    -1.3070500    -0.8570610
  H       -1.1724703    -1.3330825     0.8726067
  H       -0.2830670     1.1965190     0.0239890
  H        3.8663740    -0.3931470     0.8680960
  H        3.8530680    -0.3842560    -0.8995260
  H        4.4669480     1.0276640    -0.0135300
units angstrom
no_reorient  #important for SAPT in psi4, default
symmetry c1  #important for SAPT in psi4, default
}

set PROPERTIES_ORIGIN ["COM"]
properties('MP2/aug-cc-pvtz', properties = ['dipole'])
--------------------------------------------------------------------------

    Molecular point group: c1
  Charge       = -1
  Multiplicity = 1
  Basis Set: AUG-CC-PVTZ
    Blend: AUG-CC-PVTZ
  Basis Set: (AUG-CC-PVTZ AUX)
    Blend: AUG-CC-PVTZ-JKFIT

    Orbital Energies [Eh]
    ---------------------

    Doubly Occupied:

       1A    -20.396691     2A    -20.320590     3A    -20.309004
       4A    -15.449589     5A    -11.232059     6A    -11.162501
       7A    -11.138481     8A    -11.124992     9A    -11.107394
      10A     -1.235797    11A     -1.185512    12A     -1.100718
      13A     -1.080488    14A     -0.953422    15A     -0.833246
      16A     -0.759200    17A     -0.662818    18A     -0.589862
      19A     -0.542331    20A     -0.535254    21A     -0.508790
      22A     -0.482044    23A     -0.476511    24A     -0.427262
      25A     -0.423600    26A     -0.416896    27A     -0.415186
      28A     -0.398510    29A     -0.379817    30A     -0.342851
      31A     -0.305951    32A     -0.258016    33A     -0.233579
      34A     -0.222540    35A     -0.211514

  @DF-RHF Final Energy:  -473.28017361570096

   => Energetics <=

    Nuclear Repulsion Energy =            433.0975975940889953
    One-Electron Energy =               -1518.3095099675208530
    Two-Electron Energy =                 611.9317387577309546
    Total Energy =                       -473.2801736157009600
  Basis Set: (AUG-CC-PVTZ AUX)
    Blend: AUG-CC-PVTZ-RI
    Molecular point group: c1

    Geometry (in Angstrom), charge = -1, multiplicity = 1:

       Center              X                  Y                   Z               Mass
    ------------   -----------------  -----------------  -----------------  -----------------
         O            1.663706954073    -1.437326287149    -0.003112986486    15.994914619570
         O           -2.366077045927     1.406475712851    -0.010673986486    15.994914619570
         O           -3.428791045927    -0.595078287149    -0.022074986486    15.994914619570
         N            0.077038554073     0.246456712851    -0.021562286486    14.003074004430
         C            2.435545954073     0.849625712851     0.006677013514    12.000000000000
         C            1.353836954073    -0.212382287149     0.009217013514    12.000000000000
         C           -1.040566045927    -0.634641287149     0.022837013514    12.000000000000
         C            3.824809954073     0.245364712851    -0.006680986486    12.000000000000
         C           -2.399058045927     0.140474712851     0.037095013514    12.000000000000
         H            2.273115954073     1.508304712851    -0.857438986486     1.007825032230
         H            2.286032954073     1.499493712851     0.879629013514     1.007825032230
         H           -1.043422045927    -1.295377287149    -0.852279986486     1.007825032230
         H           -1.064136345927    -1.321409787149     0.877387713514     1.007825032230
         H           -0.174733045927     1.208191712851     0.028770013514     1.007825032230
         H            3.974707954073    -0.381474287149     0.872877013514     1.007825032230
         H            3.961401954073    -0.372583287149    -0.894744986486     1.007825032230
         H            4.575281954073     1.039336712851    -0.008748986486     1.007825032230

  Basis Set: AUG-CC-PVTZ
    Blend: AUG-CC-PVTZ
  Basis Set: (AUG-CC-PVTZ AUX)
    Blend: AUG-CC-PVTZ-JKFIT
	 Reference Energy          =    -473.2801736157009600 [Eh]
	 Singles Energy            =      -0.0000000000000000 [Eh]
	 Same-Spin Energy          =      -0.4760922621342488 [Eh]
	 Opposite-Spin Energy      =      -1.4654038089356973 [Eh]
	 Correlation Energy        =      -1.9414960710699463 [Eh]
	 Total Energy              =    -475.2216696867708947 [Eh]

	 ================> DF-SCS-MP2 Energies <==================
	-----------------------------------------------------------
	 SCS Same-Spin Scale       =       0.3333333333333333 [-]
	 SCS Opposite-Spin Scale   =       1.2000000000000000 [-]
	 SCS Same-Spin Energy      =      -0.1586974207114163 [Eh]
	 SCS Opposite-Spin Energy  =      -1.7584845707228367 [Eh]
	 SCS Correlation Energy    =      -1.9171819914342529 [Eh]
	 SCS Total Energy          =    -475.1973556071351936 [Eh]
	-----------------------------------------------------------

  Dipole Moment: [D]
     X:    10.0669      Y:     1.4976      Z:     0.1774     Total:    10.1792

*** Psi4 exiting successfully. Buy a developer a beer!
