                               Psi4 1.3.2 release

  ==> Input File <==

--------------------------------------------------------------------------
#psi4
#
memory 32 gb

molecule  {
-1 1
  O        1.5767047    -1.4434035    -0.0079755
  O       -2.4744110     1.3948030    -0.0154550
  O       -3.5371250    -0.6067510    -0.0268560
  N       -0.0068038     0.2363179     0.0159516
  C        2.3272120     0.8379530     0.0018960
  C        1.2455030    -0.2240550     0.0044360
  C       -1.1489000    -0.6463140     0.0180560
  C        3.7164760     0.2336920    -0.0114620
  C       -2.5073920     0.1288020     0.0323140
  H        2.1647820     1.4966320    -0.8622200
  H        2.1776990     1.4878210     0.8748480
  H       -1.1517560    -1.3070500    -0.8570610
  H       -1.1395970    -1.3178250     0.8849180
  H       -0.2830670     1.1965190     0.0239890
  H        3.8663740    -0.3931470     0.8680960
  H        3.8530680    -0.3842560    -0.8995260
  H        4.4669480     1.0276640    -0.0135300
units angstrom
no_reorient  #important for SAPT in psi4, default
symmetry c1  #important for SAPT in psi4, default
}

set PROPERTIES_ORIGIN ["COM"]
properties('MP2/aug-cc-pvtz', properties = ['dipole'])
--------------------------------------------------------------------------

    Molecular point group: c1
  Charge       = -1
  Multiplicity = 1
  Basis Set: AUG-CC-PVTZ
    Blend: AUG-CC-PVTZ
  Basis Set: (AUG-CC-PVTZ AUX)
    Blend: AUG-CC-PVTZ-JKFIT

    Orbital Energies [Eh]
    ---------------------

    Doubly Occupied:

       1A    -20.392933     2A    -20.322867     3A    -20.311395
       4A    -15.451696     5A    -11.228269     6A    -11.165264
       7A    -11.135265     8A    -11.122612     9A    -11.111288
      10A     -1.235027    11A     -1.187468    12A     -1.103340
      13A     -1.082924    14A     -0.950518    15A     -0.834755
      16A     -0.758163    17A     -0.666756    18A     -0.588452
      19A     -0.542893    20A     -0.534224    21A     -0.507625
      22A     -0.482570    23A     -0.475400    24A     -0.427537
      25A     -0.423348    26A     -0.416794    27A     -0.413392
      28A     -0.397260    29A     -0.380036    30A     -0.344594
      31A     -0.303113    32A     -0.260969    33A     -0.235769
      34A     -0.225190    35A     -0.213841

  @DF-RHF Final Energy:  -473.28157174755034

   => Energetics <=

    Nuclear Repulsion Energy =            433.1309285959396220
    One-Electron Energy =               -1518.3579079381718202
    Two-Electron Energy =                 611.9454075946819103
    Total Energy =                       -473.2815717475502879
  Basis Set: (AUG-CC-PVTZ AUX)
    Blend: AUG-CC-PVTZ-RI
    Molecular point group: c1

    Geometry (in Angstrom), charge = -1, multiplicity = 1:

       Center              X                  Y                   Z               Mass
    ------------   -----------------  -----------------  -----------------  -----------------
         O            1.679523201278    -1.432702377646    -0.007833938432    15.994914619570
         O           -2.371592498722     1.405504122354    -0.015313438432    15.994914619570
         O           -3.434306498722    -0.596049877646    -0.026714438432    15.994914619570
         N            0.096014701278     0.247019022354     0.016093161568    14.003074004430
         C            2.430030501278     0.848654122354     0.002037561568    12.000000000000
         C            1.348321501278    -0.213353877646     0.004577561568    12.000000000000
         C           -1.046081498722    -0.635612877646     0.018197561568    12.000000000000
         C            3.819294501278     0.244393122354    -0.011320438432    12.000000000000
         C           -2.404573498722     0.139503122354     0.032455561568    12.000000000000
         H            2.267600501278     1.507333122354    -0.862078438432     1.007825032230
         H            2.280517501278     1.498522122354     0.874989561568     1.007825032230
         H           -1.048937498722    -1.296348877646    -0.856919438432     1.007825032230
         H           -1.036778498722    -1.307123877646     0.885059561568     1.007825032230
         H           -0.180248498722     1.207220122354     0.024130561568     1.007825032230
         H            3.969192501278    -0.382445877646     0.868237561568     1.007825032230
         H            3.955886501278    -0.373554877646    -0.899384438432     1.007825032230
         H            4.569766501278     1.038365122354    -0.013388438432     1.007825032230

  Basis Set: AUG-CC-PVTZ
    Blend: AUG-CC-PVTZ
  Basis Set: (AUG-CC-PVTZ AUX)
    Blend: AUG-CC-PVTZ-JKFIT
	 Reference Energy          =    -473.2815717475503448 [Eh]
	 Singles Energy            =      -0.0000000000000000 [Eh]
	 Same-Spin Energy          =      -0.4759385380597413 [Eh]
	 Opposite-Spin Energy      =      -1.4652237124860419 [Eh]
	 Correlation Energy        =      -1.9411622505457833 [Eh]
	 Total Energy              =    -475.2227339980961460 [Eh]

	 ================> DF-SCS-MP2 Energies <==================
	-----------------------------------------------------------
	 SCS Same-Spin Scale       =       0.3333333333333333 [-]
	 SCS Opposite-Spin Scale   =       1.2000000000000000 [-]
	 SCS Same-Spin Energy      =      -0.1586461793532471 [Eh]
	 SCS Opposite-Spin Energy  =      -1.7582684549832501 [Eh]
	 SCS Correlation Energy    =      -1.9169146343364973 [Eh]
	 SCS Total Energy          =    -475.1984863818868234 [Eh]
	-----------------------------------------------------------

  Dipole Moment: [D]
     X:     9.8169      Y:     1.5078      Z:     0.1368     Total:     9.9330

*** Psi4 exiting successfully. Buy a developer a beer!
