                               Psi4 1.3.2 release

  ==> Input File <==

--------------------------------------------------------------------------
#psi4
#
memory 32 gb

molecule  {
-1 1
  O        1.5553730    -1.4489990    -0.0078940
  O       -2.4744110     1.3948030    -0.0154550
  O       -3.5371250    -0.6067510    -0.0268560
  N       -0.0146490     0.2143920     0.0158120
  C        2.3272120     0.8379530     0.0018960
  C        1.2455030    -0.2240550     0.0044360
  C       -1.1023024    -0.7044947     0.0173607
  C        3.7164760     0.2336920    -0.0114620
  C       -2.5073920     0.1288020     0.0323140
  H        2.1647820     1.4966320    -0.8622200
  H        2.1776990     1.4878210     0.8748480
  H       -1.1517560    -1.3070500    -0.8570610
  H       -1.1395970    -1.3178250     0.8849180
  H       -0.2312981     1.2092233     0.0237152
  H        3.8663740    -0.3931470     0.8680960
  H        3.8530680    -0.3842560    -0.8995260
  H        4.4669480     1.0276640    -0.0135300
units angstrom
no_reorient  #important for SAPT in psi4, default
symmetry c1  #important for SAPT in psi4, default
}

set PROPERTIES_ORIGIN ["COM"]
properties('MP2/aug-cc-pvtz', properties = ['dipole'])
--------------------------------------------------------------------------

    Molecular point group: c1
  Charge       = -1
  Multiplicity = 1
  Basis Set: AUG-CC-PVTZ
    Blend: AUG-CC-PVTZ
  Basis Set: (AUG-CC-PVTZ AUX)
    Blend: AUG-CC-PVTZ-JKFIT

    Orbital Energies [Eh]
    ---------------------

    Doubly Occupied:

       1A    -20.390546     2A    -20.322613     3A    -20.310873
       4A    -15.451487     5A    -11.224967     6A    -11.166477
       7A    -11.137221     8A    -11.123949     9A    -11.104853
      10A     -1.235017    11A     -1.184141    12A     -1.101691
      13A     -1.081474    14A     -0.952257    15A     -0.833500
      16A     -0.757289    17A     -0.657305    18A     -0.585792
      19A     -0.537377    20A     -0.535859    21A     -0.511456
      22A     -0.490913    23A     -0.474737    24A     -0.425379
      25A     -0.418702    26A     -0.418189    27A     -0.412946
      28A     -0.401209    29A     -0.379430    30A     -0.348925
      31A     -0.302202    32A     -0.261546    33A     -0.233110
      34A     -0.216065    35A     -0.212890

  @DF-RHF Final Energy:  -473.27648084767134

   => Energetics <=

    Nuclear Repulsion Energy =            432.8456744190077075
    One-Electron Energy =               -1517.8395360079284728
    Two-Electron Energy =                 611.7173807412493716
    Total Energy =                       -473.2764808476713370
  Basis Set: (AUG-CC-PVTZ AUX)
    Blend: AUG-CC-PVTZ-RI
    Molecular point group: c1

    Geometry (in Angstrom), charge = -1, multiplicity = 1:

       Center              X                  Y                   Z               Mass
    ------------   -----------------  -----------------  -----------------  -----------------
         O            1.656958982696    -1.429978840698    -0.007681152340    15.994914619570
         O           -2.372825017304     1.413823159302    -0.015242152340    15.994914619570
         O           -3.435539017304    -0.587730840698    -0.026643152340    15.994914619570
         N            0.086936982696     0.233412159302     0.016024847660    14.003074004430
         C            2.428797982696     0.856973159302     0.002108847660    12.000000000000
         C            1.347088982696    -0.205034840698     0.004648847660    12.000000000000
         C           -1.000716417304    -0.685474540698     0.017573547660    12.000000000000
         C            3.818061982696     0.252712159302    -0.011249152340    12.000000000000
         C           -2.405806017304     0.147822159302     0.032526847660    12.000000000000
         H            2.266367982696     1.515652159302    -0.862007152340     1.007825032230
         H            2.279284982696     1.506841159302     0.875060847660     1.007825032230
         H           -1.050170017304    -1.288029840698    -0.856848152340     1.007825032230
         H           -1.038011017304    -1.298804840698     0.885130847660     1.007825032230
         H           -0.129712117304     1.228243459302     0.023928047660     1.007825032230
         H            3.967959982696    -0.374126840698     0.868308847660     1.007825032230
         H            3.954653982696    -0.365235840698    -0.899313152340     1.007825032230
         H            4.568533982696     1.046684159302    -0.013317152340     1.007825032230

  Basis Set: AUG-CC-PVTZ
    Blend: AUG-CC-PVTZ
  Basis Set: (AUG-CC-PVTZ AUX)
    Blend: AUG-CC-PVTZ-JKFIT
	 Reference Energy          =    -473.2764808476713370 [Eh]
	 Singles Energy            =      -0.0000000000000000 [Eh]
	 Same-Spin Energy          =      -0.4761700302854865 [Eh]
	 Opposite-Spin Energy      =      -1.4655545078081387 [Eh]
	 Correlation Energy        =      -1.9417245380936252 [Eh]
	 Total Energy              =    -475.2182053857649748 [Eh]

	 ================> DF-SCS-MP2 Energies <==================
	-----------------------------------------------------------
	 SCS Same-Spin Scale       =       0.3333333333333333 [-]
	 SCS Opposite-Spin Scale   =       1.2000000000000000 [-]
	 SCS Same-Spin Energy      =      -0.1587233434284955 [Eh]
	 SCS Opposite-Spin Energy  =      -1.7586654093697665 [Eh]
	 SCS Correlation Energy    =      -1.9173887527982618 [Eh]
	 SCS Total Energy          =    -475.1938696004696112 [Eh]
	-----------------------------------------------------------

  Dipole Moment: [D]
     X:     9.8996      Y:     1.5687      Z:     0.1357     Total:    10.0241

*** Psi4 exiting successfully. Buy a developer a beer!
