                               Psi4 1.3.2 release

  ==> Input File <==

--------------------------------------------------------------------------
#psi4
#
memory 32 gb

molecule  {
-1 1
  O        1.5553730    -1.4489990    -0.0078940
  O       -2.4744110     1.3948030    -0.0154550
  O       -3.5371250    -0.6067510    -0.0268560
  N       -0.0358706     0.1478381     0.0156322
  C        2.3813079     0.7798865     0.0012105
  C        1.2455030    -0.2240550     0.0044360
  C       -1.1489000    -0.6463140     0.0180560
  C        3.7164760     0.2336920    -0.0114620
  C       -2.5073920     0.1288020     0.0323140
  H        2.1647820     1.4966320    -0.8622200
  H        2.1776990     1.4878210     0.8748480
  H       -1.1517560    -1.3070500    -0.8570610
  H       -1.1395970    -1.3178250     0.8849180
  H       -0.2830670     1.1965190     0.0239890
  H        3.8663740    -0.3931470     0.8680960
  H        3.8530680    -0.3842560    -0.8995260
  H        4.4669480     1.0276640    -0.0135300
units angstrom
no_reorient  #important for SAPT in psi4, default
symmetry c1  #important for SAPT in psi4, default
}

set PROPERTIES_ORIGIN ["COM"]
properties('MP2/aug-cc-pvtz', properties = ['dipole'])
--------------------------------------------------------------------------

    Molecular point group: c1
  Charge       = -1
  Multiplicity = 1
  Basis Set: AUG-CC-PVTZ
    Blend: AUG-CC-PVTZ
  Basis Set: (AUG-CC-PVTZ AUX)
    Blend: AUG-CC-PVTZ-JKFIT

    Orbital Energies [Eh]
    ---------------------

    Doubly Occupied:

       1A    -20.386428     2A    -20.323236     3A    -20.310831
       4A    -15.453604     5A    -11.226880     6A    -11.165266
       7A    -11.146282     8A    -11.123330     9A    -11.104790
      10A     -1.236575    11A     -1.187396    12A     -1.104810
      13A     -1.082788    14A     -0.967250    15A     -0.843768
      16A     -0.756473    17A     -0.643251    18A     -0.592309
      19A     -0.555386    20A     -0.534623    21A     -0.506868
      22A     -0.491452    23A     -0.476502    24A     -0.453553
      25A     -0.421549    26A     -0.411460    27A     -0.409529
      28A     -0.391361    29A     -0.369250    30A     -0.342938
      31A     -0.299874    32A     -0.250577    33A     -0.235663
      34A     -0.225365    35A     -0.212828

  @DF-RHF Final Energy:  -473.26215916720849

   => Energetics <=

    Nuclear Repulsion Energy =            434.3795571958383448
    One-Electron Energy =               -1520.7953456069483309
    Two-Electron Energy =                 613.1536292439016052
    Total Energy =                       -473.2621591672084378
  Basis Set: (AUG-CC-PVTZ AUX)
    Blend: AUG-CC-PVTZ-RI
    Molecular point group: c1

    Geometry (in Angstrom), charge = -1, multiplicity = 1:

       Center              X                  Y                   Z               Mass
    ------------   -----------------  -----------------  -----------------  -----------------
         O            1.658953301764    -1.422724788676    -0.007664818597    15.994914619570
         O           -2.370830698236     1.421077211324    -0.015225818597    15.994914619570
         O           -3.433544698236    -0.580476788676    -0.026626818597    15.994914619570
         N            0.067709701764     0.174112311324     0.015861381403    14.003074004430
         C            2.484888201764     0.806160711324     0.001439681403    12.000000000000
         C            1.349083301764    -0.197780788676     0.004665181403    12.000000000000
         C           -1.045319698236    -0.620039788676     0.018285181403    12.000000000000
         C            3.820056301764     0.259966211324    -0.011232818597    12.000000000000
         C           -2.403811698236     0.155076211324     0.032543181403    12.000000000000
         H            2.268362301764     1.522906211324    -0.861990818597     1.007825032230
         H            2.281279301764     1.514095211324     0.875077181403     1.007825032230
         H           -1.048175698236    -1.280775788676    -0.856831818597     1.007825032230
         H           -1.036016698236    -1.291550788676     0.885147181403     1.007825032230
         H           -0.179486698236     1.222793211324     0.024218181403     1.007825032230
         H            3.969954301764    -0.366872788676     0.868325181403     1.007825032230
         H            3.956648301764    -0.357981788676    -0.899296818597     1.007825032230
         H            4.570528301764     1.053938211324    -0.013300818597     1.007825032230

  Basis Set: AUG-CC-PVTZ
    Blend: AUG-CC-PVTZ
  Basis Set: (AUG-CC-PVTZ AUX)
    Blend: AUG-CC-PVTZ-JKFIT
	 Reference Energy          =    -473.2621591672084946 [Eh]
	 Singles Energy            =      -0.0000000000000000 [Eh]
	 Same-Spin Energy          =      -0.4778408945105671 [Eh]
	 Opposite-Spin Energy      =      -1.4674465089894011 [Eh]
	 Correlation Energy        =      -1.9452874034999681 [Eh]
	 Total Energy              =    -475.2074465707084414 [Eh]

	 ================> DF-SCS-MP2 Energies <==================
	-----------------------------------------------------------
	 SCS Same-Spin Scale       =       0.3333333333333333 [-]
	 SCS Opposite-Spin Scale   =       1.2000000000000000 [-]
	 SCS Same-Spin Energy      =      -0.1592802981701890 [Eh]
	 SCS Opposite-Spin Energy  =      -1.7609358107872812 [Eh]
	 SCS Correlation Energy    =      -1.9202161089574703 [Eh]
	 SCS Total Energy          =    -475.1823752761659421 [Eh]
	-----------------------------------------------------------

  Dipole Moment: [D]
     X:     9.9951      Y:     1.6180      Z:     0.1350     Total:    10.1261

*** Psi4 exiting successfully. Buy a developer a beer!
