                               Psi4 1.3.2 release

  ==> Input File <==

--------------------------------------------------------------------------
#psi4
#
memory 32 gb

molecule  {
-1 1
  O        1.5553730    -1.4489990    -0.0078940
  O       -2.4854624     1.3950554    -0.0151156
  O       -3.5371250    -0.6067510    -0.0268560
  N       -0.0146490     0.2143920     0.0158120
  C        2.3272120     0.8379530     0.0018960
  C        1.2455030    -0.2240550     0.0044360
  C       -1.1557033    -0.6581294     0.0187068
  C        3.7164760     0.2336920    -0.0114620
  C       -2.5073920     0.1288020     0.0323140
  H        2.1647820     1.4966320    -0.8622200
  H        2.1776990     1.4878210     0.8748480
  H       -1.1517560    -1.3070500    -0.8570610
  H       -1.1395970    -1.3178250     0.8849180
  H       -0.2830670     1.1965190     0.0239890
  H        3.8663740    -0.3931470     0.8680960
  H        3.8530680    -0.3842560    -0.8995260
  H        4.4669480     1.0276640    -0.0135300
units angstrom
no_reorient  #important for SAPT in psi4, default
symmetry c1  #important for SAPT in psi4, default
}

set PROPERTIES_ORIGIN ["COM"]
properties('MP2/aug-cc-pvtz', properties = ['dipole'])
--------------------------------------------------------------------------

    Molecular point group: c1
  Charge       = -1
  Multiplicity = 1
  Basis Set: AUG-CC-PVTZ
    Blend: AUG-CC-PVTZ
  Basis Set: (AUG-CC-PVTZ AUX)
    Blend: AUG-CC-PVTZ-JKFIT

    Orbital Energies [Eh]
    ---------------------

    Doubly Occupied:

       1A    -20.391122     2A    -20.322472     3A    -20.310056
       4A    -15.451170     5A    -11.227245     6A    -11.164495
       7A    -11.137368     8A    -11.123979     9A    -11.109546
      10A     -1.234681    11A     -1.186907    12A     -1.100028
      13A     -1.081580    14A     -0.952205    15A     -0.836331
      16A     -0.759147    17A     -0.659513    18A     -0.589064
      19A     -0.543410    20A     -0.535126    21A     -0.507181
      22A     -0.485193    23A     -0.474237    24A     -0.426135
      25A     -0.425008    26A     -0.417758    27A     -0.413513
      28A     -0.396629    29A     -0.380213    30A     -0.344893
      31A     -0.302977    32A     -0.258949    33A     -0.235110
      34A     -0.224603    35A     -0.212673

  @DF-RHF Final Energy:  -473.28204828801756

   => Energetics <=

    Nuclear Repulsion Energy =            433.1092431689493196
    One-Electron Energy =               -1518.3415531130574436
    Two-Electron Energy =                 611.9502616560906745
    Total Energy =                       -473.2820482880175632
  Basis Set: (AUG-CC-PVTZ AUX)
    Blend: AUG-CC-PVTZ-RI
    Molecular point group: c1

    Geometry (in Angstrom), charge = -1, multiplicity = 1:

       Center              X                  Y                   Z               Mass
    ------------   -----------------  -----------------  -----------------  -----------------
         O            1.663646781208    -1.434189646113    -0.007849224207    15.994914619570
         O           -2.377188618792     1.409864753887    -0.015070824207    15.994914619570
         O           -3.428851218792    -0.591941646113    -0.026811224207    15.994914619570
         N            0.093624781208     0.229201353887     0.015856775793    14.003074004430
         C            2.435485781208     0.852762353887     0.001940775793    12.000000000000
         C            1.353776781208    -0.209245646113     0.004480775793    12.000000000000
         C           -1.047429518792    -0.643320046113     0.018751575793    12.000000000000
         C            3.824749781208     0.248501353887    -0.011417224207    12.000000000000
         C           -2.399118218792     0.143611353887     0.032358775793    12.000000000000
         H            2.273055781208     1.511441353887    -0.862175224207     1.007825032230
         H            2.285972781208     1.502630353887     0.874892775793     1.007825032230
         H           -1.043482218792    -1.292240646113    -0.857016224207     1.007825032230
         H           -1.031323218792    -1.303015646113     0.884962775793     1.007825032230
         H           -0.174793218792     1.211328353887     0.024033775793     1.007825032230
         H            3.974647781208    -0.378337646113     0.868140775793     1.007825032230
         H            3.961341781208    -0.369446646113    -0.899481224207     1.007825032230
         H            4.575221781208     1.042473353887    -0.013485224207     1.007825032230

  Basis Set: AUG-CC-PVTZ
    Blend: AUG-CC-PVTZ
  Basis Set: (AUG-CC-PVTZ AUX)
    Blend: AUG-CC-PVTZ-JKFIT
	 Reference Energy          =    -473.2820482880175632 [Eh]
	 Singles Energy            =      -0.0000000000000000 [Eh]
	 Same-Spin Energy          =      -0.4760147506058188 [Eh]
	 Opposite-Spin Energy      =      -1.4653131506873636 [Eh]
	 Correlation Energy        =      -1.9413279012931823 [Eh]
	 Total Energy              =    -475.2233761893107271 [Eh]

	 ================> DF-SCS-MP2 Energies <==================
	-----------------------------------------------------------
	 SCS Same-Spin Scale       =       0.3333333333333333 [-]
	 SCS Opposite-Spin Scale   =       1.2000000000000000 [-]
	 SCS Same-Spin Energy      =      -0.1586715835352729 [Eh]
	 SCS Opposite-Spin Energy  =      -1.7583757808248361 [Eh]
	 SCS Correlation Energy    =      -1.9170473643601091 [Eh]
	 SCS Total Energy          =    -475.1990956523776504 [Eh]
	-----------------------------------------------------------

  Dipole Moment: [D]
     X:     9.8987      Y:     1.5366      Z:     0.1379     Total:    10.0182

*** Psi4 exiting successfully. Buy a developer a beer!
