                               Psi4 1.3.2 release

  ==> Input File <==

--------------------------------------------------------------------------
#psi4
#
memory 32 gb

molecule  {
-1 1
  O        1.5553730    -1.4489990    -0.0078940
  O       -2.4744110     1.3948030    -0.0154550
  O       -3.5371250    -0.6067510    -0.0268560
  N       -0.0184275     0.2033783     0.0157842
  C        2.3364380     0.8284732     0.0017812
  C        1.2455030    -0.2240550     0.0044360
  C       -1.1489000    -0.6463140     0.0180560
  C        3.7164760     0.2336920    -0.0114620
  C       -2.5073920     0.1288020     0.0323140
  H        2.1647820     1.4966320    -0.8622200
  H        2.1776990     1.4878210     0.8748480
  H       -1.1517560    -1.3070500    -0.8570610
  H       -1.1395970    -1.3178250     0.8849180
  H       -0.2830670     1.1965190     0.0239890
  H        3.8663740    -0.3931470     0.8680960
  H        3.8530680    -0.3842560    -0.8995260
  H        4.4669480     1.0276640    -0.0135300
units angstrom
no_reorient  #important for SAPT in psi4, default
symmetry c1  #important for SAPT in psi4, default
}

set PROPERTIES_ORIGIN ["COM"]
properties('MP2/aug-cc-pvtz', properties = ['dipole'])
--------------------------------------------------------------------------

    Molecular point group: c1
  Charge       = -1
  Multiplicity = 1
  Basis Set: AUG-CC-PVTZ
    Blend: AUG-CC-PVTZ
  Basis Set: (AUG-CC-PVTZ AUX)
    Blend: AUG-CC-PVTZ-JKFIT

    Orbital Energies [Eh]
    ---------------------

    Doubly Occupied:

       1A    -20.390572     2A    -20.322607     3A    -20.310806
       4A    -15.451619     5A    -11.227304     6A    -11.164809
       7A    -11.138879     8A    -11.123987     9A    -11.108181
      10A     -1.235365    11A     -1.187044    12A     -1.102584
      13A     -1.082436    14A     -0.954792    15A     -0.837553
      16A     -0.758145    17A     -0.657150    18A     -0.590305
      19A     -0.546482    20A     -0.534918    21A     -0.507142
      22A     -0.485269    23A     -0.475160    24A     -0.430021
      25A     -0.424884    26A     -0.416122    27A     -0.413083
      28A     -0.396575    29A     -0.378477    30A     -0.343942
      31A     -0.302809    32A     -0.256629    33A     -0.235319
      34A     -0.224922    35A     -0.213150

  @DF-RHF Final Energy:  -473.28057622802402

   => Energetics <=

    Nuclear Repulsion Energy =            433.5429463700269821
    One-Electron Energy =               -1519.1889552860961885
    Two-Electron Energy =                 612.3654326880450753
    Total Energy =                       -473.2805762280240742
  Basis Set: (AUG-CC-PVTZ AUX)
    Blend: AUG-CC-PVTZ-RI
    Molecular point group: c1

    Geometry (in Angstrom), charge = -1, multiplicity = 1:

       Center              X                  Y                   Z               Mass
    ------------   -----------------  -----------------  -----------------  -----------------
         O            1.661215361233    -1.433188222400    -0.007733844651    15.994914619570
         O           -2.368568638767     1.410613777600    -0.015294844651    15.994914619570
         O           -3.431282638767    -0.590940222400    -0.026695844651    15.994914619570
         N            0.087414861233     0.219189077600     0.015944355349    14.003074004430
         C            2.442280361233     0.844283977600     0.001941355349    12.000000000000
         C            1.351345361233    -0.208244222400     0.004596155349    12.000000000000
         C           -1.043057638767    -0.630503222400     0.018216155349    12.000000000000
         C            3.822318361233     0.249502777600    -0.011301844651    12.000000000000
         C           -2.401549638767     0.144612777600     0.032474155349    12.000000000000
         H            2.270624361233     1.512442777600    -0.862059844651     1.007825032230
         H            2.283541361233     1.503631777600     0.875008155349     1.007825032230
         H           -1.045913638767    -1.291239222400    -0.856900844651     1.007825032230
         H           -1.033754638767    -1.302014222400     0.885078155349     1.007825032230
         H           -0.177224638767     1.212329777600     0.024149155349     1.007825032230
         H            3.972216361233    -0.377336222400     0.868256155349     1.007825032230
         H            3.958910361233    -0.368445222400    -0.899365844651     1.007825032230
         H            4.572790361233     1.043474777600    -0.013369844651     1.007825032230

  Basis Set: AUG-CC-PVTZ
    Blend: AUG-CC-PVTZ
  Basis Set: (AUG-CC-PVTZ AUX)
    Blend: AUG-CC-PVTZ-JKFIT
	 Reference Energy          =    -473.2805762280240174 [Eh]
	 Singles Energy            =      -0.0000000000000000 [Eh]
	 Same-Spin Energy          =      -0.4763700957599854 [Eh]
	 Opposite-Spin Energy      =      -1.4655859332153645 [Eh]
	 Correlation Energy        =      -1.9419560289753499 [Eh]
	 Total Energy              =    -475.2225322569993864 [Eh]

	 ================> DF-SCS-MP2 Energies <==================
	-----------------------------------------------------------
	 SCS Same-Spin Scale       =       0.3333333333333333 [-]
	 SCS Opposite-Spin Scale   =       1.2000000000000000 [-]
	 SCS Same-Spin Energy      =      -0.1587900319199951 [Eh]
	 SCS Opposite-Spin Energy  =      -1.7587031198584373 [Eh]
	 SCS Correlation Energy    =      -1.9174931517784324 [Eh]
	 SCS Total Energy          =    -475.1980693798024618 [Eh]
	-----------------------------------------------------------

  Dipole Moment: [D]
     X:     9.9135      Y:     1.5745      Z:     0.1364     Total:    10.0387

*** Psi4 exiting successfully. Buy a developer a beer!
