                               Psi4 1.3.2 release

  ==> Input File <==

--------------------------------------------------------------------------
#psi4
#
memory 32 gb

molecule  {
-1 1
  O        1.5553730    -1.4489990    -0.0078940
  O       -2.4744110     1.3948030    -0.0154550
  O       -3.5371250    -0.6067510    -0.0268560
  N       -0.0146490     0.2143920     0.0158120
  C        2.3272120     0.8379530     0.0018960
  C        1.2548114    -0.2334539     0.0043191
  C       -1.1489000    -0.6463140     0.0180560
  C        3.7111496     0.2215912    -0.0114847
  C       -2.5073920     0.1288020     0.0323140
  H        2.1647820     1.4966320    -0.8622200
  H        2.1776990     1.4878210     0.8748480
  H       -1.1517560    -1.3070500    -0.8570610
  H       -1.1395970    -1.3178250     0.8849180
  H       -0.2830670     1.1965190     0.0239890
  H        3.8663740    -0.3931470     0.8680960
  H        3.8530680    -0.3842560    -0.8995260
  H        4.4669480     1.0276640    -0.0135300
units angstrom
no_reorient  #important for SAPT in psi4, default
symmetry c1  #important for SAPT in psi4, default
}

set PROPERTIES_ORIGIN ["COM"]
properties('MP2/aug-cc-pvtz', properties = ['dipole'])
--------------------------------------------------------------------------

    Molecular point group: c1
  Charge       = -1
  Multiplicity = 1
  Basis Set: AUG-CC-PVTZ
    Blend: AUG-CC-PVTZ
  Basis Set: (AUG-CC-PVTZ AUX)
    Blend: AUG-CC-PVTZ-JKFIT

    Orbital Energies [Eh]
    ---------------------

    Doubly Occupied:

       1A    -20.394497     2A    -20.321565     3A    -20.309959
       4A    -15.448508     5A    -11.227938     6A    -11.163767
       7A    -11.137526     8A    -11.124523     9A    -11.107488
      10A     -1.241580    11A     -1.186200    12A     -1.099598
      13A     -1.081268    14A     -0.953137    15A     -0.833904
      16A     -0.757613    17A     -0.657827    18A     -0.590017
      19A     -0.543904    20A     -0.536465    21A     -0.507798
      22A     -0.483370    23A     -0.475355    24A     -0.425795
      25A     -0.422863    26A     -0.419571    27A     -0.414789
      28A     -0.396047    29A     -0.382032    30A     -0.344545
      31A     -0.305352    32A     -0.256614    33A     -0.234359
      34A     -0.223800    35A     -0.212292

  @DF-RHF Final Energy:  -473.28235373454504

   => Energetics <=

    Nuclear Repulsion Energy =            433.4504842182568609
    One-Electron Energy =               -1519.0219471617858744
    Two-Electron Energy =                 612.2891092089839731
    Total Energy =                       -473.2823537345450404
  Basis Set: (AUG-CC-PVTZ AUX)
    Blend: AUG-CC-PVTZ-RI
    Molecular point group: c1

    Geometry (in Angstrom), charge = -1, multiplicity = 1:

       Center              X                  Y                   Z               Mass
    ------------   -----------------  -----------------  -----------------  -----------------
         O            1.661292388166    -1.433265014588    -0.007734549650    15.994914619570
         O           -2.368491611834     1.410536985412    -0.015295549650    15.994914619570
         O           -3.431205611834    -0.591017014588    -0.026696549650    15.994914619570
         N            0.091270388166     0.230125985412     0.015971450350    14.003074004430
         C            2.433131388166     0.853686985412     0.002055450350    12.000000000000
         C            1.360730788166    -0.217719914588     0.004478550350    12.000000000000
         C           -1.042980611834    -0.630580014588     0.018215450350    12.000000000000
         C            3.817068988166     0.237325185412    -0.011325249650    12.000000000000
         C           -2.401472611834     0.144535985412     0.032473450350    12.000000000000
         H            2.270701388166     1.512365985412    -0.862060549650     1.007825032230
         H            2.283618388166     1.503554985412     0.875007450350     1.007825032230
         H           -1.045836611834    -1.291316014588    -0.856901549650     1.007825032230
         H           -1.033677611834    -1.302091014588     0.885077450350     1.007825032230
         H           -0.177147611834     1.212252985412     0.024148450350     1.007825032230
         H            3.972293388166    -0.377413014588     0.868255450350     1.007825032230
         H            3.958987388166    -0.368522014588    -0.899366549650     1.007825032230
         H            4.572867388166     1.043397985412    -0.013370549650     1.007825032230

  Basis Set: AUG-CC-PVTZ
    Blend: AUG-CC-PVTZ
  Basis Set: (AUG-CC-PVTZ AUX)
    Blend: AUG-CC-PVTZ-JKFIT
	 Reference Energy          =    -473.2823537345450404 [Eh]
	 Singles Energy            =      -0.0000000000000000 [Eh]
	 Same-Spin Energy          =      -0.4760045684745744 [Eh]
	 Opposite-Spin Energy      =      -1.4650774327783649 [Eh]
	 Correlation Energy        =      -1.9410820012529393 [Eh]
	 Total Energy              =    -475.2234357357979775 [Eh]

	 ================> DF-SCS-MP2 Energies <==================
	-----------------------------------------------------------
	 SCS Same-Spin Scale       =       0.3333333333333333 [-]
	 SCS Opposite-Spin Scale   =       1.2000000000000000 [-]
	 SCS Same-Spin Energy      =      -0.1586681894915248 [Eh]
	 SCS Opposite-Spin Energy  =      -1.7580929193340378 [Eh]
	 SCS Correlation Energy    =      -1.9167611088255625 [Eh]
	 SCS Total Energy          =    -475.1991148433705803 [Eh]
	-----------------------------------------------------------

  Dipole Moment: [D]
     X:     9.9998      Y:     1.4834      Z:     0.1355     Total:    10.1102

*** Psi4 exiting successfully. Buy a developer a beer!
