                               Psi4 1.3.2 release

  ==> Input File <==

--------------------------------------------------------------------------
#psi4
#
memory 32 gb

molecule  {
-1 1
  O        1.5124330    -1.4590691    -0.0077198
  O       -2.4744110     1.3948030    -0.0154550
  O       -3.5371250    -0.6067510    -0.0268560
  N       -0.0291855     0.1701462     0.0155225
  C        2.3272120     0.8379530     0.0018960
  C        1.2455030    -0.2240550     0.0044360
  C       -1.1489000    -0.6463140     0.0180560
  C        3.7164760     0.2336920    -0.0114620
  C       -2.5073920     0.1288020     0.0323140
  H        2.1647820     1.4966320    -0.8622200
  H        2.1776990     1.4878210     0.8748480
  H       -1.1517560    -1.3070500    -0.8570610
  H       -1.1395970    -1.3178250     0.8849180
  H       -0.2830670     1.1965190     0.0239890
  H        3.8663740    -0.3931470     0.8680960
  H        3.8530680    -0.3842560    -0.8995260
  H        4.4669480     1.0276640    -0.0135300
units angstrom
no_reorient  #important for SAPT in psi4, default
symmetry c1  #important for SAPT in psi4, default
}

set PROPERTIES_ORIGIN ["COM"]
properties('MP2/aug-cc-pvtz', properties = ['dipole'])
--------------------------------------------------------------------------

    Molecular point group: c1
  Charge       = -1
  Multiplicity = 1
  Basis Set: AUG-CC-PVTZ
    Blend: AUG-CC-PVTZ
  Basis Set: (AUG-CC-PVTZ AUX)
    Blend: AUG-CC-PVTZ-JKFIT

    Orbital Energies [Eh]
    ---------------------

    Doubly Occupied:

       1A    -20.388382     2A    -20.321841     3A    -20.309762
       4A    -15.450235     5A    -11.226449     6A    -11.163793
       7A    -11.142045     8A    -11.127009     9A    -11.104229
      10A     -1.236148    11A     -1.186093    12A     -1.100928
      13A     -1.081432    14A     -0.956533    15A     -0.839595
      16A     -0.759776    17A     -0.647960    18A     -0.592666
      19A     -0.549204    20A     -0.537579    21A     -0.505882
      22A     -0.487665    23A     -0.473633    24A     -0.429811
      25A     -0.423596    26A     -0.418056    27A     -0.413065
      28A     -0.393673    29A     -0.380273    30A     -0.343010
      31A     -0.302962    32A     -0.251286    33A     -0.234310
      34A     -0.224060    35A     -0.211931

  @DF-RHF Final Energy:  -473.27616984748414

   => Energetics <=

    Nuclear Repulsion Energy =            433.9334732411320488
    One-Electron Energy =               -1519.9895434039240172
    Two-Electron Energy =                 612.7799003153078274
    Total Energy =                       -473.2761698474840841
  Basis Set: (AUG-CC-PVTZ AUX)
    Blend: AUG-CC-PVTZ-RI
    Molecular point group: c1

    Geometry (in Angstrom), charge = -1, multiplicity = 1:

       Center              X                  Y                   Z               Mass
    ------------   -----------------  -----------------  -----------------  -----------------
         O            1.625566215946    -1.439316279362    -0.007563484006    15.994914619570
         O           -2.361277784054     1.414555820638    -0.015298684006    15.994914619570
         O           -3.423991784054    -0.586998179362    -0.026699684006    15.994914619570
         N            0.083947715946     0.189899020638     0.015678815994    14.003074004430
         C            2.440345215946     0.857705820638     0.002052315994    12.000000000000
         C            1.358636215946    -0.204302179362     0.004592315994    12.000000000000
         C           -1.035766784054    -0.626561179362     0.018212315994    12.000000000000
         C            3.829609215946     0.253444820638    -0.011305684006    12.000000000000
         C           -2.394258784054     0.148554820638     0.032470315994    12.000000000000
         H            2.277915215946     1.516384820638    -0.862063684006     1.007825032230
         H            2.290832215946     1.507573820638     0.875004315994     1.007825032230
         H           -1.038622784054    -1.287297179362    -0.856904684006     1.007825032230
         H           -1.026463784054    -1.298072179362     0.885074315994     1.007825032230
         H           -0.169933784054     1.216271820638     0.024145315994     1.007825032230
         H            3.979507215946    -0.373394179362     0.868252315994     1.007825032230
         H            3.966201215946    -0.364503179362    -0.899369684006     1.007825032230
         H            4.580081215946     1.047416820638    -0.013373684006     1.007825032230

  Basis Set: AUG-CC-PVTZ
    Blend: AUG-CC-PVTZ
  Basis Set: (AUG-CC-PVTZ AUX)
    Blend: AUG-CC-PVTZ-JKFIT
	 Reference Energy          =    -473.2761698474841410 [Eh]
	 Singles Energy            =      -0.0000000000000000 [Eh]
	 Same-Spin Energy          =      -0.4768214438991236 [Eh]
	 Opposite-Spin Energy      =      -1.4661943555761074 [Eh]
	 Correlation Energy        =      -1.9430157994752311 [Eh]
	 Total Energy              =    -475.2191856469593745 [Eh]

	 ================> DF-SCS-MP2 Energies <==================
	-----------------------------------------------------------
	 SCS Same-Spin Scale       =       0.3333333333333333 [-]
	 SCS Opposite-Spin Scale   =       1.2000000000000000 [-]
	 SCS Same-Spin Energy      =      -0.1589404812997079 [Eh]
	 SCS Opposite-Spin Energy  =      -1.7594332266913288 [Eh]
	 SCS Correlation Energy    =      -1.9183737079910368 [Eh]
	 SCS Total Energy          =    -475.1945435554751498 [Eh]
	-----------------------------------------------------------

  Dipole Moment: [D]
     X:    10.0449      Y:     1.6678      Z:     0.1362     Total:    10.1833

*** Psi4 exiting successfully. Buy a developer a beer!
