                               Psi4 1.3.2 release

  ==> Input File <==

--------------------------------------------------------------------------
#psi4
#
memory 32 gb

molecule  {
-1 1
  O        1.5553730    -1.4489990    -0.0078940
  O       -2.4744110     1.3948030    -0.0154550
  O       -3.5371250    -0.6067510    -0.0268560
  N       -0.0068044     0.2363185     0.0158650
  C        2.3085136     0.8566693     0.0021261
  C        1.2455030    -0.2240550     0.0044360
  C       -1.1489000    -0.6463140     0.0180560
  C        3.7164760     0.2336920    -0.0114620
  C       -2.5073920     0.1288020     0.0323140
  H        2.1647820     1.4966320    -0.8622200
  H        2.1776990     1.4878210     0.8748480
  H       -1.1517560    -1.3070500    -0.8570610
  H       -1.1395970    -1.3178250     0.8849180
  H       -0.2830670     1.1965190     0.0239890
  H        3.8663740    -0.3931470     0.8680960
  H        3.8530680    -0.3842560    -0.8995260
  H        4.4669480     1.0276640    -0.0135300
units angstrom
no_reorient  #important for SAPT in psi4, default
symmetry c1  #important for SAPT in psi4, default
}

set PROPERTIES_ORIGIN ["COM"]
properties('MP2/aug-cc-pvtz', properties = ['dipole'])
--------------------------------------------------------------------------

    Molecular point group: c1
  Charge       = -1
  Multiplicity = 1
  Basis Set: AUG-CC-PVTZ
    Blend: AUG-CC-PVTZ
  Basis Set: (AUG-CC-PVTZ AUX)
    Blend: AUG-CC-PVTZ-JKFIT

    Orbital Energies [Eh]
    ---------------------

    Doubly Occupied:

       1A    -20.393160     2A    -20.322335     3A    -20.310884
       4A    -15.450471     5A    -11.228147     6A    -11.164640
       7A    -11.135062     8A    -11.124260     9A    -11.110348
      10A     -1.235039    11A     -1.186919    12A     -1.102233
      13A     -1.082365    14A     -0.948247    15A     -0.833930
      16A     -0.759421    17A     -0.666589    18A     -0.589225
      19A     -0.541579    20A     -0.536425    21A     -0.507193
      22A     -0.482055    23A     -0.474193    24A     -0.426974
      25A     -0.419150    26A     -0.417938    27A     -0.414214
      28A     -0.395981    29A     -0.383366    30A     -0.344187
      31A     -0.304185    32A     -0.260177    33A     -0.235201
      34A     -0.224616    35A     -0.213354

  @DF-RHF Final Energy:  -473.28165393193422

   => Energetics <=

    Nuclear Repulsion Energy =            433.0784969000957290
    One-Electron Energy =               -1518.2721813796729293
    Two-Electron Energy =                 611.9120305476430985
    Total Energy =                       -473.2816539319342155
  Basis Set: (AUG-CC-PVTZ AUX)
    Blend: AUG-CC-PVTZ-RI
    Molecular point group: c1

    Geometry (in Angstrom), charge = -1, multiplicity = 1:

       Center              X                  Y                   Z               Mass
    ------------   -----------------  -----------------  -----------------  -----------------
         O            1.662540490925    -1.439336739797    -0.007774369306    15.994914619570
         O           -2.367243509075     1.404465260203    -0.015335369306    15.994914619570
         O           -3.429957509075    -0.597088739797    -0.026736369306    15.994914619570
         N            0.100363090925     0.245980760203     0.015984630694    14.003074004430
         C            2.415681090925     0.866331560203     0.002245730694    12.000000000000
         C            1.352670490925    -0.214392739797     0.004555630694    12.000000000000
         C           -1.041732509075    -0.636651739797     0.018175630694    12.000000000000
         C            3.823643490925     0.243354260203    -0.011342369306    12.000000000000
         C           -2.400224509075     0.138464260203     0.032433630694    12.000000000000
         H            2.271949490925     1.506294260203    -0.862100369306     1.007825032230
         H            2.284866490925     1.497483260203     0.874967630694     1.007825032230
         H           -1.044588509075    -1.297387739797    -0.856941369306     1.007825032230
         H           -1.032429509075    -1.308162739797     0.885037630694     1.007825032230
         H           -0.175899509075     1.206181260203     0.024108630694     1.007825032230
         H            3.973541490925    -0.383484739797     0.868215630694     1.007825032230
         H            3.960235490925    -0.374593739797    -0.899406369306     1.007825032230
         H            4.574115490925     1.037326260203    -0.013410369306     1.007825032230

  Basis Set: AUG-CC-PVTZ
    Blend: AUG-CC-PVTZ
  Basis Set: (AUG-CC-PVTZ AUX)
    Blend: AUG-CC-PVTZ-JKFIT
	 Reference Energy          =    -473.2816539319342155 [Eh]
	 Singles Energy            =      -0.0000000000000000 [Eh]
	 Same-Spin Energy          =      -0.4758261356452304 [Eh]
	 Opposite-Spin Energy      =      -1.4651803174211553 [Eh]
	 Correlation Energy        =      -1.9410064530663855 [Eh]
	 Total Energy              =    -475.2226603850006086 [Eh]

	 ================> DF-SCS-MP2 Energies <==================
	-----------------------------------------------------------
	 SCS Same-Spin Scale       =       0.3333333333333333 [-]
	 SCS Opposite-Spin Scale   =       1.2000000000000000 [-]
	 SCS Same-Spin Energy      =      -0.1586087118817434 [Eh]
	 SCS Opposite-Spin Energy  =      -1.7582163809053863 [Eh]
	 SCS Correlation Energy    =      -1.9168250927871298 [Eh]
	 SCS Total Energy          =    -475.1984790247213368 [Eh]
	-----------------------------------------------------------

  Dipole Moment: [D]
     X:     9.8571      Y:     1.5397      Z:     0.1371     Total:     9.9776

*** Psi4 exiting successfully. Buy a developer a beer!
