                               Psi4 1.3.2 release

  ==> Input File <==

--------------------------------------------------------------------------
#psi4
#
memory 32 gb

molecule  {
-1 1
  O        1.5553730    -1.4489990    -0.0078940
  O       -2.4744110     1.3948030    -0.0154550
  O       -3.5371250    -0.6067510    -0.0268560
  N       -0.0146490     0.2143920     0.0158120
  C        2.3272120     0.8379530     0.0018960
  C        1.2455030    -0.2240550     0.0044360
  C       -1.1337068    -0.6659777     0.0178248
  C        3.7164760     0.2336920    -0.0114620
  C       -2.5073920     0.1288020     0.0323140
  H        2.1647820     1.4966320    -0.8622200
  H        2.1776990     1.4878210     0.8748480
  H       -1.1517560    -1.3070500    -0.8570610
  H       -1.1395970    -1.3178250     0.8849180
  H       -0.2658855     1.2010547     0.0239002
  H        3.8663740    -0.3931470     0.8680960
  H        3.8530680    -0.3842560    -0.8995260
  H        4.4669480     1.0276640    -0.0135300
units angstrom
no_reorient  #important for SAPT in psi4, default
symmetry c1  #important for SAPT in psi4, default
}

set PROPERTIES_ORIGIN ["COM"]
properties('MP2/aug-cc-pvtz', properties = ['dipole'])
--------------------------------------------------------------------------

    Molecular point group: c1
  Charge       = -1
  Multiplicity = 1
  Basis Set: AUG-CC-PVTZ
    Blend: AUG-CC-PVTZ
  Basis Set: (AUG-CC-PVTZ AUX)
    Blend: AUG-CC-PVTZ-JKFIT

    Orbital Energies [Eh]
    ---------------------

    Doubly Occupied:

       1A    -20.391131     2A    -20.322489     3A    -20.310802
       4A    -15.451278     5A    -11.226672     6A    -11.165334
       7A    -11.137437     8A    -11.124041     9A    -11.107387
      10A     -1.235133    11A     -1.185948    12A     -1.102096
      13A     -1.082054    14A     -0.952432    15A     -0.835259
      16A     -0.758027    17A     -0.659284    18A     -0.588344
      19A     -0.542176    20A     -0.535458    21A     -0.508619
      22A     -0.486286    23A     -0.474811    24A     -0.425532
      25A     -0.423243    26A     -0.417467    27A     -0.413559
      28A     -0.398533    29A     -0.379888    30A     -0.345782
      31A     -0.302931    32A     -0.259188    33A     -0.234389
      34A     -0.222248    35A     -0.213072

  @DF-RHF Final Energy:  -473.28131266608943

   => Energetics <=

    Nuclear Repulsion Energy =            433.1976948563477094
    One-Electron Energy =               -1518.5213515888149232
    Two-Electron Energy =                 612.0423440663778365
    Total Energy =                       -473.2813126660894341
  Basis Set: (AUG-CC-PVTZ AUX)
    Blend: AUG-CC-PVTZ-RI
    Molecular point group: c1

    Geometry (in Angstrom), charge = -1, multiplicity = 1:

       Center              X                  Y                   Z               Mass
    ------------   -----------------  -----------------  -----------------  -----------------
         O            1.660124761426    -1.433469575191    -0.007725409389    15.994914619570
         O           -2.369659238574     1.410332424809    -0.015286409389    15.994914619570
         O           -3.432373238574    -0.591221575191    -0.026687409389    15.994914619570
         N            0.090102761426     0.229921424809     0.015980590611    14.003074004430
         C            2.431963761426     0.853482424809     0.002064590611    12.000000000000
         C            1.350254761426    -0.208525575191     0.004604590611    12.000000000000
         C           -1.028955038574    -0.650448275191     0.017993390611    12.000000000000
         C            3.821227761426     0.249221424809    -0.011293409389    12.000000000000
         C           -2.402640238574     0.144331424809     0.032482590611    12.000000000000
         H            2.269533761426     1.512161424809    -0.862051409389     1.007825032230
         H            2.282450761426     1.503350424809     0.875016590611     1.007825032230
         H           -1.047004238574    -1.291520575191    -0.856892409389     1.007825032230
         H           -1.034845238574    -1.302295575191     0.885086590611     1.007825032230
         H           -0.161133738574     1.216584124809     0.024068790611     1.007825032230
         H            3.971125761426    -0.377617575191     0.868264590611     1.007825032230
         H            3.957819761426    -0.368726575191    -0.899357409389     1.007825032230
         H            4.571699761426     1.043193424809    -0.013361409389     1.007825032230

  Basis Set: AUG-CC-PVTZ
    Blend: AUG-CC-PVTZ
  Basis Set: (AUG-CC-PVTZ AUX)
    Blend: AUG-CC-PVTZ-JKFIT
	 Reference Energy          =    -473.2813126660894341 [Eh]
	 Singles Energy            =      -0.0000000000000000 [Eh]
	 Same-Spin Energy          =      -0.4760887800307022 [Eh]
	 Opposite-Spin Energy      =      -1.4653066272189161 [Eh]
	 Correlation Energy        =      -1.9413954072496182 [Eh]
	 Total Energy              =    -475.2227080733390494 [Eh]

	 ================> DF-SCS-MP2 Energies <==================
	-----------------------------------------------------------
	 SCS Same-Spin Scale       =       0.3333333333333333 [-]
	 SCS Opposite-Spin Scale   =       1.2000000000000000 [-]
	 SCS Same-Spin Energy      =      -0.1586962600102340 [Eh]
	 SCS Opposite-Spin Energy  =      -1.7583679526626994 [Eh]
	 SCS Correlation Energy    =      -1.9170642126729334 [Eh]
	 SCS Total Energy          =    -475.1983768787623603 [Eh]
	-----------------------------------------------------------

  Dipole Moment: [D]
     X:     9.8997      Y:     1.5631      Z:     0.1365     Total:    10.0232

*** Psi4 exiting successfully. Buy a developer a beer!
