                               Psi4 1.4a3.dev225

  ==> Input File <==

--------------------------------------------------------------------------
#psi4
#
memory 32 gb

molecule  {
-1 1
  O       -1.5186010     1.5599430    -0.1433510
  O        2.2638970    -1.4295650    -0.0456660
  O        3.5317420     0.4486470     0.1950180
  N        0.0040180    -0.1295860    -0.1151350
  C       -2.3384940    -0.6954940    -0.4149760
  C       -1.2508570     0.3439190    -0.2101810
  C        1.1754880     0.7048690     0.0403840
  C       -3.5055210    -0.4701880     0.5431350
  C        2.4629802    -0.1907395     0.0658669
  H       -2.6873130    -0.6028840    -1.4504550
  H       -1.9319890    -1.7056860    -0.3020050
  H        1.2516430     1.4279040    -0.7806770
  H        1.1211640     1.2868180     0.9683990
  H        0.2309340    -1.1197490    -0.1755670
  H       -3.1861080    -0.6022700     1.5809140
  H       -3.8905480     0.5449040     0.4307430
  H       -4.3152940    -1.1768540     0.3431720
units angstrom
no_reorient  #important for SAPT in psi4, default
symmetry c1  #important for SAPT in psi4, default
}

set PROPERTIES_ORIGIN ["COM"]
properties('MP2/aug-cc-pvtz', properties = ['dipole'])
--------------------------------------------------------------------------

    Molecular point group: c1
  Charge       = -1
  Multiplicity = 1
  Basis Set: AUG-CC-PVTZ
    Blend: AUG-CC-PVTZ
  Basis Set: (AUG-CC-PVTZ AUX)
    Blend: AUG-CC-PVTZ-JKFIT

    Orbital Energies [Eh]
    ---------------------

    Doubly Occupied:

       1A    -20.386033     2A    -20.323549     3A    -20.314766
       4A    -15.443795     5A    -11.220903     6A    -11.163682
       7A    -11.134631     8A    -11.127296     9A    -11.106400
      10A     -1.237264    11A     -1.195236    12A     -1.101008
      13A     -1.083512    14A     -0.948774    15A     -0.827696
      16A     -0.757660    17A     -0.651249    18A     -0.583168
      19A     -0.543962    20A     -0.526203    21A     -0.500868
      22A     -0.484101    23A     -0.474579    24A     -0.436618
      25A     -0.428397    26A     -0.421158    27A     -0.407341
      28A     -0.395464    29A     -0.381224    30A     -0.348116
      31A     -0.297714    32A     -0.255110    33A     -0.241248
      34A     -0.223200    35A     -0.218714

  @DF-RHF Final Energy:  -473.28908117318684

   => Energetics <=

    Nuclear Repulsion Energy =            435.1815563403235956
    One-Electron Energy =               -1522.5599918663151584
    Two-Electron Energy =                 614.0893543528047758
    Total Energy =                       -473.2890811731867871
  Basis Set: (AUG-CC-PVTZ AUX)
    Blend: AUG-CC-PVTZ-RI
    Molecular point group: c1

    Geometry (in Angstrom), charge = -1, multiplicity = 1:

       Center              X                  Y                   Z               Mass
    ------------   -----------------  -----------------  -----------------  -----------------
         O           -1.622236585145     1.546162249544    -0.138689892550    15.994914619570
         O            2.160261414855    -1.443345750456    -0.041004892550    15.994914619570
         O            3.428106414855     0.434866249544     0.199679107450    15.994914619570
         N           -0.099617585145    -0.143366750456    -0.110473892550    14.003074004430
         C           -2.442129585145    -0.709274750456    -0.410314892550    12.000000000000
         C           -1.354492585145     0.330138249544    -0.205519892550    12.000000000000
         C            1.071852414855     0.691088249544     0.045045107450    12.000000000000
         C           -3.609156585145    -0.483968750456     0.547796107450    12.000000000000
         C            2.359344614855    -0.204520250456     0.070528007450    12.000000000000
         H           -2.790948585145    -0.616664750456    -1.445793892550     1.007825032230
         H           -2.035624585145    -1.719466750456    -0.297343892550     1.007825032230
         H            1.148007414855     1.414123249544    -0.776015892550     1.007825032230
         H            1.017528414855     1.273037249544     0.973060107450     1.007825032230
         H            0.127298414855    -1.133529750456    -0.170905892550     1.007825032230
         H           -3.289743585145    -0.616050750456     1.585575107450     1.007825032230
         H           -3.994183585145     0.531123249544     0.435404107450     1.007825032230
         H           -4.418929585145    -1.190634750456     0.347833107450     1.007825032230

  Basis Set: AUG-CC-PVTZ
    Blend: AUG-CC-PVTZ
  Basis Set: (AUG-CC-PVTZ AUX)
    Blend: AUG-CC-PVTZ-JKFIT
	 Reference Energy          =    -473.2890811731868439 [Eh]
	 Singles Energy            =      -0.0000000000000000 [Eh]
	 Same-Spin Energy          =      -0.4755526236411513 [Eh]
	 Opposite-Spin Energy      =      -1.4641255008578180 [Eh]
	 Correlation Energy        =      -1.9396781244989691 [Eh]
	 Total Energy              =    -475.2287592976858264 [Eh]

	 ================> DF-SCS-MP2 Energies <==================
	-----------------------------------------------------------
	 SCS Same-Spin Scale       =       0.3333333333333333 [-]
	 SCS Opposite-Spin Scale   =       1.2000000000000000 [-]
	 SCS Same-Spin Energy      =      -0.1585175412137171 [Eh]
	 SCS Opposite-Spin Energy  =      -1.7569506010293816 [Eh]
	 SCS Correlation Energy    =      -1.9154681422430986 [Eh]
	 SCS Total Energy          =    -475.2045493154299152 [Eh]
	-----------------------------------------------------------

  Dipole Moment: [D]
     X:    -9.2501      Y:    -1.2066      Z:    -0.4084     Total:     9.3374

*** Psi4 exiting successfully. Buy a developer a beer!
