                               Psi4 1.3.2 release

  ==> Input File <==

--------------------------------------------------------------------------
#psi4
#
memory 32 gb

molecule  {
-1 1
  O        1.5553730    -1.4489990    -0.0078940
  O       -2.4744110     1.3948030    -0.0154550
  O       -3.5371250    -0.6067510    -0.0268560
  N       -0.0146490     0.2143920     0.0158120
  C        2.3272120     0.8379530     0.0018960
  C        1.2455030    -0.2240550     0.0044360
  C       -1.1489000    -0.6463140     0.0180560
  C        3.7164760     0.2336920    -0.0114620
  C       -2.6699589     0.0126782     0.0229727
  H        2.1647820     1.4966320    -0.8622200
  H        2.1776990     1.4878210     0.8748480
  H       -1.1517560    -1.3070500    -0.8570610
  H       -1.1395970    -1.3178250     0.8849180
  H       -0.2830670     1.1965190     0.0239890
  H        3.8663740    -0.3931470     0.8680960
  H        3.8530680    -0.3842560    -0.8995260
  H        4.4669480     1.0276640    -0.0135300
units angstrom
no_reorient  #important for SAPT in psi4, default
symmetry c1  #important for SAPT in psi4, default
}

set PROPERTIES_ORIGIN ["COM"]
properties('MP2/aug-cc-pvtz', properties = ['dipole'])
--------------------------------------------------------------------------

    Molecular point group: c1
  Charge       = -1
  Multiplicity = 1
  Basis Set: AUG-CC-PVTZ
    Blend: AUG-CC-PVTZ
  Basis Set: (AUG-CC-PVTZ AUX)
    Blend: AUG-CC-PVTZ-JKFIT

    Orbital Energies [Eh]
    ---------------------

    Doubly Occupied:

       1A    -20.382310     2A    -20.360079     3A    -20.286381
       4A    -15.441154     5A    -11.218535     6A    -11.158757
       7A    -11.130815     8A    -11.118876     9A    -11.094758
      10A     -1.316051    11A     -1.225676    12A     -1.092759
      13A     -1.036152    14A     -0.945405    15A     -0.819366
      16A     -0.747195    17A     -0.647991    18A     -0.580063
      19A     -0.551235    20A     -0.528193    21A     -0.516791
      22A     -0.479366    23A     -0.478792    24A     -0.439930
      25A     -0.434152    26A     -0.432788    27A     -0.413041
      28A     -0.398260    29A     -0.397659    30A     -0.356598
      31A     -0.295276    32A     -0.245666    33A     -0.229759
      34A     -0.208217    35A     -0.186875

  @DF-RHF Final Energy:  -473.21713492591294

   => Energetics <=

    Nuclear Repulsion Energy =            433.2580454552672222
    One-Electron Energy =               -1518.5605250432956836
    Two-Electron Energy =                 612.0853446621155172
    Total Energy =                       -473.2171349259130011
  Basis Set: (AUG-CC-PVTZ AUX)
    Blend: AUG-CC-PVTZ-RI
    Molecular point group: c1

    Geometry (in Angstrom), charge = -1, multiplicity = 1:

       Center              X                  Y                   Z               Mass
    ------------   -----------------  -----------------  -----------------  -----------------
         O            1.676660172668    -1.424533868496    -0.006885491250    15.994914619570
         O           -2.353123827332     1.419268131504    -0.014446491250    15.994914619570
         O           -3.415837827332    -0.582285868496    -0.025847491250    15.994914619570
         N            0.106638172668     0.238857131504     0.016820508750    14.003074004430
         C            2.448499172668     0.862418131504     0.002904508750    12.000000000000
         C            1.366790172668    -0.199589868496     0.005444508750    12.000000000000
         C           -1.027612827332    -0.621848868496     0.019064508750    12.000000000000
         C            3.837763172668     0.258157131504    -0.010453491250    12.000000000000
         C           -2.548671727332     0.037143331504     0.023981208750    12.000000000000
         H            2.286069172668     1.521097131504    -0.861211491250     1.007825032230
         H            2.298986172668     1.512286131504     0.875856508750     1.007825032230
         H           -1.030468827332    -1.282584868496    -0.856052491250     1.007825032230
         H           -1.018309827332    -1.293359868496     0.885926508750     1.007825032230
         H           -0.161779827332     1.220984131504     0.024997508750     1.007825032230
         H            3.987661172668    -0.368681868496     0.869104508750     1.007825032230
         H            3.974355172668    -0.359790868496    -0.898517491250     1.007825032230
         H            4.588235172668     1.052129131504    -0.012521491250     1.007825032230

  Basis Set: AUG-CC-PVTZ
    Blend: AUG-CC-PVTZ
  Basis Set: (AUG-CC-PVTZ AUX)
    Blend: AUG-CC-PVTZ-JKFIT
	 Reference Energy          =    -473.2171349259129443 [Eh]
	 Singles Energy            =      -0.0000000000000000 [Eh]
	 Same-Spin Energy          =      -0.4748206238401096 [Eh]
	 Opposite-Spin Energy      =      -1.4626610629947017 [Eh]
	 Correlation Energy        =      -1.9374816868348113 [Eh]
	 Total Energy              =    -475.1546166127477591 [Eh]

	 ================> DF-SCS-MP2 Energies <==================
	-----------------------------------------------------------
	 SCS Same-Spin Scale       =       0.3333333333333333 [-]
	 SCS Opposite-Spin Scale   =       1.2000000000000000 [-]
	 SCS Same-Spin Energy      =      -0.1582735412800365 [Eh]
	 SCS Opposite-Spin Energy  =      -1.7551932755936419 [Eh]
	 SCS Correlation Energy    =      -1.9134668168736784 [Eh]
	 SCS Total Energy          =    -475.1306017427866095 [Eh]
	-----------------------------------------------------------

  Dipole Moment: [D]
     X:     8.1414      Y:     0.1128      Z:     0.1198     Total:     8.1430

*** Psi4 exiting successfully. Buy a developer a beer!
