                               Psi4 1.3.2 release

  ==> Input File <==

--------------------------------------------------------------------------
#psi4
#
memory 32 gb

molecule  {
-1 1
  O        1.5553730    -1.4489990    -0.0078940
  O       -2.4744110     1.3948030    -0.0154550
  O       -3.5371250    -0.6067510    -0.0268560
  N       -0.0146490     0.2143920     0.0158120
  C        2.3272120     0.8379530     0.0018960
  C        1.2455030    -0.2240550     0.0044360
  C       -1.1489000    -0.6463140     0.0180560
  C        3.7164760     0.2336920    -0.0114620
  C       -2.5886754     0.0707401     0.0276433
  H        2.1647820     1.4966320    -0.8622200
  H        2.1776990     1.4878210     0.8748480
  H       -1.1517560    -1.3070500    -0.8570610
  H       -1.1395970    -1.3178250     0.8849180
  H       -0.2830670     1.1965190     0.0239890
  H        3.8663740    -0.3931470     0.8680960
  H        3.8530680    -0.3842560    -0.8995260
  H        4.4669480     1.0276640    -0.0135300
units angstrom
no_reorient  #important for SAPT in psi4, default
symmetry c1  #important for SAPT in psi4, default
}

set PROPERTIES_ORIGIN ["COM"]
properties('MP2/aug-cc-pvtz', properties = ['dipole'])
--------------------------------------------------------------------------

    Molecular point group: c1
  Charge       = -1
  Multiplicity = 1
  Basis Set: AUG-CC-PVTZ
    Blend: AUG-CC-PVTZ
  Basis Set: (AUG-CC-PVTZ AUX)
    Blend: AUG-CC-PVTZ-JKFIT

    Orbital Energies [Eh]
    ---------------------

    Doubly Occupied:

       1A    -20.387161     2A    -20.334894     3A    -20.303590
       4A    -15.446593     5A    -11.223422     6A    -11.162828
       7A    -11.134401     8A    -11.121649     9A    -11.102812
      10A     -1.232610    11A     -1.228077    12A     -1.101382
      13A     -1.069716    14A     -0.949167    15A     -0.827853
      16A     -0.753233    17A     -0.654270    18A     -0.584160
      19A     -0.544132    20A     -0.531915    21A     -0.504154
      22A     -0.479309    23A     -0.475505    24A     -0.434690
      25A     -0.426107    26A     -0.416676    27A     -0.414225
      28A     -0.396818    29A     -0.385321    30A     -0.352854
      31A     -0.299825    32A     -0.251836    33A     -0.237471
      34A     -0.216984    35A     -0.212338

  @DF-RHF Final Energy:  -473.27141568579702

   => Energetics <=

    Nuclear Repulsion Energy =            433.1452538934510699
    One-Electron Energy =               -1518.4373837005882706
    Two-Electron Energy =                 612.0207141213401201
    Total Energy =                       -473.2714156857970238
  Basis Set: (AUG-CC-PVTZ AUX)
    Blend: AUG-CC-PVTZ-RI
    Molecular point group: c1

    Geometry (in Angstrom), charge = -1, multiplicity = 1:

       Center              X                  Y                   Z               Mass
    ------------   -----------------  -----------------  -----------------  -----------------
         O            1.669159989169    -1.429891350694    -0.007316456416    15.994914619570
         O           -2.360624010831     1.413910649306    -0.014877456416    15.994914619570
         O           -3.423338010831    -0.587643350694    -0.026278456416    15.994914619570
         N            0.099137989169     0.233499649306     0.016389543584    14.003074004430
         C            2.440998989169     0.857060649306     0.002473543584    12.000000000000
         C            1.359289989169    -0.204947350694     0.005013543584    12.000000000000
         C           -1.035113010831    -0.627206350694     0.018633543584    12.000000000000
         C            3.830262989169     0.252799649306    -0.010884456416    12.000000000000
         C           -2.474888410831     0.089847749306     0.028220843584    12.000000000000
         H            2.278568989169     1.515739649306    -0.861642456416     1.007825032230
         H            2.291485989169     1.506928649306     0.875425543584     1.007825032230
         H           -1.037969010831    -1.287942350694    -0.856483456416     1.007825032230
         H           -1.025810010831    -1.298717350694     0.885495543584     1.007825032230
         H           -0.169280010831     1.215626649306     0.024566543584     1.007825032230
         H            3.980160989169    -0.374039350694     0.868673543584     1.007825032230
         H            3.966854989169    -0.365148350694    -0.898948456416     1.007825032230
         H            4.580734989169     1.046771649306    -0.012952456416     1.007825032230

  Basis Set: AUG-CC-PVTZ
    Blend: AUG-CC-PVTZ
  Basis Set: (AUG-CC-PVTZ AUX)
    Blend: AUG-CC-PVTZ-JKFIT
	 Reference Energy          =    -473.2714156857970238 [Eh]
	 Singles Energy            =      -0.0000000000000000 [Eh]
	 Same-Spin Energy          =      -0.4754345990544037 [Eh]
	 Opposite-Spin Energy      =      -1.4638317821238491 [Eh]
	 Correlation Energy        =      -1.9392663811782529 [Eh]
	 Total Energy              =    -475.2106820669752665 [Eh]

	 ================> DF-SCS-MP2 Energies <==================
	-----------------------------------------------------------
	 SCS Same-Spin Scale       =       0.3333333333333333 [-]
	 SCS Opposite-Spin Scale   =       1.2000000000000000 [-]
	 SCS Same-Spin Energy      =      -0.1584781996848012 [Eh]
	 SCS Opposite-Spin Energy  =      -1.7565981385486189 [Eh]
	 SCS Correlation Energy    =      -1.9150763382334202 [Eh]
	 SCS Total Energy          =    -475.1864920240304286 [Eh]
	-----------------------------------------------------------

  Dipole Moment: [D]
     X:     9.0529      Y:     0.8629      Z:     0.1295     Total:     9.0949

*** Psi4 exiting successfully. Buy a developer a beer!
