                               Psi4 1.3.2 release

  ==> Input File <==

--------------------------------------------------------------------------
#psi4
#
memory 32 gb

molecule  {
-1 1
  O        1.5553730    -1.4489990    -0.0078940
  O       -2.4744110     1.3948030    -0.0154550
  O       -3.5371250    -0.6067510    -0.0268560
  N       -0.0146490     0.2143920     0.0158120
  C        2.3272120     0.8379530     0.0018960
  C        1.2208266    -0.2894065     0.0041801
  C       -1.1489000    -0.6463140     0.0180560
  C        3.7164760     0.2336920    -0.0114620
  C       -2.5073920     0.1288020     0.0323140
  H        2.1647820     1.4966320    -0.8622200
  H        2.1776990     1.4878210     0.8748480
  H       -1.1517560    -1.3070500    -0.8570610
  H       -1.1395970    -1.3178250     0.8849180
  H       -0.3341002     1.1811228     0.0242351
  H        3.8663740    -0.3931470     0.8680960
  H        3.8530680    -0.3842560    -0.8995260
  H        4.4669480     1.0276640    -0.0135300
units angstrom
no_reorient  #important for SAPT in psi4, default
symmetry c1  #important for SAPT in psi4, default
}

set PROPERTIES_ORIGIN ["COM"]
properties('MP2/aug-cc-pvtz', properties = ['dipole'])
--------------------------------------------------------------------------

    Molecular point group: c1
  Charge       = -1
  Multiplicity = 1
  Basis Set: AUG-CC-PVTZ
    Blend: AUG-CC-PVTZ
  Basis Set: (AUG-CC-PVTZ AUX)
    Blend: AUG-CC-PVTZ-JKFIT

    Orbital Energies [Eh]
    ---------------------

    Doubly Occupied:

       1A    -20.400621     2A    -20.323892     3A    -20.310943
       4A    -15.445671     5A    -11.226129     6A    -11.164809
       7A    -11.131791     8A    -11.120635     9A    -11.106522
      10A     -1.269414    11A     -1.188317    12A     -1.107195
      13A     -1.083325    14A     -0.941307    15A     -0.829718
      16A     -0.748454    17A     -0.666232    18A     -0.587244
      19A     -0.543184    20A     -0.530410    21A     -0.514496
      22A     -0.485287    23A     -0.481130    24A     -0.426236
      25A     -0.419596    26A     -0.419096    27A     -0.416343
      28A     -0.396524    29A     -0.387043    30A     -0.349025
      31A     -0.299626    32A     -0.260432    33A     -0.236583
      34A     -0.224334    35A     -0.213897

  @DF-RHF Final Energy:  -473.28099689837467

   => Energetics <=

    Nuclear Repulsion Energy =            433.8348977162496567
    One-Electron Energy =               -1519.7208632641402346
    Two-Electron Energy =                 612.6049686495158539
    Total Energy =                       -473.2809968983746103
  Basis Set: (AUG-CC-PVTZ AUX)
    Blend: AUG-CC-PVTZ-RI
    Molecular point group: c1

    Geometry (in Angstrom), charge = -1, multiplicity = 1:

       Center              X                  Y                   Z               Mass
    ------------   -----------------  -----------------  -----------------  -----------------
         O            1.664332234882    -1.429099412635    -0.007725725578    15.994914619570
         O           -2.365451765118     1.414702587365    -0.015286725578    15.994914619570
         O           -3.428165765118    -0.586851412635    -0.026687725578    15.994914619570
         N            0.094310234882     0.234291587365     0.015980274422    14.003074004430
         C            2.436171234882     0.857852587365     0.002064274422    12.000000000000
         C            1.329785834882    -0.269506912635     0.004348374422    12.000000000000
         C           -1.039940765118    -0.626414412635     0.018224274422    12.000000000000
         C            3.825435234882     0.253591587365    -0.011293725578    12.000000000000
         C           -2.398432765118     0.148701587365     0.032482274422    12.000000000000
         H            2.273741234882     1.516531587365    -0.862051725578     1.007825032230
         H            2.286658234882     1.507720587365     0.875016274422     1.007825032230
         H           -1.042796765118    -1.287150412635    -0.856892725578     1.007825032230
         H           -1.030637765118    -1.297925412635     0.885086274422     1.007825032230
         H           -0.225140965118     1.201022387365     0.024403374422     1.007825032230
         H            3.975333234882    -0.373247412635     0.868264274422     1.007825032230
         H            3.962027234882    -0.364356412635    -0.899357725578     1.007825032230
         H            4.575907234882     1.047563587365    -0.013361725578     1.007825032230

  Basis Set: AUG-CC-PVTZ
    Blend: AUG-CC-PVTZ
  Basis Set: (AUG-CC-PVTZ AUX)
    Blend: AUG-CC-PVTZ-JKFIT
	 Reference Energy          =    -473.2809968983746671 [Eh]
	 Singles Energy            =      -0.0000000000000000 [Eh]
	 Same-Spin Energy          =      -0.4752334451690385 [Eh]
	 Opposite-Spin Energy      =      -1.4634245567726905 [Eh]
	 Correlation Energy        =      -1.9386580019417290 [Eh]
	 Total Energy              =    -475.2196549003164137 [Eh]

	 ================> DF-SCS-MP2 Energies <==================
	-----------------------------------------------------------
	 SCS Same-Spin Scale       =       0.3333333333333333 [-]
	 SCS Opposite-Spin Scale   =       1.2000000000000000 [-]
	 SCS Same-Spin Energy      =      -0.1584111483896795 [Eh]
	 SCS Opposite-Spin Energy  =      -1.7561094681272285 [Eh]
	 SCS Correlation Energy    =      -1.9145206165169080 [Eh]
	 SCS Total Energy          =    -475.1955175148915487 [Eh]
	-----------------------------------------------------------

  Dipole Moment: [D]
     X:     9.7558      Y:     1.1728      Z:     0.1345     Total:     9.8270

*** Psi4 exiting successfully. Buy a developer a beer!
