                               Psi4 1.3.2 release

  ==> Input File <==

--------------------------------------------------------------------------
#psi4
#
memory 32 gb

molecule  {
-1 1
  O        1.5553730    -1.4489990    -0.0078940
  O       -2.4744110     1.3948030    -0.0154550
  O       -3.5371250    -0.6067510    -0.0268560
  N       -0.0146490     0.2143920     0.0158120
  C        2.3272120     0.8379530     0.0018960
  C        1.2455030    -0.2240550     0.0044360
  C       -1.1489000    -0.6463140     0.0180560
  C        3.7164760     0.2336920    -0.0114620
  C       -2.3448251     0.2449258     0.0416553
  H        2.1647820     1.4966320    -0.8622200
  H        2.1776990     1.4878210     0.8748480
  H       -1.1517560    -1.3070500    -0.8570610
  H       -1.1395970    -1.3178250     0.8849180
  H       -0.2830670     1.1965190     0.0239890
  H        3.8663740    -0.3931470     0.8680960
  H        3.8530680    -0.3842560    -0.8995260
  H        4.4669480     1.0276640    -0.0135300
units angstrom
no_reorient  #important for SAPT in psi4, default
symmetry c1  #important for SAPT in psi4, default
}

set PROPERTIES_ORIGIN ["COM"]
properties('MP2/aug-cc-pvtz', properties = ['dipole'])
--------------------------------------------------------------------------

    Molecular point group: c1
  Charge       = -1
  Multiplicity = 1
  Basis Set: AUG-CC-PVTZ
    Blend: AUG-CC-PVTZ
  Basis Set: (AUG-CC-PVTZ AUX)
    Blend: AUG-CC-PVTZ-JKFIT

    Orbital Energies [Eh]
    ---------------------

    Doubly Occupied:

       1A    -20.398756     2A    -20.361176     3A    -20.267292
       4A    -15.458639     5A    -11.234006     6A    -11.163108
       7A    -11.142810     8A    -11.128213     9A    -11.118854
      10A     -1.252277    11A     -1.240125    12A     -1.113843
      13A     -0.992006    14A     -0.958066    15A     -0.852333
      16A     -0.766848    17A     -0.672325    18A     -0.601663
      19A     -0.552774    20A     -0.541374    21A     -0.523125
      22A     -0.495881    23A     -0.488670    24A     -0.447790
      25A     -0.428127    26A     -0.424315    27A     -0.416138
      28A     -0.398416    29A     -0.389800    30A     -0.361067
      31A     -0.309131    32A     -0.266979    33A     -0.218583
      34A     -0.184141    35A     -0.175364

  @DF-RHF Final Energy:  -473.22466045961357

   => Energetics <=

    Nuclear Repulsion Energy =            434.5494194721458712
    One-Electron Energy =               -1520.8601317098125492
    Two-Electron Energy =                 613.0860517780530472
    Total Energy =                       -473.2246604596135739
  Basis Set: (AUG-CC-PVTZ AUX)
    Blend: AUG-CC-PVTZ-RI
    Molecular point group: c1

    Geometry (in Angstrom), charge = -1, multiplicity = 1:

       Center              X                  Y                   Z               Mass
    ------------   -----------------  -----------------  -----------------  -----------------
         O            1.646659457127    -1.445963797290    -0.008609370367    15.994914619570
         O           -2.383124542873     1.397838202710    -0.016170370367    15.994914619570
         O           -3.445838542873    -0.603715797290    -0.027571370367    15.994914619570
         N            0.076637457127     0.217427202710     0.015096629633    14.003074004430
         C            2.418498457127     0.840988202710     0.001180629633    12.000000000000
         C            1.336789457127    -0.221019797290     0.003720629633    12.000000000000
         C           -1.057613542873    -0.643278797290     0.017340629633    12.000000000000
         C            3.807762457127     0.236727202710    -0.012177370367    12.000000000000
         C           -2.253538642873     0.247961002710     0.040939929633    12.000000000000
         H            2.256068457127     1.499667202710    -0.862935370367     1.007825032230
         H            2.268985457127     1.490856202710     0.874132629633     1.007825032230
         H           -1.060469542873    -1.304014797290    -0.857776370367     1.007825032230
         H           -1.048310542873    -1.314789797290     0.884202629633     1.007825032230
         H           -0.191780542873     1.199554202710     0.023273629633     1.007825032230
         H            3.957660457127    -0.390111797290     0.867380629633     1.007825032230
         H            3.944354457127    -0.381220797290    -0.900241370367     1.007825032230
         H            4.558234457127     1.030699202710    -0.014245370367     1.007825032230

  Basis Set: AUG-CC-PVTZ
    Blend: AUG-CC-PVTZ
  Basis Set: (AUG-CC-PVTZ AUX)
    Blend: AUG-CC-PVTZ-JKFIT
	 Reference Energy          =    -473.2246604596135739 [Eh]
	 Singles Energy            =      -0.0000000000000000 [Eh]
	 Same-Spin Energy          =      -0.4779734748634122 [Eh]
	 Opposite-Spin Energy      =      -1.4700612682793472 [Eh]
	 Correlation Energy        =      -1.9480347431427594 [Eh]
	 Total Energy              =    -475.1726952027563584 [Eh]

	 ================> DF-SCS-MP2 Energies <==================
	-----------------------------------------------------------
	 SCS Same-Spin Scale       =       0.3333333333333333 [-]
	 SCS Opposite-Spin Scale   =       1.2000000000000000 [-]
	 SCS Same-Spin Energy      =      -0.1593244916211374 [Eh]
	 SCS Opposite-Spin Energy  =      -1.7640735219352166 [Eh]
	 SCS Correlation Energy    =      -1.9233980135563540 [Eh]
	 SCS Total Energy          =    -475.1480584731699537 [Eh]
	-----------------------------------------------------------

  Dipole Moment: [D]
     X:    11.5088      Y:     2.8659      Z:     0.1478     Total:    11.8611

*** Psi4 exiting successfully. Buy a developer a beer!
