                               Psi4 1.3.2 release

  ==> Input File <==

--------------------------------------------------------------------------
#psi4
#
memory 32 gb

molecule  {
-1 1
  O        1.5553730    -1.4489990    -0.0078940
  O       -2.4744110     1.3948030    -0.0154550
  O       -3.5371250    -0.6067510    -0.0268560
  N       -0.0146490     0.2143920     0.0158120
  C        2.3272120     0.8379530     0.0018960
  C        1.3025637    -0.2792105     0.0037317
  C       -1.1489000    -0.6463140     0.0180560
  C        3.6829452     0.1618094    -0.0115831
  C       -2.5073920     0.1288020     0.0323140
  H        2.1647820     1.4966320    -0.8622200
  H        2.1776990     1.4878210     0.8748480
  H       -1.1517560    -1.3070500    -0.8570610
  H       -1.1395970    -1.3178250     0.8849180
  H       -0.2830670     1.1965190     0.0239890
  H        3.8663740    -0.3931470     0.8680960
  H        3.8530680    -0.3842560    -0.8995260
  H        4.4669480     1.0276640    -0.0135300
units angstrom
no_reorient  #important for SAPT in psi4, default
symmetry c1  #important for SAPT in psi4, default
}

set PROPERTIES_ORIGIN ["COM"]
properties('MP2/aug-cc-pvtz', properties = ['dipole'])
--------------------------------------------------------------------------

    Molecular point group: c1
  Charge       = -1
  Multiplicity = 1
  Basis Set: AUG-CC-PVTZ
    Blend: AUG-CC-PVTZ
  Basis Set: (AUG-CC-PVTZ AUX)
    Blend: AUG-CC-PVTZ-JKFIT

    Orbital Energies [Eh]
    ---------------------

    Doubly Occupied:

       1A    -20.409929     2A    -20.316853     3A    -20.305663
       4A    -15.434417     5A    -11.229586     6A    -11.158894
       7A    -11.138349     8A    -11.127831     9A    -11.100545
      10A     -1.280387    11A     -1.181693    12A     -1.084632
      13A     -1.073181    14A     -0.957107    15A     -0.823038
      16A     -0.753294    17A     -0.647525    18A     -0.591886
      19A     -0.544919    20A     -0.539725    21A     -0.517662
      22A     -0.480758    23A     -0.475496    24A     -0.431440
      25A     -0.431272    26A     -0.418676    27A     -0.404151
      28A     -0.395646    29A     -0.390440    30A     -0.344629
      31A     -0.311626    32A     -0.248355    33A     -0.229745
      34A     -0.218554    35A     -0.207578

  @DF-RHF Final Energy:  -473.27155432893551

   => Energetics <=

    Nuclear Repulsion Energy =            433.8567124836542916
    One-Electron Energy =               -1519.8455710833586636
    Two-Electron Energy =                 612.7173042707688637
    Total Energy =                       -473.2715543289355082
  Basis Set: (AUG-CC-PVTZ AUX)
    Blend: AUG-CC-PVTZ-RI
    Molecular point group: c1

    Geometry (in Angstrom), charge = -1, multiplicity = 1:

       Center              X                  Y                   Z               Mass
    ------------   -----------------  -----------------  -----------------  -----------------
         O            1.659488666168    -1.423526785228    -0.007671269577    15.994914619570
         O           -2.370295333832     1.420275214772    -0.015232269577    15.994914619570
         O           -3.433009333832    -0.581278785228    -0.026633269577    15.994914619570
         N            0.089466666168     0.239864214772     0.016034730423    14.003074004430
         C            2.431327666168     0.863425214772     0.002118730423    12.000000000000
         C            1.406679366168    -0.253738285228     0.003954430423    12.000000000000
         C           -1.044784333832    -0.620841785228     0.018278730423    12.000000000000
         C            3.787060866168     0.187281614772    -0.011360369577    12.000000000000
         C           -2.403276333832     0.154274214772     0.032536730423    12.000000000000
         H            2.268897666168     1.522104214772    -0.861997269577     1.007825032230
         H            2.281814666168     1.513293214772     0.875070730423     1.007825032230
         H           -1.047640333832    -1.281577785228    -0.856838269577     1.007825032230
         H           -1.035481333832    -1.292352785228     0.885140730423     1.007825032230
         H           -0.178951333832     1.221991214772     0.024211730423     1.007825032230
         H            3.970489666168    -0.367674785228     0.868318730423     1.007825032230
         H            3.957183666168    -0.358783785228    -0.899303269577     1.007825032230
         H            4.571063666168     1.053136214772    -0.013307269577     1.007825032230

  Basis Set: AUG-CC-PVTZ
    Blend: AUG-CC-PVTZ
  Basis Set: (AUG-CC-PVTZ AUX)
    Blend: AUG-CC-PVTZ-JKFIT
	 Reference Energy          =    -473.2715543289355082 [Eh]
	 Singles Energy            =      -0.0000000000000000 [Eh]
	 Same-Spin Energy          =      -0.4753703863090568 [Eh]
	 Opposite-Spin Energy      =      -1.4639171335817058 [Eh]
	 Correlation Energy        =      -1.9392875198907626 [Eh]
	 Total Energy              =    -475.2108418488262487 [Eh]

	 ================> DF-SCS-MP2 Energies <==================
	-----------------------------------------------------------
	 SCS Same-Spin Scale       =       0.3333333333333333 [-]
	 SCS Opposite-Spin Scale   =       1.2000000000000000 [-]
	 SCS Same-Spin Energy      =      -0.1584567954363523 [Eh]
	 SCS Opposite-Spin Energy  =      -1.7567005602980470 [Eh]
	 SCS Correlation Energy    =      -1.9151573557343993 [Eh]
	 SCS Total Energy          =    -475.1867116846698877 [Eh]
	-----------------------------------------------------------

  Dipole Moment: [D]
     X:    10.5310      Y:     1.0776      Z:     0.1294     Total:    10.5868

*** Psi4 exiting successfully. Buy a developer a beer!
