                               Psi4 1.3.2 release

  ==> Input File <==

--------------------------------------------------------------------------
#psi4
#
memory 32 gb

molecule  {
-1 1
  O        1.5553730    -1.4489990    -0.0078940
  O       -2.4744110     1.3948030    -0.0154550
  O       -3.5371250    -0.6067510    -0.0268560
  N       -0.0146490     0.2143920     0.0158120
  C        2.3272120     0.8379530     0.0018960
  C        1.2455030    -0.2240550     0.0044360
  C       -1.1489000    -0.6463140     0.0180560
  C        3.7164760     0.2336920    -0.0114620
  C       -2.5073920     0.1288020     0.0323140
  H        2.1647820     1.4966320    -0.8622200
  H        2.1776990     1.4878210     0.8748480
  H       -1.1517560    -1.3070500    -0.8570610
  H       -1.1412937    -1.1953501     0.7268136
  H       -0.2830670     1.1965190     0.0239890
  H        3.8663740    -0.3931470     0.8680960
  H        3.8530680    -0.3842560    -0.8995260
  H        4.4669480     1.0276640    -0.0135300
units angstrom
no_reorient  #important for SAPT in psi4, default
symmetry c1  #important for SAPT in psi4, default
}

set PROPERTIES_ORIGIN ["COM"]
properties('MP2/aug-cc-pvtz', properties = ['dipole'])
--------------------------------------------------------------------------

    Molecular point group: c1
  Charge       = -1
  Multiplicity = 1
  Basis Set: AUG-CC-PVTZ
    Blend: AUG-CC-PVTZ
  Basis Set: (AUG-CC-PVTZ AUX)
    Blend: AUG-CC-PVTZ-JKFIT

    Orbital Energies [Eh]
    ---------------------

    Doubly Occupied:

       1A    -20.390754     2A    -20.321764     3A    -20.311343
       4A    -15.449422     5A    -11.227071     6A    -11.163723
       7A    -11.137078     8A    -11.123784     9A    -11.084177
      10A     -1.234867    11A     -1.186904    12A     -1.102339
      13A     -1.082470    14A     -0.952782    15A     -0.851018
      16A     -0.765839    17A     -0.665176    18A     -0.589429
      19A     -0.544874    20A     -0.537790    21A     -0.522047
      22A     -0.493120    23A     -0.474519    24A     -0.430333
      25A     -0.424982    26A     -0.419039    27A     -0.413485
      28A     -0.399169    29A     -0.380376    30A     -0.348195
      31A     -0.302906    32A     -0.260321    33A     -0.235062
      34A     -0.224409    35A     -0.213388

  @DF-RHF Final Energy:  -473.24896712042261

   => Energetics <=

    Nuclear Repulsion Energy =            434.5176071509638405
    One-Electron Energy =               -1521.0052418306436266
    Two-Electron Energy =                 613.2386675592572374
    Total Energy =                       -473.2489671204225488
  Basis Set: (AUG-CC-PVTZ AUX)
    Blend: AUG-CC-PVTZ-RI
    Molecular point group: c1

    Geometry (in Angstrom), charge = -1, multiplicity = 1:

       Center              X                  Y                   Z               Mass
    ------------   -----------------  -----------------  -----------------  -----------------
         O            1.661672963465    -1.436197951487    -0.006522201591    15.994914619570
         O           -2.368111036535     1.407604048513    -0.014083201591    15.994914619570
         O           -3.430825036535    -0.593949951487    -0.025484201591    15.994914619570
         N            0.091650963465     0.227193048513     0.017183798409    14.003074004430
         C            2.433511963465     0.850754048513     0.003267798409    12.000000000000
         C            1.351802963465    -0.211253951487     0.005807798409    12.000000000000
         C           -1.042600036535    -0.633512951487     0.019427798409    12.000000000000
         C            3.822775963465     0.246493048513    -0.010090201591    12.000000000000
         C           -2.401092036535     0.141603048513     0.033685798409    12.000000000000
         H            2.271081963465     1.509433048513    -0.860848201591     1.007825032230
         H            2.283998963465     1.500622048513     0.876219798409     1.007825032230
         H           -1.045456036535    -1.294248951487    -0.855689201591     1.007825032230
         H           -1.034993736535    -1.182549051487     0.728185398409     1.007825032230
         H           -0.176767036535     1.209320048513     0.025360798409     1.007825032230
         H            3.972673963465    -0.380345951487     0.869467798409     1.007825032230
         H            3.959367963465    -0.371454951487    -0.898154201591     1.007825032230
         H            4.573247963465     1.040465048513    -0.012158201591     1.007825032230

  Basis Set: AUG-CC-PVTZ
    Blend: AUG-CC-PVTZ
  Basis Set: (AUG-CC-PVTZ AUX)
    Blend: AUG-CC-PVTZ-JKFIT
	 Reference Energy          =    -473.2489671204226056 [Eh]
	 Singles Energy            =      -0.0000000000000000 [Eh]
	 Same-Spin Energy          =      -0.4760493143311559 [Eh]
	 Opposite-Spin Energy      =      -1.4647071390259385 [Eh]
	 Correlation Energy        =      -1.9407564533570945 [Eh]
	 Total Energy              =    -475.1897235737797018 [Eh]

	 ================> DF-SCS-MP2 Energies <==================
	-----------------------------------------------------------
	 SCS Same-Spin Scale       =       0.3333333333333333 [-]
	 SCS Opposite-Spin Scale   =       1.2000000000000000 [-]
	 SCS Same-Spin Energy      =      -0.1586831047770520 [Eh]
	 SCS Opposite-Spin Energy  =      -1.7576485668311261 [Eh]
	 SCS Correlation Energy    =      -1.9163316716081782 [Eh]
	 SCS Total Energy          =    -475.1652987920307964 [Eh]
	-----------------------------------------------------------

  Dipole Moment: [D]
     X:     9.8637      Y:     1.5167      Z:     0.1807     Total:     9.9813

*** Psi4 exiting successfully. Buy a developer a beer!
