                               Psi4 1.3.2 release

  ==> Input File <==

--------------------------------------------------------------------------
#psi4
#
memory 32 gb

molecule  {
-1 1
  O        1.5553730    -1.4489990    -0.0078940
  O       -2.4744110     1.3948030    -0.0154550
  O       -3.5371250    -0.6067510    -0.0268560
  N       -0.0146490     0.2143920     0.0158120
  C        2.3272120     0.8379530     0.0018960
  C        1.2455030    -0.2240550     0.0044360
  C       -1.1489000    -0.6463140     0.0180560
  C        3.7164760     0.2336920    -0.0114620
  C       -2.4998728     0.1419179     0.0095837
  H        2.1647820     1.4966320    -0.8622200
  H        2.1776990     1.4878210     0.8748480
  H       -1.1517560    -1.3070500    -0.8570610
  H       -1.1222049    -1.3239418     0.8797817
  H       -0.2830670     1.1965190     0.0239890
  H        3.8663740    -0.3931470     0.8680960
  H        3.8530680    -0.3842560    -0.8995260
  H        4.4669480     1.0276640    -0.0135300
units angstrom
no_reorient  #important for SAPT in psi4, default
symmetry c1  #important for SAPT in psi4, default
}

set PROPERTIES_ORIGIN ["COM"]
properties('MP2/aug-cc-pvtz', properties = ['dipole'])
--------------------------------------------------------------------------

    Molecular point group: c1
  Charge       = -1
  Multiplicity = 1
  Basis Set: AUG-CC-PVTZ
    Blend: AUG-CC-PVTZ
  Basis Set: (AUG-CC-PVTZ AUX)
    Blend: AUG-CC-PVTZ-JKFIT

    Orbital Energies [Eh]
    ---------------------

    Doubly Occupied:

       1A    -20.391697     2A    -20.326122     3A    -20.307230
       4A    -15.451334     5A    -11.227688     6A    -11.164713
       7A    -11.137745     8A    -11.124251     9A    -11.108807
      10A     -1.235515    11A     -1.189606    12A     -1.101872
      13A     -1.081531    14A     -0.952754    15A     -0.836447
      16A     -0.758391    17A     -0.660745    18A     -0.590186
      19A     -0.544679    20A     -0.535492    21A     -0.508104
      22A     -0.483950    23A     -0.475486    24A     -0.426248
      25A     -0.425359    26A     -0.417072    27A     -0.413543
      28A     -0.397843    29A     -0.380379    30A     -0.344901
      31A     -0.303454    32A     -0.257996    33A     -0.236740
      34A     -0.223087    35A     -0.212358

  @DF-RHF Final Energy:  -473.28178614638051

   => Energetics <=

    Nuclear Repulsion Energy =            433.4683473003200334
    One-Electron Energy =               -1519.0336212350468941
    Two-Electron Energy =                 612.2834877883464060
    Total Energy =                       -473.2817861463805684
  Basis Set: (AUG-CC-PVTZ AUX)
    Blend: AUG-CC-PVTZ-RI
    Molecular point group: c1

    Geometry (in Angstrom), charge = -1, multiplicity = 1:

       Center              X                  Y                   Z               Mass
    ------------   -----------------  -----------------  -----------------  -----------------
         O            1.660831223992    -1.436411659880    -0.005610258966    15.994914619570
         O           -2.368952776008     1.407390340120    -0.013171258966    15.994914619570
         O           -3.431666776008    -0.594163659880    -0.024572258966    15.994914619570
         N            0.090809223992     0.226979340120     0.018095741034    14.003074004430
         C            2.432670223992     0.850540340120     0.004179741034    12.000000000000
         C            1.350961223992    -0.211467659880     0.006719741034    12.000000000000
         C           -1.043441776008    -0.633726659880     0.020339741034    12.000000000000
         C            3.821934223992     0.246279340120    -0.009178258966    12.000000000000
         C           -2.394414576008     0.154505240120     0.011867441034    12.000000000000
         H            2.270240223992     1.509219340120    -0.859936258966     1.007825032230
         H            2.283157223992     1.500408340120     0.877131741034     1.007825032230
         H           -1.046297776008    -1.294462659880    -0.854777258966     1.007825032230
         H           -1.016746676008    -1.311354459880     0.882065441034     1.007825032230
         H           -0.177608776008     1.209106340120     0.026272741034     1.007825032230
         H            3.971832223992    -0.380559659880     0.870379741034     1.007825032230
         H            3.958526223992    -0.371668659880    -0.897242258966     1.007825032230
         H            4.572406223992     1.040251340120    -0.011246258966     1.007825032230

  Basis Set: AUG-CC-PVTZ
    Blend: AUG-CC-PVTZ
  Basis Set: (AUG-CC-PVTZ AUX)
    Blend: AUG-CC-PVTZ-JKFIT
	 Reference Energy          =    -473.2817861463805116 [Eh]
	 Singles Energy            =      -0.0000000000000000 [Eh]
	 Same-Spin Energy          =      -0.4761217837867582 [Eh]
	 Opposite-Spin Energy      =      -1.4652973068228405 [Eh]
	 Correlation Energy        =      -1.9414190906095987 [Eh]
	 Total Energy              =    -475.2232052369901112 [Eh]

	 ================> DF-SCS-MP2 Energies <==================
	-----------------------------------------------------------
	 SCS Same-Spin Scale       =       0.3333333333333333 [-]
	 SCS Opposite-Spin Scale   =       1.2000000000000000 [-]
	 SCS Same-Spin Energy      =      -0.1587072612622527 [Eh]
	 SCS Opposite-Spin Energy  =      -1.7583567681874086 [Eh]
	 SCS Correlation Energy    =      -1.9170640294496613 [Eh]
	 SCS Total Energy          =    -475.1988501758301595 [Eh]
	-----------------------------------------------------------

  Dipole Moment: [D]
     X:     9.9823      Y:     1.6964      Z:     0.1226     Total:    10.1262

*** Psi4 exiting successfully. Buy a developer a beer!
