                               Psi4 1.3.2 release

  ==> Input File <==

--------------------------------------------------------------------------
#psi4
#
memory 32 gb

molecule  {
-1 1
  O        1.5553730    -1.4489990    -0.0078940
  O       -2.4744110     1.3948030    -0.0154550
  O       -3.5306499    -0.6157049    -0.0272021
  N       -0.0146490     0.2143920     0.0158120
  C        2.3272120     0.8379530     0.0018960
  C        1.2455030    -0.2240550     0.0044360
  C       -1.1557116    -0.6581181     0.0172976
  C        3.7164760     0.2336920    -0.0114620
  C       -2.5073920     0.1288020     0.0323140
  H        2.1647820     1.4966320    -0.8622200
  H        2.1776990     1.4878210     0.8748480
  H       -1.1517560    -1.3070500    -0.8570610
  H       -1.1395970    -1.3178250     0.8849180
  H       -0.2830670     1.1965190     0.0239890
  H        3.8663740    -0.3931470     0.8680960
  H        3.8530680    -0.3842560    -0.8995260
  H        4.4669480     1.0276640    -0.0135300
units angstrom
no_reorient  #important for SAPT in psi4, default
symmetry c1  #important for SAPT in psi4, default
}

set PROPERTIES_ORIGIN ["COM"]
properties('MP2/aug-cc-pvtz', properties = ['dipole'])
--------------------------------------------------------------------------

    Molecular point group: c1
  Charge       = -1
  Multiplicity = 1
  Basis Set: AUG-CC-PVTZ
    Blend: AUG-CC-PVTZ
  Basis Set: (AUG-CC-PVTZ AUX)
    Blend: AUG-CC-PVTZ-JKFIT

    Orbital Energies [Eh]
    ---------------------

    Doubly Occupied:

       1A    -20.390557     2A    -20.323525     3A    -20.311099
       4A    -15.450363     5A    -11.226647     6A    -11.165055
       7A    -11.136983     8A    -11.123683     9A    -11.108275
      10A     -1.234115    11A     -1.187150    12A     -1.099557
      13A     -1.083262    14A     -0.951809    15A     -0.835547
      16A     -0.758611    17A     -0.658848    18A     -0.588597
      19A     -0.543244    20A     -0.534714    21A     -0.506916
      22A     -0.484598    23A     -0.474134    24A     -0.425969
      25A     -0.424925    26A     -0.417437    27A     -0.413548
      28A     -0.396804    29A     -0.379999    30A     -0.344909
      31A     -0.302502    32A     -0.258384    33A     -0.236321
      34A     -0.224506    35A     -0.213880

  @DF-RHF Final Energy:  -473.28243871364913

   => Energetics <=

    Nuclear Repulsion Energy =            433.2529247720925696
    One-Electron Energy =               -1518.6377834347429143
    Two-Electron Energy =                 612.1024199490013871
    Total Energy =                       -473.2824387136490714
  Basis Set: (AUG-CC-PVTZ AUX)
    Blend: AUG-CC-PVTZ-RI
    Molecular point group: c1

    Geometry (in Angstrom), charge = -1, multiplicity = 1:

       Center              X                  Y                   Z               Mass
    ------------   -----------------  -----------------  -----------------  -----------------
         O            1.661491960984    -1.433058404979    -0.007634884919    15.994914619570
         O           -2.368292039016     1.410743595021    -0.015195884919    15.994914619570
         O           -3.424530939016    -0.599764304979    -0.026942984919    15.994914619570
         N            0.091469960984     0.230332595021     0.016071115081    14.003074004430
         C            2.433330960984     0.853893595021     0.002155115081    12.000000000000
         C            1.351621960984    -0.208114404979     0.004695115081    12.000000000000
         C           -1.049592639016    -0.642177504979     0.017556715081    12.000000000000
         C            3.822594960984     0.249632595021    -0.011202884919    12.000000000000
         C           -2.401273039016     0.144742595021     0.032573115081    12.000000000000
         H            2.270900960984     1.512572595021    -0.861960884919     1.007825032230
         H            2.283817960984     1.503761595021     0.875107115081     1.007825032230
         H           -1.045637039016    -1.291109404979    -0.856801884919     1.007825032230
         H           -1.033478039016    -1.301884404979     0.885177115081     1.007825032230
         H           -0.176948039016     1.212459595021     0.024248115081     1.007825032230
         H            3.972492960984    -0.377206404979     0.868355115081     1.007825032230
         H            3.959186960984    -0.368315404979    -0.899266884919     1.007825032230
         H            4.573066960984     1.043604595021    -0.013270884919     1.007825032230

  Basis Set: AUG-CC-PVTZ
    Blend: AUG-CC-PVTZ
  Basis Set: (AUG-CC-PVTZ AUX)
    Blend: AUG-CC-PVTZ-JKFIT
	 Reference Energy          =    -473.2824387136491282 [Eh]
	 Singles Energy            =      -0.0000000000000000 [Eh]
	 Same-Spin Energy          =      -0.4760531250569443 [Eh]
	 Opposite-Spin Energy      =      -1.4653491338928033 [Eh]
	 Correlation Energy        =      -1.9414022589497475 [Eh]
	 Total Energy              =    -475.2238409725988504 [Eh]

	 ================> DF-SCS-MP2 Energies <==================
	-----------------------------------------------------------
	 SCS Same-Spin Scale       =       0.3333333333333333 [-]
	 SCS Opposite-Spin Scale   =       1.2000000000000000 [-]
	 SCS Same-Spin Energy      =      -0.1586843750189814 [Eh]
	 SCS Opposite-Spin Energy  =      -1.7584189606713638 [Eh]
	 SCS Correlation Energy    =      -1.9171033356903453 [Eh]
	 SCS Total Energy          =    -475.1995420493394704 [Eh]
	-----------------------------------------------------------

  Dipole Moment: [D]
     X:     9.8315      Y:     1.5635      Z:     0.1363     Total:     9.9560

*** Psi4 exiting successfully. Buy a developer a beer!
