                               Psi4 1.3.2 release

  ==> Input File <==

--------------------------------------------------------------------------
#psi4
#
memory 32 gb

molecule  {
-1 1
  O        1.5553730    -1.4489990    -0.0078940
  O       -2.4744110     1.3948030    -0.0154550
  O       -3.5371250    -0.6067510    -0.0268560
  N       -0.0146490     0.2143920     0.0158120
  C        2.3272120     0.8379530     0.0018960
  C        1.2294319    -0.2677673     0.0042619
  C       -1.1489000    -0.6463140     0.0180560
  C        3.7164760     0.2336920    -0.0114620
  C       -2.5073920     0.1288020     0.0323140
  H        2.1647820     1.4966320    -0.8622200
  H        2.1776990     1.4878210     0.8748480
  H       -1.1517560    -1.3070500    -0.8570610
  H       -1.1395970    -1.3178250     0.8849180
  H       -0.3171796     1.1865515     0.0241556
  H        3.8663740    -0.3931470     0.8680960
  H        3.8530680    -0.3842560    -0.8995260
  H        4.4669480     1.0276640    -0.0135300
units angstrom
no_reorient  #important for SAPT in psi4, default
symmetry c1  #important for SAPT in psi4, default
}

set PROPERTIES_ORIGIN ["COM"]
properties('MP2/aug-cc-pvtz', properties = ['dipole'])
--------------------------------------------------------------------------

    Molecular point group: c1
  Charge       = -1
  Multiplicity = 1
  Basis Set: AUG-CC-PVTZ
    Blend: AUG-CC-PVTZ
  Basis Set: (AUG-CC-PVTZ AUX)
    Blend: AUG-CC-PVTZ-JKFIT

    Orbital Energies [Eh]
    ---------------------

    Doubly Occupied:

       1A    -20.397509     2A    -20.323368     3A    -20.310852
       4A    -15.447393     5A    -11.226484     6A    -11.164731
       7A    -11.133970     8A    -11.121837     9A    -11.107228
      10A     -1.257343    11A     -1.187861    12A     -1.105785
      13A     -1.082982    14A     -0.944980    15A     -0.831843
      16A     -0.751784    17A     -0.664195    18A     -0.587985
      19A     -0.543159    20A     -0.531836    21A     -0.511414
      22A     -0.484829    23A     -0.479862    24A     -0.425866
      25A     -0.421338    26A     -0.417625    27A     -0.415624
      28A     -0.396559    29A     -0.385232    30A     -0.347554
      31A     -0.301880    32A     -0.259620    33A     -0.236089
      34A     -0.224478    35A     -0.213621

  @DF-RHF Final Energy:  -473.28297944402414

   => Energetics <=

    Nuclear Repulsion Energy =            433.6762188769512250
    One-Electron Energy =               -1519.4289659717203449
    Two-Electron Energy =                 612.4697676507449842
    Total Energy =                       -473.2829794440241358
  Basis Set: (AUG-CC-PVTZ AUX)
    Blend: AUG-CC-PVTZ-RI
    Molecular point group: c1

    Geometry (in Angstrom), charge = -1, multiplicity = 1:

       Center              X                  Y                   Z               Mass
    ------------   -----------------  -----------------  -----------------  -----------------
         O            1.663407081346    -1.431138172552    -0.007732657335    15.994914619570
         O           -2.366376918654     1.412663827448    -0.015293657335    15.994914619570
         O           -3.429090918654    -0.588890172552    -0.026694657335    15.994914619570
         N            0.093385081346     0.232252827448     0.015973342665    14.003074004430
         C            2.435246081346     0.855813827448     0.002057342665    12.000000000000
         C            1.337465981346    -0.249906472552     0.004423242665    12.000000000000
         C           -1.040865918654    -0.628453172552     0.018217342665    12.000000000000
         C            3.824510081346     0.251552827448    -0.011300657335    12.000000000000
         C           -2.399357918654     0.146662827448     0.032475342665    12.000000000000
         H            2.272816081346     1.514492827448    -0.862058657335     1.007825032230
         H            2.285733081346     1.505681827448     0.875009342665     1.007825032230
         H           -1.043721918654    -1.289189172552    -0.856899657335     1.007825032230
         H           -1.031562918654    -1.299964172552     0.885079342665     1.007825032230
         H           -0.209145518654     1.204412327448     0.024316942665     1.007825032230
         H            3.974408081346    -0.375286172552     0.868257342665     1.007825032230
         H            3.961102081346    -0.366395172552    -0.899364657335     1.007825032230
         H            4.574982081346     1.045524827448    -0.013368657335     1.007825032230

  Basis Set: AUG-CC-PVTZ
    Blend: AUG-CC-PVTZ
  Basis Set: (AUG-CC-PVTZ AUX)
    Blend: AUG-CC-PVTZ-JKFIT
	 Reference Energy          =    -473.2829794440241358 [Eh]
	 Singles Energy            =      -0.0000000000000000 [Eh]
	 Same-Spin Energy          =      -0.4754818910590015 [Eh]
	 Opposite-Spin Energy      =      -1.4639622203579705 [Eh]
	 Correlation Energy        =      -1.9394441114169720 [Eh]
	 Total Energy              =    -475.2224235554410825 [Eh]

	 ================> DF-SCS-MP2 Energies <==================
	-----------------------------------------------------------
	 SCS Same-Spin Scale       =       0.3333333333333333 [-]
	 SCS Opposite-Spin Scale   =       1.2000000000000000 [-]
	 SCS Same-Spin Energy      =      -0.1584939636863338 [Eh]
	 SCS Opposite-Spin Energy  =      -1.7567546644295646 [Eh]
	 SCS Correlation Energy    =      -1.9152486281158985 [Eh]
	 SCS Total Energy          =    -475.1982280721400116 [Eh]
	-----------------------------------------------------------

  Dipole Moment: [D]
     X:     9.8105      Y:     1.3085      Z:     0.1352     Total:     9.8983

*** Psi4 exiting successfully. Buy a developer a beer!
