                               Psi4 1.4a3.dev225

  ==> Input File <==

--------------------------------------------------------------------------
#psi4
#
memory 32 gb

molecule  {
-1 1
  O       -1.5186010     1.5599430    -0.1433510
  O        2.2638970    -1.4295650    -0.0456660
  O        3.5317420     0.4486470     0.1950180
  N        0.0040180    -0.1295860    -0.1151350
  C       -2.3384940    -0.6954940    -0.4149760
  C       -1.2508570     0.3439190    -0.2101810
  C        1.1592926     0.6933328     0.0382340
  C       -3.5055210    -0.4701880     0.5431350
  C        2.4465640    -0.1793200     0.0655420
  H       -2.6873130    -0.6028840    -1.4504550
  H       -1.9319890    -1.7056860    -0.3020050
  H        1.2516430     1.4279040    -0.7806770
  H        1.1211640     1.2868180     0.9683990
  H        0.2309340    -1.1197490    -0.1755670
  H       -3.1861080    -0.6022700     1.5809140
  H       -3.8905480     0.5449040     0.4307430
  H       -4.3152940    -1.1768540     0.3431720
units angstrom
no_reorient  #important for SAPT in psi4, default
symmetry c1  #important for SAPT in psi4, default
}

set PROPERTIES_ORIGIN ["COM"]
properties('MP2/aug-cc-pvtz', properties = ['dipole'])
--------------------------------------------------------------------------

    Molecular point group: c1
  Charge       = -1
  Multiplicity = 1
  Basis Set: AUG-CC-PVTZ
    Blend: AUG-CC-PVTZ
  Basis Set: (AUG-CC-PVTZ AUX)
    Blend: AUG-CC-PVTZ-JKFIT

    Orbital Energies [Eh]
    ---------------------

    Doubly Occupied:

       1A    -20.388047     2A    -20.322212     3A    -20.313927
       4A    -15.445729     5A    -11.222828     6A    -11.163983
       7A    -11.135857     8A    -11.128219     9A    -11.108246
      10A     -1.239610    11A     -1.190113    12A     -1.099725
      13A     -1.083446    14A     -0.950392    15A     -0.831412
      16A     -0.759270    17A     -0.654219    18A     -0.586740
      19A     -0.546718    20A     -0.526612    21A     -0.503293
      22A     -0.485751    23A     -0.475901    24A     -0.436957
      25A     -0.426647    26A     -0.419984    27A     -0.407592
      28A     -0.395719    29A     -0.380930    30A     -0.344570
      31A     -0.299430    32A     -0.255542    33A     -0.238356
      34A     -0.225240    35A     -0.215915

  @DF-RHF Final Energy:  -473.28734106669759

   => Energetics <=

    Nuclear Repulsion Energy =            435.4642597237554469
    One-Electron Energy =               -1523.0849342639976385
    Two-Electron Energy =                 614.3333334735445987
    Total Energy =                       -473.2873410666975360
  Basis Set: (AUG-CC-PVTZ AUX)
    Blend: AUG-CC-PVTZ-RI
    Molecular point group: c1

    Geometry (in Angstrom), charge = -1, multiplicity = 1:

       Center              X                  Y                   Z               Mass
    ------------   -----------------  -----------------  -----------------  -----------------
         O           -1.619227450644     1.546173017675    -0.138461528809    15.994914619570
         O            2.163270549356    -1.443334982325    -0.040776528809    15.994914619570
         O            3.431115549356     0.434877017675     0.199907471191    15.994914619570
         N           -0.096608450644    -0.143355982325    -0.110245528809    14.003074004430
         C           -2.439120450644    -0.709263982325    -0.410086528809    12.000000000000
         C           -1.351483450644     0.330149017675    -0.205291528809    12.000000000000
         C            1.058666149356     0.679562817675     0.043123471191    12.000000000000
         C           -3.606147450644    -0.483957982325     0.548024471191    12.000000000000
         C            2.345937549356    -0.193089982325     0.070431471191    12.000000000000
         H           -2.787939450644    -0.616653982325    -1.445565528809     1.007825032230
         H           -2.032615450644    -1.719455982325    -0.297115528809     1.007825032230
         H            1.151016549356     1.414134017675    -0.775787528809     1.007825032230
         H            1.020537549356     1.273048017675     0.973288471191     1.007825032230
         H            0.130307549356    -1.133518982325    -0.170677528809     1.007825032230
         H           -3.286734450644    -0.616039982325     1.585803471191     1.007825032230
         H           -3.991174450644     0.531134017675     0.435632471191     1.007825032230
         H           -4.415920450644    -1.190623982325     0.348061471191     1.007825032230

  Basis Set: AUG-CC-PVTZ
    Blend: AUG-CC-PVTZ
  Basis Set: (AUG-CC-PVTZ AUX)
    Blend: AUG-CC-PVTZ-JKFIT
	 Reference Energy          =    -473.2873410666975929 [Eh]
	 Singles Energy            =      -0.0000000000000000 [Eh]
	 Same-Spin Energy          =      -0.4759968799848425 [Eh]
	 Opposite-Spin Energy      =      -1.4648314141771781 [Eh]
	 Correlation Energy        =      -1.9408282941620207 [Eh]
	 Total Energy              =    -475.2281693608596242 [Eh]

	 ================> DF-SCS-MP2 Energies <==================
	-----------------------------------------------------------
	 SCS Same-Spin Scale       =       0.3333333333333333 [-]
	 SCS Opposite-Spin Scale   =       1.2000000000000000 [-]
	 SCS Same-Spin Energy      =      -0.1586656266616142 [Eh]
	 SCS Opposite-Spin Energy  =      -1.7577976970126137 [Eh]
	 SCS Correlation Energy    =      -1.9164633236742279 [Eh]
	 SCS Total Energy          =    -475.2038043903718290 [Eh]
	-----------------------------------------------------------

  Dipole Moment: [D]
     X:    -9.4309      Y:    -1.1690      Z:    -0.4176     Total:     9.5123

*** Psi4 exiting successfully. Buy a developer a beer!
