                               Psi4 1.3.2 release

  ==> Input File <==

--------------------------------------------------------------------------
#psi4
#
memory 32 gb

molecule  {
-1 1
  O        1.5446717    -1.4516573    -0.0078093
  O       -2.4744110     1.3948030    -0.0154550
  O       -3.5371250    -0.6067510    -0.0268560
  N       -0.0146490     0.2143920     0.0158120
  C        2.3179040     0.8473516     0.0020585
  C        1.2455030    -0.2240550     0.0044360
  C       -1.1489000    -0.6463140     0.0180560
  C        3.7164760     0.2336920    -0.0114620
  C       -2.5073920     0.1288020     0.0323140
  H        2.1647820     1.4966320    -0.8622200
  H        2.1776990     1.4878210     0.8748480
  H       -1.1517560    -1.3070500    -0.8570610
  H       -1.1395970    -1.3178250     0.8849180
  H       -0.2830670     1.1965190     0.0239890
  H        3.8663740    -0.3931470     0.8680960
  H        3.8530680    -0.3842560    -0.8995260
  H        4.4669480     1.0276640    -0.0135300
units angstrom
no_reorient  #important for SAPT in psi4, default
symmetry c1  #important for SAPT in psi4, default
}

set PROPERTIES_ORIGIN ["COM"]
properties('MP2/aug-cc-pvtz', properties = ['dipole'])
--------------------------------------------------------------------------

    Molecular point group: c1
  Charge       = -1
  Multiplicity = 1
  Basis Set: AUG-CC-PVTZ
    Blend: AUG-CC-PVTZ
  Basis Set: (AUG-CC-PVTZ AUX)
    Blend: AUG-CC-PVTZ-JKFIT

    Orbital Energies [Eh]
    ---------------------

    Doubly Occupied:

       1A    -20.391529     2A    -20.322238     3A    -20.310568
       4A    -15.450610     5A    -11.227469     6A    -11.164431
       7A    -11.137411     8A    -11.124921     9A    -11.108425
      10A     -1.235255    11A     -1.186718    12A     -1.101792
      13A     -1.082114    14A     -0.951365    15A     -0.835915
      16A     -0.759196    17A     -0.660118    18A     -0.590303
      19A     -0.544115    20A     -0.536360    21A     -0.506944
      22A     -0.483894    23A     -0.474325    24A     -0.425435
      25A     -0.422124    26A     -0.418368    27A     -0.414477
      28A     -0.396359    29A     -0.381800    30A     -0.343846
      31A     -0.303794    32A     -0.257413    33A     -0.234985
      34A     -0.224536    35A     -0.212969

  @DF-RHF Final Energy:  -473.28188844393787

   => Energetics <=

    Nuclear Repulsion Energy =            433.3612308675561167
    One-Electron Energy =               -1518.8419959856619244
    Two-Electron Energy =                 612.1988766741679910
    Total Energy =                       -473.2818884439378735
  Basis Set: (AUG-CC-PVTZ AUX)
    Blend: AUG-CC-PVTZ-RI
    Molecular point group: c1

    Geometry (in Angstrom), charge = -1, multiplicity = 1:

       Center              X                  Y                   Z               Mass
    ------------   -----------------  -----------------  -----------------  -----------------
         O            1.653133535815    -1.438447415035    -0.007688142255    15.994914619570
         O           -2.365949164185     1.408012884965    -0.015333842255    15.994914619570
         O           -3.428663164185    -0.593541115035    -0.026734842255    15.994914619570
         N            0.093812835815     0.227601884965     0.015933157745    14.003074004430
         C            2.426365835815     0.860561484965     0.002179657745    12.000000000000
         C            1.353964835815    -0.210845115035     0.004557157745    12.000000000000
         C           -1.040438164185    -0.633104115035     0.018177157745    12.000000000000
         C            3.824937835815     0.246901884965    -0.011340842255    12.000000000000
         C           -2.398930164185     0.142011884965     0.032435157745    12.000000000000
         H            2.273243835815     1.509841884965    -0.862098842255     1.007825032230
         H            2.286160835815     1.501030884965     0.874969157745     1.007825032230
         H           -1.043294164185    -1.293840115035    -0.856939842255     1.007825032230
         H           -1.031135164185    -1.304615115035     0.885039157745     1.007825032230
         H           -0.174605164185     1.209728884965     0.024110157745     1.007825032230
         H            3.974835835815    -0.379937115035     0.868217157745     1.007825032230
         H            3.961529835815    -0.371046115035    -0.899404842255     1.007825032230
         H            4.575409835815     1.040873884965    -0.013408842255     1.007825032230

  Basis Set: AUG-CC-PVTZ
    Blend: AUG-CC-PVTZ
  Basis Set: (AUG-CC-PVTZ AUX)
    Blend: AUG-CC-PVTZ-JKFIT
	 Reference Energy          =    -473.2818884439378735 [Eh]
	 Singles Energy            =      -0.0000000000000000 [Eh]
	 Same-Spin Energy          =      -0.4761021054153685 [Eh]
	 Opposite-Spin Energy      =      -1.4653644544210098 [Eh]
	 Correlation Energy        =      -1.9414665598363783 [Eh]
	 Total Energy              =    -475.2233550037742589 [Eh]

	 ================> DF-SCS-MP2 Energies <==================
	-----------------------------------------------------------
	 SCS Same-Spin Scale       =       0.3333333333333333 [-]
	 SCS Opposite-Spin Scale   =       1.2000000000000000 [-]
	 SCS Same-Spin Energy      =      -0.1587007018051228 [Eh]
	 SCS Opposite-Spin Energy  =      -1.7584373453052118 [Eh]
	 SCS Correlation Energy    =      -1.9171380471103345 [Eh]
	 SCS Total Energy          =    -475.1990264910481869 [Eh]
	-----------------------------------------------------------

  Dipole Moment: [D]
     X:     9.9155      Y:     1.5790      Z:     0.1367     Total:    10.0414

*** Psi4 exiting successfully. Buy a developer a beer!
