                               Psi4 1.3.2 release

  ==> Input File <==

--------------------------------------------------------------------------
#psi4
#
memory 32 gb

molecule  {
-1 1
  O        1.5553730    -1.4489990    -0.0078940
  O       -2.4744110     1.3948030    -0.0154550
  O       -3.5240969    -0.6246020    -0.0275437
  N       -0.0146490     0.2143920     0.0158120
  C        2.3272120     0.8379530     0.0018960
  C        1.2455030    -0.2240550     0.0044360
  C       -1.1626262    -0.6698623     0.0165404
  C        3.7164760     0.2336920    -0.0114620
  C       -2.5073920     0.1288020     0.0323140
  H        2.1647820     1.4966320    -0.8622200
  H        2.1776990     1.4878210     0.8748480
  H       -1.1517560    -1.3070500    -0.8570610
  H       -1.1395970    -1.3178250     0.8849180
  H       -0.2830670     1.1965190     0.0239890
  H        3.8663740    -0.3931470     0.8680960
  H        3.8530680    -0.3842560    -0.8995260
  H        4.4669480     1.0276640    -0.0135300
units angstrom
no_reorient  #important for SAPT in psi4, default
symmetry c1  #important for SAPT in psi4, default
}

set PROPERTIES_ORIGIN ["COM"]
properties('MP2/aug-cc-pvtz', properties = ['dipole'])
--------------------------------------------------------------------------

    Molecular point group: c1
  Charge       = -1
  Multiplicity = 1
  Basis Set: AUG-CC-PVTZ
    Blend: AUG-CC-PVTZ
  Basis Set: (AUG-CC-PVTZ AUX)
    Blend: AUG-CC-PVTZ-JKFIT

    Orbital Energies [Eh]
    ---------------------

    Doubly Occupied:

       1A    -20.389683     2A    -20.324553     3A    -20.311402
       4A    -15.449444     5A    -11.225744     6A    -11.165404
       7A    -11.136405     8A    -11.123267     9A    -11.107733
      10A     -1.233015    11A     -1.187348    12A     -1.096960
      13A     -1.083979    14A     -0.951078    15A     -0.834807
      16A     -0.758662    17A     -0.657473    18A     -0.587321
      19A     -0.541929    20A     -0.534122    21A     -0.506447
      22A     -0.485191    23A     -0.473363    24A     -0.426402
      25A     -0.424479    26A     -0.417734    27A     -0.413300
      28A     -0.396602    29A     -0.379794    30A     -0.345831
      31A     -0.301695    32A     -0.258800    33A     -0.237398
      34A     -0.224127    35A     -0.214562

  @DF-RHF Final Energy:  -473.28262878065289

   => Energetics <=

    Nuclear Repulsion Energy =            433.1242815519611327
    One-Electron Energy =               -1518.4017146917706214
    Two-Electron Energy =                 611.9948043591566602
    Total Energy =                       -473.2826287806528853
  Basis Set: (AUG-CC-PVTZ AUX)
    Blend: AUG-CC-PVTZ-RI
    Molecular point group: c1

    Geometry (in Angstrom), charge = -1, multiplicity = 1:

       Center              X                  Y                   Z               Mass
    ------------   -----------------  -----------------  -----------------  -----------------
         O            1.661324030147    -1.430880489991    -0.007523003212    15.994914619570
         O           -2.368459969853     1.412921510009    -0.015084003212    15.994914619570
         O           -3.418145869853    -0.606483489991    -0.027172703212    15.994914619570
         N            0.091302030147     0.232510510009     0.016182996788    14.003074004430
         C            2.433163030147     0.856071510009     0.002266996788    12.000000000000
         C            1.351454030147    -0.205936489991     0.004806996788    12.000000000000
         C           -1.056675169853    -0.651743789991     0.016911396788    12.000000000000
         C            3.822427030147     0.251810510009    -0.011091003212    12.000000000000
         C           -2.401440969853     0.146920510009     0.032684996788    12.000000000000
         H            2.270733030147     1.514750510009    -0.861849003212     1.007825032230
         H            2.283650030147     1.505939510009     0.875218996788     1.007825032230
         H           -1.045804969853    -1.288931489991    -0.856690003212     1.007825032230
         H           -1.033645969853    -1.299706489991     0.885288996788     1.007825032230
         H           -0.177115969853     1.214637510009     0.024359996788     1.007825032230
         H            3.972325030147    -0.375028489991     0.868466996788     1.007825032230
         H            3.959019030147    -0.366137489991    -0.899155003212     1.007825032230
         H            4.572899030147     1.045782510009    -0.013159003212     1.007825032230

  Basis Set: AUG-CC-PVTZ
    Blend: AUG-CC-PVTZ
  Basis Set: (AUG-CC-PVTZ AUX)
    Blend: AUG-CC-PVTZ-JKFIT
	 Reference Energy          =    -473.2826287806528853 [Eh]
	 Singles Energy            =      -0.0000000000000000 [Eh]
	 Same-Spin Energy          =      -0.4759647901085897 [Eh]
	 Opposite-Spin Energy      =      -1.4653413999497804 [Eh]
	 Correlation Energy        =      -1.9413061900583701 [Eh]
	 Total Energy              =    -475.2239349707112410 [Eh]

	 ================> DF-SCS-MP2 Energies <==================
	-----------------------------------------------------------
	 SCS Same-Spin Scale       =       0.3333333333333333 [-]
	 SCS Opposite-Spin Scale   =       1.2000000000000000 [-]
	 SCS Same-Spin Energy      =      -0.1586549300361966 [Eh]
	 SCS Opposite-Spin Energy  =      -1.7584096799397364 [Eh]
	 SCS Correlation Energy    =      -1.9170646099759330 [Eh]
	 SCS Total Energy          =    -475.1996933906287950 [Eh]
	-----------------------------------------------------------

  Dipole Moment: [D]
     X:     9.7659      Y:     1.5637      Z:     0.1359     Total:     9.8913

*** Psi4 exiting successfully. Buy a developer a beer!
