                               Psi4 1.3.2 release

  ==> Input File <==

--------------------------------------------------------------------------
#psi4
#
memory 32 gb

molecule  {
-1 1
  O        1.5553730    -1.4489990    -0.0078940
  O       -2.4744110     1.3948030    -0.0154550
  O       -3.5371250    -0.6067510    -0.0268560
  N       -0.0146490     0.2143920     0.0158120
  C        2.3272120     0.8379530     0.0018960
  C        1.2455030    -0.2240550     0.0044360
  C       -1.1489000    -0.6463140     0.0180560
  C        3.7164760     0.2336920    -0.0114620
  C       -2.5036840     0.1353897     0.0209490
  H        2.1647820     1.4966320    -0.8622200
  H        2.1776990     1.4878210     0.8748480
  H       -1.1517560    -1.3070500    -0.8570610
  H       -1.1309003    -1.3209091     0.8823828
  H       -0.2830670     1.1965190     0.0239890
  H        3.8663740    -0.3931470     0.8680960
  H        3.8530680    -0.3842560    -0.8995260
  H        4.4669480     1.0276640    -0.0135300
units angstrom
no_reorient  #important for SAPT in psi4, default
symmetry c1  #important for SAPT in psi4, default
}

set PROPERTIES_ORIGIN ["COM"]
properties('MP2/aug-cc-pvtz', properties = ['dipole'])
--------------------------------------------------------------------------

    Molecular point group: c1
  Charge       = -1
  Multiplicity = 1
  Basis Set: AUG-CC-PVTZ
    Blend: AUG-CC-PVTZ
  Basis Set: (AUG-CC-PVTZ AUX)
    Blend: AUG-CC-PVTZ-JKFIT

    Orbital Energies [Eh]
    ---------------------

    Doubly Occupied:

       1A    -20.391559     2A    -20.324308     3A    -20.309016
       4A    -15.451280     5A    -11.227611     6A    -11.164714
       7A    -11.137646     8A    -11.124170     9A    -11.108837
      10A     -1.235365    11A     -1.188069    12A     -1.102076
      13A     -1.082282    14A     -0.952643    15A     -0.836382
      16A     -0.758464    17A     -0.660476    18A     -0.590051
      19A     -0.544702    20A     -0.535402    21A     -0.507629
      22A     -0.484044    23A     -0.475173    24A     -0.425754
      25A     -0.425492    26A     -0.417097    27A     -0.413689
      28A     -0.397341    29A     -0.380258    30A     -0.344430
      31A     -0.303378    32A     -0.257907    33A     -0.236039
      34A     -0.224027    35A     -0.212860

  @DF-RHF Final Energy:  -473.28196055092360

   => Energetics <=

    Nuclear Repulsion Energy =            433.4276605691597410
    One-Electron Energy =               -1518.9588935480996952
    Two-Electron Energy =                 612.2492724280162975
    Total Energy =                       -473.2819605509235998
  Basis Set: (AUG-CC-PVTZ AUX)
    Blend: AUG-CC-PVTZ-RI
    Molecular point group: c1

    Geometry (in Angstrom), charge = -1, multiplicity = 1:

       Center              X                  Y                   Z               Mass
    ------------   -----------------  -----------------  -----------------  -----------------
         O            1.661250275638    -1.435832792313    -0.006679114074    15.994914619570
         O           -2.368533724362     1.407969207687    -0.014240114074    15.994914619570
         O           -3.431247724362    -0.593584792313    -0.025641114074    15.994914619570
         N            0.091228275638     0.227558207687     0.017026885926    14.003074004430
         C            2.433089275638     0.851119207687     0.003110885926    12.000000000000
         C            1.351380275638    -0.210888792313     0.005650885926    12.000000000000
         C           -1.043022724362    -0.633147792313     0.019270885926    12.000000000000
         C            3.822353275638     0.246858207687    -0.010247114074    12.000000000000
         C           -2.397806724362     0.148555907687     0.022163885926    12.000000000000
         H            2.270659275638     1.509798207687    -0.861005114074     1.007825032230
         H            2.283576275638     1.500987207687     0.876062885926     1.007825032230
         H           -1.045878724362    -1.293883792313    -0.855846114074     1.007825032230
         H           -1.025023024362    -1.307742892313     0.883597685926     1.007825032230
         H           -0.177189724362     1.209685207687     0.025203885926     1.007825032230
         H            3.972251275638    -0.379980792313     0.869310885926     1.007825032230
         H            3.958945275638    -0.371089792313    -0.898311114074     1.007825032230
         H            4.572825275638     1.040830207687    -0.012315114074     1.007825032230

  Basis Set: AUG-CC-PVTZ
    Blend: AUG-CC-PVTZ
  Basis Set: (AUG-CC-PVTZ AUX)
    Blend: AUG-CC-PVTZ-JKFIT
	 Reference Energy          =    -473.2819605509235998 [Eh]
	 Singles Energy            =      -0.0000000000000000 [Eh]
	 Same-Spin Energy          =      -0.4761339174034642 [Eh]
	 Opposite-Spin Energy      =      -1.4653267594713988 [Eh]
	 Correlation Energy        =      -1.9414606768748630 [Eh]
	 Total Energy              =    -475.2234212277984398 [Eh]

	 ================> DF-SCS-MP2 Energies <==================
	-----------------------------------------------------------
	 SCS Same-Spin Scale       =       0.3333333333333333 [-]
	 SCS Opposite-Spin Scale   =       1.2000000000000000 [-]
	 SCS Same-Spin Energy      =      -0.1587113058011547 [Eh]
	 SCS Opposite-Spin Energy  =      -1.7583921113656784 [Eh]
	 SCS Correlation Energy    =      -1.9171034171668331 [Eh]
	 SCS Total Energy          =    -475.1990639680904565 [Eh]
	-----------------------------------------------------------

  Dipole Moment: [D]
     X:     9.9385      Y:     1.6301      Z:     0.1297     Total:    10.0721

*** Psi4 exiting successfully. Buy a developer a beer!
