                               Psi4 1.3.2 release

  ==> Input File <==

--------------------------------------------------------------------------
#psi4
#
memory 32 gb

molecule  {
-1 1
  O        1.5553730    -1.4489990    -0.0078940
  O       -2.4744110     1.3948030    -0.0154550
  O       -3.5371250    -0.6067510    -0.0268560
  N       -0.0146490     0.2143920     0.0158120
  C        2.3272120     0.8379530     0.0018960
  C        1.2455030    -0.2240550     0.0044360
  C       -1.1489000    -0.6463140     0.0180560
  C        3.6984237     0.1959046     0.0559002
  C       -2.5073920     0.1288020     0.0323140
  H        2.1116700     1.5067561    -0.8426050
  H        2.1776990     1.4878210     0.8748480
  H       -1.1517560    -1.3070500    -0.8570610
  H       -1.1395970    -1.3178250     0.8849180
  H       -0.2830670     1.1965190     0.0239890
  H        3.8663740    -0.3931470     0.8680960
  H        3.8530680    -0.3842560    -0.8995260
  H        4.4669480     1.0276640    -0.0135300
units angstrom
no_reorient  #important for SAPT in psi4, default
symmetry c1  #important for SAPT in psi4, default
}

set PROPERTIES_ORIGIN ["COM"]
properties('MP2/aug-cc-pvtz', properties = ['dipole'])
--------------------------------------------------------------------------

    Molecular point group: c1
  Charge       = -1
  Multiplicity = 1
  Basis Set: AUG-CC-PVTZ
    Blend: AUG-CC-PVTZ
  Basis Set: (AUG-CC-PVTZ AUX)
    Blend: AUG-CC-PVTZ-JKFIT

    Orbital Energies [Eh]
    ---------------------

    Doubly Occupied:

       1A    -20.391196     2A    -20.322492     3A    -20.310769
       4A    -15.450778     5A    -11.226537     6A    -11.164671
       7A    -11.138212     8A    -11.126318     9A    -11.108708
      10A     -1.235221    11A     -1.186957    12A     -1.102234
      13A     -1.082354    14A     -0.953071    15A     -0.836614
      16A     -0.760422    17A     -0.660242    18A     -0.589698
      19A     -0.544037    20A     -0.537435    21A     -0.507971
      22A     -0.486611    23A     -0.470520    24A     -0.442283
      25A     -0.423047    26A     -0.416434    27A     -0.404959
      28A     -0.393034    29A     -0.378298    30A     -0.343899
      31A     -0.302912    32A     -0.257743    33A     -0.235242
      34A     -0.224714    35A     -0.213185

  @DF-RHF Final Energy:  -473.27287174463527

   => Energetics <=

    Nuclear Repulsion Energy =            433.7078686550933071
    One-Electron Energy =               -1519.5038478083943119
    Two-Electron Energy =                 612.5231074086657372
    Total Energy =                       -473.2728717446352675
  Basis Set: (AUG-CC-PVTZ AUX)
    Blend: AUG-CC-PVTZ-RI
    Molecular point group: c1

    Geometry (in Angstrom), charge = -1, multiplicity = 1:

       Center              X                  Y                   Z               Mass
    ------------   -----------------  -----------------  -----------------  -----------------
         O            1.663737126197    -1.431840574119    -0.014115075757    15.994914619570
         O           -2.366046873803     1.411961425881    -0.021676075757    15.994914619570
         O           -3.428760873803    -0.589592574119    -0.033077075757    15.994914619570
         N            0.093715126197     0.231550425881     0.009590924243    14.003074004430
         C            2.435576126197     0.855111425881    -0.004325075757    12.000000000000
         C            1.353867126197    -0.206896574119    -0.001785075757    12.000000000000
         C           -1.040535873803    -0.629155574119     0.011834924243    12.000000000000
         C            3.806787826197     0.213063025881     0.049679124243    12.000000000000
         C           -2.399027873803     0.145960425881     0.026092924243    12.000000000000
         H            2.220034126197     1.523914525881    -0.848826075757     1.007825032230
         H            2.286063126197     1.504979425881     0.868626924243     1.007825032230
         H           -1.043391873803    -1.289891574119    -0.863282075757     1.007825032230
         H           -1.031232873803    -1.300666574119     0.878696924243     1.007825032230
         H           -0.174702873803     1.213677425881     0.017767924243     1.007825032230
         H            3.974738126197    -0.375988574119     0.861874924243     1.007825032230
         H            3.961432126197    -0.367097574119    -0.905747075757     1.007825032230
         H            4.575312126197     1.044822425881    -0.019751075757     1.007825032230

  Basis Set: AUG-CC-PVTZ
    Blend: AUG-CC-PVTZ
  Basis Set: (AUG-CC-PVTZ AUX)
    Blend: AUG-CC-PVTZ-JKFIT
	 Reference Energy          =    -473.2728717446352675 [Eh]
	 Singles Energy            =      -0.0000000000000000 [Eh]
	 Same-Spin Energy          =      -0.4763323256196260 [Eh]
	 Opposite-Spin Energy      =      -1.4657328078788416 [Eh]
	 Correlation Energy        =      -1.9420651334984675 [Eh]
	 Total Energy              =    -475.2149368781337557 [Eh]

	 ================> DF-SCS-MP2 Energies <==================
	-----------------------------------------------------------
	 SCS Same-Spin Scale       =       0.3333333333333333 [-]
	 SCS Opposite-Spin Scale   =       1.2000000000000000 [-]
	 SCS Same-Spin Energy      =      -0.1587774418732086 [Eh]
	 SCS Opposite-Spin Energy  =      -1.7588793694546099 [Eh]
	 SCS Correlation Energy    =      -1.9176568113278185 [Eh]
	 SCS Total Energy          =    -475.1905285559631125 [Eh]
	-----------------------------------------------------------

  Dipole Moment: [D]
     X:     9.8680      Y:     1.5303      Z:     0.1911     Total:     9.9878

*** Psi4 exiting successfully. Buy a developer a beer!
