                               Psi4 1.3.2 release

  ==> Input File <==

--------------------------------------------------------------------------
#psi4
#
memory 32 gb

molecule  {
-1 1
  O        1.5553730    -1.4489990    -0.0078940
  O       -2.4633621     1.3944542    -0.0157908
  O       -3.5371250    -0.6067510    -0.0268560
  N       -0.0146490     0.2143920     0.0158120
  C        2.3272120     0.8379530     0.0018960
  C        1.2455030    -0.2240550     0.0044360
  C       -1.1422002    -0.6344396     0.0174063
  C        3.7164760     0.2336920    -0.0114620
  C       -2.5073920     0.1288020     0.0323140
  H        2.1647820     1.4966320    -0.8622200
  H        2.1776990     1.4878210     0.8748480
  H       -1.1517560    -1.3070500    -0.8570610
  H       -1.1395970    -1.3178250     0.8849180
  H       -0.2830670     1.1965190     0.0239890
  H        3.8663740    -0.3931470     0.8680960
  H        3.8530680    -0.3842560    -0.8995260
  H        4.4669480     1.0276640    -0.0135300
units angstrom
no_reorient  #important for SAPT in psi4, default
symmetry c1  #important for SAPT in psi4, default
}

set PROPERTIES_ORIGIN ["COM"]
properties('MP2/aug-cc-pvtz', properties = ['dipole'])
--------------------------------------------------------------------------

    Molecular point group: c1
  Charge       = -1
  Multiplicity = 1
  Basis Set: AUG-CC-PVTZ
    Blend: AUG-CC-PVTZ
  Basis Set: (AUG-CC-PVTZ AUX)
    Blend: AUG-CC-PVTZ-JKFIT

    Orbital Energies [Eh]
    ---------------------

    Doubly Occupied:

       1A    -20.391730     2A    -20.322555     3A    -20.311617
       4A    -15.451255     5A    -11.227820     6A    -11.165029
       7A    -11.137727     8A    -11.124197     9A    -11.108318
      10A     -1.235782    11A     -1.187129    12A     -1.104806
      13A     -1.083241    14A     -0.952864    15A     -0.836392
      16A     -0.757935    17A     -0.660931    18A     -0.590871
      19A     -0.546260    20A     -0.535498    21A     -0.507047
      22A     -0.483276    23A     -0.475522    24A     -0.426102
      25A     -0.424845    26A     -0.416501    27A     -0.414103
      28A     -0.396761    29A     -0.380131    30A     -0.343196
      31A     -0.303628    32A     -0.256546    33A     -0.235548
      34A     -0.224900    35A     -0.213767

  @DF-RHF Final Energy:  -473.28095494668634

   => Energetics <=

    Nuclear Repulsion Energy =            433.6642695795547411
    One-Electron Energy =               -1519.4227823250860183
    Two-Electron Energy =                 612.4775577988450550
    Total Energy =                       -473.2809549466862791
  Basis Set: (AUG-CC-PVTZ AUX)
    Blend: AUG-CC-PVTZ-RI
    Molecular point group: c1

    Geometry (in Angstrom), charge = -1, multiplicity = 1:

       Center              X                  Y                   Z               Mass
    ------------   -----------------  -----------------  -----------------  -----------------
         O            1.659682706205    -1.436301607469    -0.007646181674    15.994914619570
         O           -2.359052393795     1.407151592531    -0.015542981674    15.994914619570
         O           -3.432815293795    -0.594053607469    -0.026608181674    15.994914619570
         N            0.089660706205     0.227089392531     0.016059818326    14.003074004430
         C            2.431521706205     0.850650392531     0.002143818326    12.000000000000
         C            1.349812706205    -0.211357607469     0.004683818326    12.000000000000
         C           -1.037890493795    -0.621742207469     0.017654118326    12.000000000000
         C            3.820785706205     0.246389392531    -0.011214181674    12.000000000000
         C           -2.403082293795     0.141499392531     0.032561818326    12.000000000000
         H            2.269091706205     1.509329392531    -0.861972181674     1.007825032230
         H            2.282008706205     1.500518392531     0.875095818326     1.007825032230
         H           -1.047446293795    -1.294352607469    -0.856813181674     1.007825032230
         H           -1.035287293795    -1.305127607469     0.885165818326     1.007825032230
         H           -0.178757293795     1.209216392531     0.024236818326     1.007825032230
         H            3.970683706205    -0.380449607469     0.868343818326     1.007825032230
         H            3.957377706205    -0.371558607469    -0.899278181674     1.007825032230
         H            4.571257706205     1.040361392531    -0.013282181674     1.007825032230

  Basis Set: AUG-CC-PVTZ
    Blend: AUG-CC-PVTZ
  Basis Set: (AUG-CC-PVTZ AUX)
    Blend: AUG-CC-PVTZ-JKFIT
	 Reference Energy          =    -473.2809549466863359 [Eh]
	 Singles Energy            =      -0.0000000000000000 [Eh]
	 Same-Spin Energy          =      -0.4763255208408582 [Eh]
	 Opposite-Spin Energy      =      -1.4655030856206490 [Eh]
	 Correlation Energy        =      -1.9418286064615073 [Eh]
	 Total Energy              =    -475.2227835531478490 [Eh]

	 ================> DF-SCS-MP2 Energies <==================
	-----------------------------------------------------------
	 SCS Same-Spin Scale       =       0.3333333333333333 [-]
	 SCS Opposite-Spin Scale   =       1.2000000000000000 [-]
	 SCS Same-Spin Energy      =      -0.1587751736136194 [Eh]
	 SCS Opposite-Spin Energy  =      -1.7586037027447787 [Eh]
	 SCS Correlation Energy    =      -1.9173788763583981 [Eh]
	 SCS Total Energy          =    -475.1983338230447202 [Eh]
	-----------------------------------------------------------

  Dipole Moment: [D]
     X:     9.8906      Y:     1.5910      Z:     0.1353     Total:    10.0187

*** Psi4 exiting successfully. Buy a developer a beer!
