                               Psi4 1.3.2 release

  ==> Input File <==

--------------------------------------------------------------------------
#psi4
#
memory 32 gb

molecule  {
-1 1
  O        1.5553730    -1.4489990    -0.0078940
  O       -2.4744110     1.3948030    -0.0154550
  O       -3.5371250    -0.6067510    -0.0268560
  N       -0.0068428     0.2038011     0.0368939
  C        2.3272120     0.8379530     0.0018960
  C        1.2455030    -0.2240550     0.0044360
  C       -1.1489000    -0.6463140     0.0180560
  C        3.7164760     0.2336920    -0.0114620
  C       -2.5073920     0.1288020     0.0323140
  H        2.1647820     1.4966320    -0.8622200
  H        2.1776990     1.4878210     0.8748480
  H       -1.1517560    -1.3070500    -0.8570610
  H       -1.1231621    -1.3098883     0.8906785
  H       -0.2830670     1.1965190     0.0239890
  H        3.8663740    -0.3931470     0.8680960
  H        3.8530680    -0.3842560    -0.8995260
  H        4.4669480     1.0276640    -0.0135300
units angstrom
no_reorient  #important for SAPT in psi4, default
symmetry c1  #important for SAPT in psi4, default
}

set PROPERTIES_ORIGIN ["COM"]
properties('MP2/aug-cc-pvtz', properties = ['dipole'])
--------------------------------------------------------------------------

    Molecular point group: c1
  Charge       = -1
  Multiplicity = 1
  Basis Set: AUG-CC-PVTZ
    Blend: AUG-CC-PVTZ
  Basis Set: (AUG-CC-PVTZ AUX)
    Blend: AUG-CC-PVTZ-JKFIT

    Orbital Energies [Eh]
    ---------------------

    Doubly Occupied:

       1A    -20.388993     2A    -20.323422     3A    -20.311695
       4A    -15.452029     5A    -11.225376     6A    -11.165814
       7A    -11.137167     8A    -11.123694     9A    -11.109609
      10A     -1.235172    11A     -1.187700    12A     -1.103039
      13A     -1.083292    14A     -0.952161    15A     -0.837874
      16A     -0.758346    17A     -0.658318    18A     -0.590075
      19A     -0.545969    20A     -0.535418    21A     -0.506429
      22A     -0.485541    23A     -0.473680    24A     -0.426179
      25A     -0.425065    26A     -0.417129    27A     -0.413322
      28A     -0.395243    29A     -0.380397    30A     -0.344569
      31A     -0.302066    32A     -0.257702    33A     -0.236065
      34A     -0.225895    35A     -0.214022

  @DF-RHF Final Energy:  -473.28117248420062

   => Energetics <=

    Nuclear Repulsion Energy =            433.5171015394057008
    One-Electron Energy =               -1519.1396128986098120
    Two-Electron Energy =                 612.3413388750034301
    Total Energy =                       -473.2811724842006242
  Basis Set: (AUG-CC-PVTZ AUX)
    Blend: AUG-CC-PVTZ-RI
    Molecular point group: c1

    Geometry (in Angstrom), charge = -1, multiplicity = 1:

       Center              X                  Y                   Z               Mass
    ------------   -----------------  -----------------  -----------------  -----------------
         O            1.660691926430    -1.434169971682    -0.010062048372    15.994914619570
         O           -2.369092073570     1.409632028318    -0.017623048372    15.994914619570
         O           -3.431806073570    -0.591921971682    -0.029024048372    15.994914619570
         N            0.098476126430     0.218630128318     0.034725851628    14.003074004430
         C            2.432530926430     0.852782028318    -0.000272048372    12.000000000000
         C            1.350821926430    -0.209225971682     0.002267951628    12.000000000000
         C           -1.043581073570    -0.631484971682     0.015887951628    12.000000000000
         C            3.821794926430     0.248521028318    -0.013630048372    12.000000000000
         C           -2.402073073570     0.143631028318     0.030145951628    12.000000000000
         H            2.270100926430     1.511461028318    -0.864388048372     1.007825032230
         H            2.283017926430     1.502650028318     0.872679951628     1.007825032230
         H           -1.046437073570    -1.292220971682    -0.859229048372     1.007825032230
         H           -1.017843173570    -1.295059271682     0.888510451628     1.007825032230
         H           -0.177748073570     1.211348028318     0.021820951628     1.007825032230
         H            3.971692926430    -0.378317971682     0.865927951628     1.007825032230
         H            3.958386926430    -0.369426971682    -0.901694048372     1.007825032230
         H            4.572266926430     1.042493028318    -0.015698048372     1.007825032230

  Basis Set: AUG-CC-PVTZ
    Blend: AUG-CC-PVTZ
  Basis Set: (AUG-CC-PVTZ AUX)
    Blend: AUG-CC-PVTZ-JKFIT
	 Reference Energy          =    -473.2811724842006242 [Eh]
	 Singles Energy            =      -0.0000000000000000 [Eh]
	 Same-Spin Energy          =      -0.4762364607298647 [Eh]
	 Opposite-Spin Energy      =      -1.4654837867996076 [Eh]
	 Correlation Energy        =      -1.9417202475294721 [Eh]
	 Total Energy              =    -475.2228927317300986 [Eh]

	 ================> DF-SCS-MP2 Energies <==================
	-----------------------------------------------------------
	 SCS Same-Spin Scale       =       0.3333333333333333 [-]
	 SCS Opposite-Spin Scale   =       1.2000000000000000 [-]
	 SCS Same-Spin Energy      =      -0.1587454869099549 [Eh]
	 SCS Opposite-Spin Energy  =      -1.7585805441595290 [Eh]
	 SCS Correlation Energy    =      -1.9173260310694840 [Eh]
	 SCS Total Energy          =    -475.1984985152701029 [Eh]
	-----------------------------------------------------------

  Dipole Moment: [D]
     X:     9.8171      Y:     1.5933      Z:     0.1178     Total:     9.9463

*** Psi4 exiting successfully. Buy a developer a beer!
