                               Psi4 1.3.2 release

  ==> Input File <==

--------------------------------------------------------------------------
#psi4
#
memory 32 gb

molecule  {
-1 1
  O        1.5553730    -1.4489990    -0.0078940
  O       -2.4744110     1.3948030    -0.0154550
  O       -3.5371250    -0.6067510    -0.0268560
  N       -0.0146490     0.2143920     0.0158120
  C        2.3272120     0.8379530     0.0018960
  C        1.2455030    -0.2240550     0.0044360
  C       -1.1489000    -0.6463140     0.0180560
  C        3.7164760     0.2336920    -0.0114620
  C       -2.5073920     0.1288020     0.0323140
  H        2.1647820     1.4966320    -0.8622200
  H        2.1776990     1.4878210     0.8748480
  H       -1.1517560    -1.3070500    -0.8570610
  H       -1.1395970    -1.3178250     0.8849180
  H       -0.2303419     1.0036007     0.0223828
  H        3.8663740    -0.3931470     0.8680960
  H        3.8530680    -0.3842560    -0.8995260
  H        4.4669480     1.0276640    -0.0135300
units angstrom
no_reorient  #important for SAPT in psi4, default
symmetry c1  #important for SAPT in psi4, default
}

set PROPERTIES_ORIGIN ["COM"]
properties('MP2/aug-cc-pvtz', properties = ['dipole'])
--------------------------------------------------------------------------

    Molecular point group: c1
  Charge       = -1
  Multiplicity = 1
  Basis Set: AUG-CC-PVTZ
    Blend: AUG-CC-PVTZ
  Basis Set: (AUG-CC-PVTZ AUX)
    Blend: AUG-CC-PVTZ-JKFIT

    Orbital Energies [Eh]
    ---------------------

    Doubly Occupied:

       1A    -20.394764     2A    -20.319501     3A    -20.309529
       4A    -15.434162     5A    -11.231090     6A    -11.163533
       7A    -11.139868     8A    -11.125879     9A    -11.108987
      10A     -1.241654    11A     -1.185873    12A     -1.131622
      13A     -1.081183    14A     -0.955151    15A     -0.838760
      16A     -0.769063    17A     -0.711416    18A     -0.595662
      19A     -0.546202    20A     -0.537796    21A     -0.509439
      22A     -0.486400    23A     -0.479411    24A     -0.432182
      25A     -0.426148    26A     -0.418721    27A     -0.416402
      28A     -0.400053    29A     -0.381782    30A     -0.343461
      31A     -0.306537    32A     -0.263113    33A     -0.232557
      34A     -0.223814    35A     -0.211328

  @DF-RHF Final Energy:  -473.23876709487899

   => Energetics <=

    Nuclear Repulsion Energy =            434.6564584955170858
    One-Electron Energy =               -1521.0843681156807179
    Two-Electron Energy =                 613.1891425252845238
    Total Energy =                       -473.2387670948789946
  Basis Set: (AUG-CC-PVTZ AUX)
    Blend: AUG-CC-PVTZ-RI
    Molecular point group: c1

    Geometry (in Angstrom), charge = -1, multiplicity = 1:

       Center              X                  Y                   Z               Mass
    ------------   -----------------  -----------------  -----------------  -----------------
         O            1.661251222012    -1.433753813540    -0.007734983570    15.994914619570
         O           -2.368532777988     1.410048186460    -0.015295983570    15.994914619570
         O           -3.431246777988    -0.591505813540    -0.026696983570    15.994914619570
         N            0.091229222012     0.229637186460     0.015971016430    14.003074004430
         C            2.433090222012     0.853198186460     0.002055016430    12.000000000000
         C            1.351381222012    -0.208809813540     0.004595016430    12.000000000000
         C           -1.043021777988    -0.631068813540     0.018215016430    12.000000000000
         C            3.822354222012     0.248937186460    -0.011302983570    12.000000000000
         C           -2.401513777988     0.144047186460     0.032473016430    12.000000000000
         H            2.270660222012     1.511877186460    -0.862060983570     1.007825032230
         H            2.283577222012     1.503066186460     0.875007016430     1.007825032230
         H           -1.045877777988    -1.291804813540    -0.856901983570     1.007825032230
         H           -1.033718777988    -1.302579813540     0.885077016430     1.007825032230
         H           -0.124463677988     1.018845886460     0.022541816430     1.007825032230
         H            3.972252222012    -0.377901813540     0.868255016430     1.007825032230
         H            3.958946222012    -0.369010813540    -0.899366983570     1.007825032230
         H            4.572826222012     1.042909186460    -0.013370983570     1.007825032230

  Basis Set: AUG-CC-PVTZ
    Blend: AUG-CC-PVTZ
  Basis Set: (AUG-CC-PVTZ AUX)
    Blend: AUG-CC-PVTZ-JKFIT
	 Reference Energy          =    -473.2387670948789946 [Eh]
	 Singles Energy            =      -0.0000000000000000 [Eh]
	 Same-Spin Energy          =      -0.4744417805036679 [Eh]
	 Opposite-Spin Energy      =      -1.4624721869484216 [Eh]
	 Correlation Energy        =      -1.9369139674520897 [Eh]
	 Total Energy              =    -475.1756810623310798 [Eh]

	 ================> DF-SCS-MP2 Energies <==================
	-----------------------------------------------------------
	 SCS Same-Spin Scale       =       0.3333333333333333 [-]
	 SCS Opposite-Spin Scale   =       1.2000000000000000 [-]
	 SCS Same-Spin Energy      =      -0.1581472601678893 [Eh]
	 SCS Opposite-Spin Energy  =      -1.7549666243381059 [Eh]
	 SCS Correlation Energy    =      -1.9131138845059952 [Eh]
	 SCS Total Energy          =    -475.1518809793849982 [Eh]
	-----------------------------------------------------------

  Dipole Moment: [D]
     X:    10.1960      Y:     1.3733      Z:     0.1354     Total:    10.2890

*** Psi4 exiting successfully. Buy a developer a beer!
