                               Psi4 1.3.2 release

  ==> Input File <==

--------------------------------------------------------------------------
#psi4
#
memory 32 gb

molecule  {
-1 1
  O        1.5553730    -1.4489990    -0.0078940
  O       -2.4744110     1.3948030    -0.0154550
  O       -3.5371250    -0.6067510    -0.0268560
  N       -0.0071817     0.2044614     0.0156973
  C        2.3272120     0.8379530     0.0018960
  C        1.2455030    -0.2240550     0.0044360
  C       -1.1489000    -0.6463140     0.0180560
  C        3.7164760     0.2336920    -0.0114620
  C       -2.5141049     0.1169172     0.0322838
  H        2.1647820     1.4966320    -0.8622200
  H        2.1776990     1.4878210     0.8748480
  H       -1.1517560    -1.3070500    -0.8570610
  H       -1.1395970    -1.3178250     0.8849180
  H       -0.2830670     1.1965190     0.0239890
  H        3.8663740    -0.3931470     0.8680960
  H        3.8530680    -0.3842560    -0.8995260
  H        4.4669480     1.0276640    -0.0135300
units angstrom
no_reorient  #important for SAPT in psi4, default
symmetry c1  #important for SAPT in psi4, default
}

set PROPERTIES_ORIGIN ["COM"]
properties('MP2/aug-cc-pvtz', properties = ['dipole'])
--------------------------------------------------------------------------

    Molecular point group: c1
  Charge       = -1
  Multiplicity = 1
  Basis Set: AUG-CC-PVTZ
    Blend: AUG-CC-PVTZ
  Basis Set: (AUG-CC-PVTZ AUX)
    Blend: AUG-CC-PVTZ-JKFIT

    Orbital Energies [Eh]
    ---------------------

    Doubly Occupied:

       1A    -20.388827     2A    -20.320084     3A    -20.314829
       4A    -15.452041     5A    -11.225306     6A    -11.165628
       7A    -11.137003     8A    -11.123561     9A    -11.109506
      10A     -1.234933    11A     -1.187534    12A     -1.103760
      13A     -1.082652    14A     -0.951971    15A     -0.837694
      16A     -0.758525    17A     -0.658343    18A     -0.589860
      19A     -0.546046    20A     -0.535170    21A     -0.506161
      22A     -0.484817    23A     -0.473452    24A     -0.426342
      25A     -0.425360    26A     -0.417038    27A     -0.413579
      28A     -0.394888    29A     -0.380364    30A     -0.344025
      31A     -0.301977    32A     -0.257347    33A     -0.234764
      34A     -0.226986    35A     -0.214572

  @DF-RHF Final Energy:  -473.28127688976957

   => Energetics <=

    Nuclear Repulsion Energy =            433.4628328810096036
    One-Electron Energy =               -1519.0383291889932025
    Two-Electron Energy =                 612.2942194182138564
    Total Energy =                       -473.2812768897696287
  Basis Set: (AUG-CC-PVTZ AUX)
    Blend: AUG-CC-PVTZ-RI
    Molecular point group: c1

    Geometry (in Angstrom), charge = -1, multiplicity = 1:

       Center              X                  Y                   Z               Mass
    ------------   -----------------  -----------------  -----------------  -----------------
         O            1.661475191465    -1.433082930385    -0.007732293967    15.994914619570
         O           -2.368308808535     1.410719069615    -0.015293293967    15.994914619570
         O           -3.431022808535    -0.590834930385    -0.026694293967    15.994914619570
         N            0.098920491465     0.220377469615     0.015859006033    14.003074004430
         C            2.433314191465     0.853869069615     0.002057706033    12.000000000000
         C            1.351605191465    -0.208138930385     0.004597706033    12.000000000000
         C           -1.042797808535    -0.630397930385     0.018217706033    12.000000000000
         C            3.822578191465     0.249608069615    -0.011300293967    12.000000000000
         C           -2.408002708535     0.132833269615     0.032445506033    12.000000000000
         H            2.270884191465     1.512548069615    -0.862058293967     1.007825032230
         H            2.283801191465     1.503737069615     0.875009706033     1.007825032230
         H           -1.045653808535    -1.291133930385    -0.856899293967     1.007825032230
         H           -1.033494808535    -1.301908930385     0.885079706033     1.007825032230
         H           -0.176964808535     1.212435069615     0.024150706033     1.007825032230
         H            3.972476191465    -0.377230930385     0.868257706033     1.007825032230
         H            3.959170191465    -0.368339930385    -0.899364293967     1.007825032230
         H            4.573050191465     1.043580069615    -0.013368293967     1.007825032230

  Basis Set: AUG-CC-PVTZ
    Blend: AUG-CC-PVTZ
  Basis Set: (AUG-CC-PVTZ AUX)
    Blend: AUG-CC-PVTZ-JKFIT
	 Reference Energy          =    -473.2812768897695719 [Eh]
	 Singles Energy            =      -0.0000000000000000 [Eh]
	 Same-Spin Energy          =      -0.4762165085001401 [Eh]
	 Opposite-Spin Energy      =      -1.4654164395962974 [Eh]
	 Correlation Energy        =      -1.9416329480964376 [Eh]
	 Total Energy              =    -475.2229098378659842 [Eh]

	 ================> DF-SCS-MP2 Energies <==================
	-----------------------------------------------------------
	 SCS Same-Spin Scale       =       0.3333333333333333 [-]
	 SCS Opposite-Spin Scale   =       1.2000000000000000 [-]
	 SCS Same-Spin Energy      =      -0.1587388361667134 [Eh]
	 SCS Opposite-Spin Energy  =      -1.7584997275155569 [Eh]
	 SCS Correlation Energy    =      -1.9172385636822704 [Eh]
	 SCS Total Energy          =    -475.1985154534518188 [Eh]
	-----------------------------------------------------------

  Dipole Moment: [D]
     X:     9.7429      Y:     1.4690      Z:     0.1365     Total:     9.8540

*** Psi4 exiting successfully. Buy a developer a beer!
