                               Psi4 1.3.2 release

  ==> Input File <==

--------------------------------------------------------------------------
#psi4
#
memory 32 gb

molecule  {
-1 1
  O        1.5553730    -1.4489990    -0.0078940
  O       -2.4744110     1.3948030    -0.0154550
  O       -3.5371250    -0.6067510    -0.0268560
  N       -0.0146490     0.2143920     0.0158120
  C        2.3272120     0.8379530     0.0018960
  C        1.2455030    -0.2240550     0.0044360
  C       -1.1489000    -0.6463140     0.0180560
  C        3.7164760     0.2336920    -0.0114620
  C       -2.5073920     0.1288020     0.0323140
  H        2.1647820     1.4966320    -0.8622200
  H        2.1776990     1.4878210     0.8748480
  H       -1.1517560    -1.3070500    -0.8570610
  H       -1.1404454    -1.2565875     0.8058658
  H       -0.2830670     1.1965190     0.0239890
  H        3.8663740    -0.3931470     0.8680960
  H        3.8530680    -0.3842560    -0.8995260
  H        4.4669480     1.0276640    -0.0135300
units angstrom
no_reorient  #important for SAPT in psi4, default
symmetry c1  #important for SAPT in psi4, default
}

set PROPERTIES_ORIGIN ["COM"]
properties('MP2/aug-cc-pvtz', properties = ['dipole'])
--------------------------------------------------------------------------

    Molecular point group: c1
  Charge       = -1
  Multiplicity = 1
  Basis Set: AUG-CC-PVTZ
    Blend: AUG-CC-PVTZ
  Basis Set: (AUG-CC-PVTZ AUX)
    Blend: AUG-CC-PVTZ-JKFIT

    Orbital Energies [Eh]
    ---------------------

    Doubly Occupied:

       1A    -20.391021     2A    -20.322044     3A    -20.311019
       4A    -15.450150     5A    -11.227222     6A    -11.164102
       7A    -11.137260     8A    -11.123903     9A    -11.096500
      10A     -1.234969    11A     -1.186852    12A     -1.102141
      13A     -1.082337    14A     -0.952530    15A     -0.842035
      16A     -0.761793    17A     -0.662298    18A     -0.589569
      19A     -0.544457    20A     -0.535894    21A     -0.513131
      22A     -0.489993    23A     -0.474663    24A     -0.427804
      25A     -0.425145    26A     -0.418437    27A     -0.413596
      28A     -0.398185    29A     -0.380290    30A     -0.346385
      31A     -0.303058    32A     -0.259162    33A     -0.235092
      34A     -0.224522    35A     -0.213270

  @DF-RHF Final Energy:  -473.27611991024946

   => Energetics <=

    Nuclear Repulsion Energy =            433.9173742687892741
    One-Electron Energy =               -1519.9053310990154841
    Two-Electron Energy =                 612.7118369199768040
    Total Energy =                       -473.2761199102494629
  Basis Set: (AUG-CC-PVTZ AUX)
    Blend: AUG-CC-PVTZ-RI
    Molecular point group: c1

    Geometry (in Angstrom), charge = -1, multiplicity = 1:

       Center              X                  Y                   Z               Mass
    ------------   -----------------  -----------------  -----------------  -----------------
         O            1.661666389569    -1.435723392577    -0.007134816200    15.994914619570
         O           -2.368117610431     1.408078607423    -0.014695816200    15.994914619570
         O           -3.430831610431    -0.593475392577    -0.026096816200    15.994914619570
         N            0.091644389569     0.227667607423     0.016571183800    14.003074004430
         C            2.433505389569     0.851228607423     0.002655183800    12.000000000000
         C            1.351796389569    -0.210779392577     0.005195183800    12.000000000000
         C           -1.042606610431    -0.633038392577     0.018815183800    12.000000000000
         C            3.822769389569     0.246967607423    -0.010702816200    12.000000000000
         C           -2.401098610431     0.142077607423     0.033073183800    12.000000000000
         H            2.271075389569     1.509907607423    -0.861460816200     1.007825032230
         H            2.283992389569     1.501096607423     0.875607183800     1.007825032230
         H           -1.045462610431    -1.293774392577    -0.856301816200     1.007825032230
         H           -1.034152010431    -1.243311892577     0.806624983800     1.007825032230
         H           -0.176773610431     1.209794607423     0.024748183800     1.007825032230
         H            3.972667389569    -0.379871392577     0.868855183800     1.007825032230
         H            3.959361389569    -0.370980392577    -0.898766816200     1.007825032230
         H            4.573241389569     1.040939607423    -0.012770816200     1.007825032230

  Basis Set: AUG-CC-PVTZ
    Blend: AUG-CC-PVTZ
  Basis Set: (AUG-CC-PVTZ AUX)
    Blend: AUG-CC-PVTZ-JKFIT
	 Reference Energy          =    -473.2761199102494629 [Eh]
	 Singles Energy            =      -0.0000000000000000 [Eh]
	 Same-Spin Energy          =      -0.4760675454785021 [Eh]
	 Opposite-Spin Energy      =      -1.4648607322787317 [Eh]
	 Correlation Energy        =      -1.9409282777572336 [Eh]
	 Total Energy              =    -475.2170481880066859 [Eh]

	 ================> DF-SCS-MP2 Energies <==================
	-----------------------------------------------------------
	 SCS Same-Spin Scale       =       0.3333333333333333 [-]
	 SCS Opposite-Spin Scale   =       1.2000000000000000 [-]
	 SCS Same-Spin Energy      =      -0.1586891818261673 [Eh]
	 SCS Opposite-Spin Energy  =      -1.7578328787344779 [Eh]
	 SCS Correlation Energy    =      -1.9165220605606452 [Eh]
	 SCS Total Energy          =    -475.1926419708100866 [Eh]
	-----------------------------------------------------------

  Dipole Moment: [D]
     X:     9.8767      Y:     1.5333      Z:     0.1668     Total:     9.9964

*** Psi4 exiting successfully. Buy a developer a beer!
