                               Psi4 1.3.2 release

  ==> Input File <==

--------------------------------------------------------------------------
#psi4
#
memory 32 gb

molecule  {
-1 1
  O        1.5553730    -1.4489990    -0.0078940
  O       -2.4744110     1.3948030    -0.0154550
  O       -3.5371250    -0.6067510    -0.0268560
  N        0.0077236     0.1818459     0.0790341
  C        2.3272120     0.8379530     0.0018960
  C        1.2455030    -0.2240550     0.0044360
  C       -1.1489000    -0.6463140     0.0180560
  C        3.7164760     0.2336920    -0.0114620
  C       -2.5073920     0.1288020     0.0323140
  H        2.1647820     1.4966320    -0.8622200
  H        2.1776990     1.4878210     0.8748480
  H       -1.1517560    -1.3070500    -0.8570610
  H       -1.0903207    -1.2934109     0.9014004
  H       -0.2830670     1.1965190     0.0239890
  H        3.8663740    -0.3931470     0.8680960
  H        3.8530680    -0.3842560    -0.8995260
  H        4.4669480     1.0276640    -0.0135300
units angstrom
no_reorient  #important for SAPT in psi4, default
symmetry c1  #important for SAPT in psi4, default
}

set PROPERTIES_ORIGIN ["COM"]
properties('MP2/aug-cc-pvtz', properties = ['dipole'])
--------------------------------------------------------------------------

    Molecular point group: c1
  Charge       = -1
  Multiplicity = 1
  Basis Set: AUG-CC-PVTZ
    Blend: AUG-CC-PVTZ
  Basis Set: (AUG-CC-PVTZ AUX)
    Blend: AUG-CC-PVTZ-JKFIT

    Orbital Energies [Eh]
    ---------------------

    Doubly Occupied:

       1A    -20.384594     2A    -20.325139     3A    -20.313336
       4A    -15.453544     5A    -11.221365     6A    -11.167829
       7A    -11.136577     8A    -11.123023     9A    -11.110951
      10A     -1.235532    11A     -1.189015    12A     -1.103978
      13A     -1.084936    14A     -0.951564    15A     -0.840893
      16A     -0.758182    17A     -0.653442    18A     -0.590540
      19A     -0.548266    20A     -0.535798    21A     -0.505278
      22A     -0.487884    23A     -0.471434    24A     -0.427908
      25A     -0.424105    26A     -0.417038    27A     -0.412712
      28A     -0.390767    29A     -0.380913    30A     -0.345455
      31A     -0.299824    32A     -0.257412    33A     -0.237517
      34A     -0.227880    35A     -0.215522

  @DF-RHF Final Energy:  -473.27717439200188

   => Energetics <=

    Nuclear Repulsion Energy =            433.7561559172915508
    One-Electron Energy =               -1519.6063510433259580
    Two-Electron Energy =                 612.5730207340325251
    Total Energy =                       -473.2771743920018253
  Basis Set: (AUG-CC-PVTZ AUX)
    Blend: AUG-CC-PVTZ-RI
    Molecular point group: c1

    Geometry (in Angstrom), charge = -1, multiplicity = 1:

       Center              X                  Y                   Z               Mass
    ------------   -----------------  -----------------  -----------------  -----------------
         O            1.658868996787    -1.431933654734    -0.014682549767    15.994914619570
         O           -2.370915003213     1.411868345266    -0.022243549767    15.994914619570
         O           -3.433629003213    -0.589685654734    -0.033644549767    15.994914619570
         N            0.111219596787     0.198911245266     0.072245550233    14.003074004430
         C            2.430707996787     0.855018345266    -0.004892549767    12.000000000000
         C            1.348998996787    -0.206989654734    -0.002352549767    12.000000000000
         C           -1.045404003213    -0.629248654734     0.011267450233    12.000000000000
         C            3.819971996787     0.250757345266    -0.018250549767    12.000000000000
         C           -2.403896003213     0.145867345266     0.025525450233    12.000000000000
         H            2.268277996787     1.513697345266    -0.869008549767     1.007825032230
         H            2.281194996787     1.504886345266     0.868059450233     1.007825032230
         H           -1.048260003213    -1.289984654734    -0.863849549767     1.007825032230
         H           -0.986824703213    -1.276345554734     0.894611850233     1.007825032230
         H           -0.179571003213     1.213584345266     0.017200450233     1.007825032230
         H            3.969869996787    -0.376081654734     0.861307450233     1.007825032230
         H            3.956563996787    -0.367190654734    -0.906314549767     1.007825032230
         H            4.570443996787     1.044729345266    -0.020318549767     1.007825032230

  Basis Set: AUG-CC-PVTZ
    Blend: AUG-CC-PVTZ
  Basis Set: (AUG-CC-PVTZ AUX)
    Blend: AUG-CC-PVTZ-JKFIT
	 Reference Energy          =    -473.2771743920018821 [Eh]
	 Singles Energy            =      -0.0000000000000000 [Eh]
	 Same-Spin Energy          =      -0.4764817943497831 [Eh]
	 Opposite-Spin Energy      =      -1.4658857379215302 [Eh]
	 Correlation Energy        =      -1.9423675322713132 [Eh]
	 Total Energy              =    -475.2195419242731873 [Eh]

	 ================> DF-SCS-MP2 Energies <==================
	-----------------------------------------------------------
	 SCS Same-Spin Scale       =       0.3333333333333333 [-]
	 SCS Opposite-Spin Scale   =       1.2000000000000000 [-]
	 SCS Same-Spin Energy      =      -0.1588272647832610 [Eh]
	 SCS Opposite-Spin Energy  =      -1.7590628855058361 [Eh]
	 SCS Correlation Energy    =      -1.9178901502890970 [Eh]
	 SCS Total Energy          =    -475.1950645422909929 [Eh]
	-----------------------------------------------------------

  Dipole Moment: [D]
     X:     9.6773      Y:     1.6454      Z:     0.0827     Total:     9.8165

*** Psi4 exiting successfully. Buy a developer a beer!
