                               Psi4 1.3.2 release

  ==> Input File <==

--------------------------------------------------------------------------
#psi4
#
memory 32 gb

molecule  {
-1 1
  O        1.5553730    -1.4489990    -0.0078940
  O       -2.4744110     1.3948030    -0.0154550
  O       -3.5371250    -0.6067510    -0.0268560
  N       -0.0291843     0.1701451     0.0156956
  C        2.3636147     0.7995558     0.0014381
  C        1.2455030    -0.2240550     0.0044360
  C       -1.1489000    -0.6463140     0.0180560
  C        3.7164760     0.2336920    -0.0114620
  C       -2.5073920     0.1288020     0.0323140
  H        2.1647820     1.4966320    -0.8622200
  H        2.1776990     1.4878210     0.8748480
  H       -1.1517560    -1.3070500    -0.8570610
  H       -1.1395970    -1.3178250     0.8849180
  H       -0.2830670     1.1965190     0.0239890
  H        3.8663740    -0.3931470     0.8680960
  H        3.8530680    -0.3842560    -0.8995260
  H        4.4669480     1.0276640    -0.0135300
units angstrom
no_reorient  #important for SAPT in psi4, default
symmetry c1  #important for SAPT in psi4, default
}

set PROPERTIES_ORIGIN ["COM"]
properties('MP2/aug-cc-pvtz', properties = ['dipole'])
--------------------------------------------------------------------------

    Molecular point group: c1
  Charge       = -1
  Multiplicity = 1
  Basis Set: AUG-CC-PVTZ
    Blend: AUG-CC-PVTZ
  Basis Set: (AUG-CC-PVTZ AUX)
    Blend: AUG-CC-PVTZ-JKFIT

    Orbital Energies [Eh]
    ---------------------

    Doubly Occupied:

       1A    -20.388059     2A    -20.322956     3A    -20.310798
       4A    -15.452802     5A    -11.226901     6A    -11.165057
       7A    -11.143178     8A    -11.123614     9A    -11.106104
      10A     -1.235988    11A     -1.187233    12A     -1.103671
      13A     -1.082616    14A     -0.962026    15A     -0.841274
      16A     -0.757071    17A     -0.648487    18A     -0.591473
      19A     -0.551803    20A     -0.534413    21A     -0.506988
      22A     -0.488853    23A     -0.475880    24A     -0.444271
      25A     -0.422883    26A     -0.413233    27A     -0.410833
      28A     -0.394201    29A     -0.373051    30A     -0.343486
      31A     -0.301133    32A     -0.253014    33A     -0.235502
      34A     -0.225201    35A     -0.212956

  @DF-RHF Final Energy:  -473.27205166564158

   => Energetics <=

    Nuclear Repulsion Energy =            434.0357601262780349
    One-Electron Energy =               -1520.1416006708329860
    Two-Electron Energy =                 612.8337888789133103
    Total Energy =                       -473.2720516656415839
  Basis Set: (AUG-CC-PVTZ AUX)
    Blend: AUG-CC-PVTZ-RI
    Molecular point group: c1

    Geometry (in Angstrom), charge = -1, multiplicity = 1:

       Center              X                  Y                   Z               Mass
    ------------   -----------------  -----------------  -----------------  -----------------
         O            1.659865945091    -1.426941600738    -0.007692646226    15.994914619570
         O           -2.369918054909     1.416860399262    -0.015253646226    15.994914619570
         O           -3.432632054909    -0.584693600738    -0.026654646226    15.994914619570
         N            0.075308645091     0.192202499262     0.015896953774    14.003074004430
         C            2.468107645091     0.821613199262     0.001639453774    12.000000000000
         C            1.349995945091    -0.201997600738     0.004637353774    12.000000000000
         C           -1.044407054909    -0.624256600738     0.018257353774    12.000000000000
         C            3.820968945091     0.255749399262    -0.011260646226    12.000000000000
         C           -2.402899054909     0.150859399262     0.032515353774    12.000000000000
         H            2.269274945091     1.518689399262    -0.862018646226     1.007825032230
         H            2.282191945091     1.509878399262     0.875049353774     1.007825032230
         H           -1.047263054909    -1.284992600738    -0.856859646226     1.007825032230
         H           -1.035104054909    -1.295767600738     0.885119353774     1.007825032230
         H           -0.178574054909     1.218576399262     0.024190353774     1.007825032230
         H            3.970866945091    -0.371089600738     0.868297353774     1.007825032230
         H            3.957560945091    -0.362198600738    -0.899324646226     1.007825032230
         H            4.571440945091     1.049721399262    -0.013328646226     1.007825032230

  Basis Set: AUG-CC-PVTZ
    Blend: AUG-CC-PVTZ
  Basis Set: (AUG-CC-PVTZ AUX)
    Blend: AUG-CC-PVTZ-JKFIT
	 Reference Energy          =    -473.2720516656415839 [Eh]
	 Singles Energy            =      -0.0000000000000000 [Eh]
	 Same-Spin Energy          =      -0.4771682265879837 [Eh]
	 Opposite-Spin Energy      =      -1.4665272584467268 [Eh]
	 Correlation Energy        =      -1.9436954850347106 [Eh]
	 Total Energy              =    -475.2157471506762931 [Eh]

	 ================> DF-SCS-MP2 Energies <==================
	-----------------------------------------------------------
	 SCS Same-Spin Scale       =       0.3333333333333333 [-]
	 SCS Opposite-Spin Scale   =       1.2000000000000000 [-]
	 SCS Same-Spin Energy      =      -0.1590560755293279 [Eh]
	 SCS Opposite-Spin Energy  =      -1.7598327101360722 [Eh]
	 SCS Correlation Energy    =      -1.9188887856654002 [Eh]
	 SCS Total Energy          =    -475.1909404513069717 [Eh]
	-----------------------------------------------------------

  Dipole Moment: [D]
     X:     9.9644      Y:     1.6031      Z:     0.1356     Total:    10.0934

*** Psi4 exiting successfully. Buy a developer a beer!
