                               Psi4 1.4a3.dev225

  ==> Input File <==

--------------------------------------------------------------------------
#psi4
#
memory 32 gb

molecule  {
-1 1
  O       -1.5186010     1.5599430    -0.1433510
  O        2.2638970    -1.4295650    -0.0456660
  O        3.5317420     0.4486470     0.1950180
  N        0.0040180    -0.1295860    -0.1151350
  C       -2.3384940    -0.6954940    -0.4149760
  C       -1.2551514     0.3634231    -0.2091091
  C        1.1754880     0.7048690     0.0403840
  C       -3.5055210    -0.4701880     0.5431350
  C        2.4465640    -0.1793200     0.0655420
  H       -2.6873130    -0.6028840    -1.4504550
  H       -1.9319890    -1.7056860    -0.3020050
  H        1.2516430     1.4279040    -0.7806770
  H        1.1211640     1.2868180     0.9683990
  H        0.2309340    -1.1197490    -0.1755670
  H       -3.1861080    -0.6022700     1.5809140
  H       -3.8905480     0.5449040     0.4307430
  H       -4.3152940    -1.1768540     0.3431720
units angstrom
no_reorient  #important for SAPT in psi4, default
symmetry c1  #important for SAPT in psi4, default
}

set PROPERTIES_ORIGIN ["COM"]
properties('MP2/aug-cc-pvtz', properties = ['dipole'])
--------------------------------------------------------------------------

    Molecular point group: c1
  Charge       = -1
  Multiplicity = 1
  Basis Set: AUG-CC-PVTZ
    Blend: AUG-CC-PVTZ
  Basis Set: (AUG-CC-PVTZ AUX)
    Blend: AUG-CC-PVTZ-JKFIT

    Orbital Energies [Eh]
    ---------------------

    Doubly Occupied:

       1A    -20.391473     2A    -20.321646     3A    -20.312854
       4A    -15.441636     5A    -11.222039     6A    -11.162812
       7A    -11.134551     8A    -11.127498     9A    -11.107234
      10A     -1.250761    11A     -1.189621    12A     -1.095749
      13A     -1.079910    14A     -0.948063    15A     -0.828207
      16A     -0.757677    17A     -0.651031    18A     -0.584927
      19A     -0.544754    20A     -0.525968    21A     -0.503129
      22A     -0.487254    23A     -0.476004    24A     -0.437124
      25A     -0.427441    26A     -0.420549    27A     -0.408637
      28A     -0.394092    29A     -0.383160    30A     -0.346434
      31A     -0.299824    32A     -0.255669    33A     -0.237998
      34A     -0.224717    35A     -0.215068

  @DF-RHF Final Energy:  -473.28874966217950

   => Energetics <=

    Nuclear Repulsion Energy =            435.2760799343961935
    One-Electron Energy =               -1522.7386390333035706
    Two-Electron Energy =                 614.1738094367278791
    Total Energy =                       -473.2887496621794980
  Basis Set: (AUG-CC-PVTZ AUX)
    Blend: AUG-CC-PVTZ-RI
    Molecular point group: c1

    Geometry (in Angstrom), charge = -1, multiplicity = 1:

       Center              X                  Y                   Z               Mass
    ------------   -----------------  -----------------  -----------------  -----------------
         O           -1.620325578602     1.543308870021    -0.138758819664    15.994914619570
         O            2.162172421398    -1.446199129979    -0.041073819664    15.994914619570
         O            3.430017421398     0.432012870021     0.199610180336    15.994914619570
         N           -0.097706578602    -0.146220129979    -0.110542819664    14.003074004430
         C           -2.440218578602    -0.712128129979    -0.410383819664    12.000000000000
         C           -1.356875978602     0.346788970021    -0.204516919664    12.000000000000
         C            1.073763421398     0.688234870021     0.044976180336    12.000000000000
         C           -3.607245578602    -0.486822129979     0.547727180336    12.000000000000
         C            2.344839421398    -0.195954129979     0.070134180336    12.000000000000
         H           -2.789037578602    -0.619518129979    -1.445862819664     1.007825032230
         H           -2.033713578602    -1.722320129979    -0.297412819664     1.007825032230
         H            1.149918421398     1.411269870021    -0.776084819664     1.007825032230
         H            1.019439421398     1.270183870021     0.972991180336     1.007825032230
         H            0.129209421398    -1.136383129979    -0.170974819664     1.007825032230
         H           -3.287832578602    -0.618904129979     1.585506180336     1.007825032230
         H           -3.992272578602     0.528269870021     0.435335180336     1.007825032230
         H           -4.417018578602    -1.193488129979     0.347764180336     1.007825032230

  Basis Set: AUG-CC-PVTZ
    Blend: AUG-CC-PVTZ
  Basis Set: (AUG-CC-PVTZ AUX)
    Blend: AUG-CC-PVTZ-JKFIT
	 Reference Energy          =    -473.2887496621794980 [Eh]
	 Singles Energy            =      -0.0000000000000000 [Eh]
	 Same-Spin Energy          =      -0.4754793571628656 [Eh]
	 Opposite-Spin Energy      =      -1.4640660411248627 [Eh]
	 Correlation Energy        =      -1.9395453982877284 [Eh]
	 Total Energy              =    -475.2282950604672465 [Eh]

	 ================> DF-SCS-MP2 Energies <==================
	-----------------------------------------------------------
	 SCS Same-Spin Scale       =       0.3333333333333333 [-]
	 SCS Opposite-Spin Scale   =       1.2000000000000000 [-]
	 SCS Same-Spin Energy      =      -0.1584931190542885 [Eh]
	 SCS Opposite-Spin Energy  =      -1.7568792493498353 [Eh]
	 SCS Correlation Energy    =      -1.9153723684041237 [Eh]
	 SCS Total Energy          =    -475.2041220305836191 [Eh]
	-----------------------------------------------------------

  Dipole Moment: [D]
     X:    -9.4753      Y:    -1.0051      Z:    -0.4141     Total:     9.5374

*** Psi4 exiting successfully. Buy a developer a beer!
