                               Psi4 1.3.2 release

  ==> Input File <==

--------------------------------------------------------------------------
#psi4
#
memory 32 gb

molecule  {
-1 1
  O        1.5553730    -1.4489990    -0.0078940
  O       -2.4854273     1.3950056    -0.0164107
  O       -3.5434554    -0.5977329    -0.0277610
  N       -0.0146490     0.2143920     0.0158120
  C        2.3272120     0.8379530     0.0018960
  C        1.2455030    -0.2240550     0.0044360
  C       -1.1489000    -0.6463140     0.0180560
  C        3.7164760     0.2336920    -0.0114620
  C       -2.5073920     0.1288020     0.0323140
  H        2.1647820     1.4966320    -0.8622200
  H        2.1776990     1.4878210     0.8748480
  H       -1.1517560    -1.3070500    -0.8570610
  H       -1.1395970    -1.3178250     0.8849180
  H       -0.2830670     1.1965190     0.0239890
  H        3.8663740    -0.3931470     0.8680960
  H        3.8530680    -0.3842560    -0.8995260
  H        4.4669480     1.0276640    -0.0135300
units angstrom
no_reorient  #important for SAPT in psi4, default
symmetry c1  #important for SAPT in psi4, default
}

set PROPERTIES_ORIGIN ["COM"]
properties('MP2/aug-cc-pvtz', properties = ['dipole'])
--------------------------------------------------------------------------

    Molecular point group: c1
  Charge       = -1
  Multiplicity = 1
  Basis Set: AUG-CC-PVTZ
    Blend: AUG-CC-PVTZ
  Basis Set: (AUG-CC-PVTZ AUX)
    Blend: AUG-CC-PVTZ-JKFIT

    Orbital Energies [Eh]
    ---------------------

    Doubly Occupied:

       1A    -20.391986     2A    -20.321447     3A    -20.309776
       4A    -15.452029     5A    -11.228128     6A    -11.164182
       7A    -11.137930     8A    -11.124384     9A    -11.110161
      10A     -1.235785    11A     -1.186769    12A     -1.102935
      13A     -1.080616    14A     -0.952927    15A     -0.837101
      16A     -0.759080    17A     -0.660880    18A     -0.590407
      19A     -0.544994    20A     -0.535716    21A     -0.507394
      22A     -0.484744    23A     -0.474981    24A     -0.425732
      25A     -0.425539    26A     -0.417434    27A     -0.413788
      28A     -0.396545    29A     -0.380373    30A     -0.344037
      31A     -0.303778    32A     -0.258379    33A     -0.234165
      34A     -0.224769    35A     -0.211989

  @DF-RHF Final Energy:  -473.28123838136753

   => Energetics <=

    Nuclear Repulsion Energy =            433.2451212903734472
    One-Electron Energy =               -1518.5909594014044615
    Two-Electron Energy =                 612.0645997296635414
    Total Energy =                       -473.2812383813675297
  Basis Set: (AUG-CC-PVTZ AUX)
    Blend: AUG-CC-PVTZ-RI
    Molecular point group: c1

    Geometry (in Angstrom), charge = -1, multiplicity = 1:

       Center              X                  Y                   Z               Mass
    ------------   -----------------  -----------------  -----------------  -----------------
         O            1.663793287357    -1.436382887757    -0.007518583120    15.994914619570
         O           -2.377007012643     1.407621712243    -0.016035283120    15.994914619570
         O           -3.435035112643    -0.585116787757    -0.027385583120    15.994914619570
         N            0.093771287357     0.227008112243     0.016187416880    14.003074004430
         C            2.435632287357     0.850569112243     0.002271416880    12.000000000000
         C            1.353923287357    -0.211438887757     0.004811416880    12.000000000000
         C           -1.040479712643    -0.633697887757     0.018431416880    12.000000000000
         C            3.824896287357     0.246308112243    -0.011086583120    12.000000000000
         C           -2.398971712643     0.141418112243     0.032689416880    12.000000000000
         H            2.273202287357     1.509248112243    -0.861844583120     1.007825032230
         H            2.286119287357     1.500437112243     0.875223416880     1.007825032230
         H           -1.043335712643    -1.294433887757    -0.856685583120     1.007825032230
         H           -1.031176712643    -1.305208887757     0.885293416880     1.007825032230
         H           -0.174646712643     1.209135112243     0.024364416880     1.007825032230
         H            3.974794287357    -0.380530887757     0.868471416880     1.007825032230
         H            3.961488287357    -0.371639887757    -0.899150583120     1.007825032230
         H            4.575368287357     1.040280112243    -0.013154583120     1.007825032230

  Basis Set: AUG-CC-PVTZ
    Blend: AUG-CC-PVTZ
  Basis Set: (AUG-CC-PVTZ AUX)
    Blend: AUG-CC-PVTZ-JKFIT
	 Reference Energy          =    -473.2812383813675297 [Eh]
	 Singles Energy            =      -0.0000000000000000 [Eh]
	 Same-Spin Energy          =      -0.4761277733544182 [Eh]
	 Opposite-Spin Energy      =      -1.4653660487342264 [Eh]
	 Correlation Energy        =      -1.9414938220886446 [Eh]
	 Total Energy              =    -475.2227322034561894 [Eh]

	 ================> DF-SCS-MP2 Energies <==================
	-----------------------------------------------------------
	 SCS Same-Spin Scale       =       0.3333333333333333 [-]
	 SCS Opposite-Spin Scale   =       1.2000000000000000 [-]
	 SCS Same-Spin Energy      =      -0.1587092577848061 [Eh]
	 SCS Opposite-Spin Energy  =      -1.7584392584810715 [Eh]
	 SCS Correlation Energy    =      -1.9171485162658777 [Eh]
	 SCS Total Energy          =    -475.1983868976333838 [Eh]
	-----------------------------------------------------------

  Dipole Moment: [D]
     X:     9.9618      Y:     1.5365      Z:     0.1398     Total:    10.0806

*** Psi4 exiting successfully. Buy a developer a beer!
