                               Psi4 1.3.2 release

  ==> Input File <==

--------------------------------------------------------------------------
#psi4
#
memory 32 gb

molecule  {
-1 1
  O        1.5553730    -1.4489990    -0.0078940
  O       -2.4302388     1.3928296    -0.0167760
  O       -3.5371250    -0.6067510    -0.0268560
  N       -0.0146490     0.2143920     0.0158120
  C        2.3272120     0.8379530     0.0018960
  C        1.2455030    -0.2240550     0.0044360
  C       -1.1227266    -0.5984713     0.0154642
  C        3.7164760     0.2336920    -0.0114620
  C       -2.5073920     0.1288020     0.0323140
  H        2.1647820     1.4966320    -0.8622200
  H        2.1776990     1.4878210     0.8748480
  H       -1.1517560    -1.3070500    -0.8570610
  H       -1.1395970    -1.3178250     0.8849180
  H       -0.2830670     1.1965190     0.0239890
  H        3.8663740    -0.3931470     0.8680960
  H        3.8530680    -0.3842560    -0.8995260
  H        4.4669480     1.0276640    -0.0135300
units angstrom
no_reorient  #important for SAPT in psi4, default
symmetry c1  #important for SAPT in psi4, default
}

set PROPERTIES_ORIGIN ["COM"]
properties('MP2/aug-cc-pvtz', properties = ['dipole'])
--------------------------------------------------------------------------

    Molecular point group: c1
  Charge       = -1
  Multiplicity = 1
  Basis Set: AUG-CC-PVTZ
    Blend: AUG-CC-PVTZ
  Basis Set: (AUG-CC-PVTZ AUX)
    Blend: AUG-CC-PVTZ-JKFIT

    Orbital Energies [Eh]
    ---------------------

    Doubly Occupied:

       1A    -20.392644     2A    -20.322760     3A    -20.314134
       4A    -15.451123     5A    -11.228636     6A    -11.166101
       7A    -11.138233     8A    -11.124494     9A    -11.107022
      10A     -1.237572    11A     -1.187799    12A     -1.112435
      13A     -1.085904    14A     -0.953841    15A     -0.836950
      16A     -0.756047    17A     -0.663091    18A     -0.594088
      19A     -0.551083    20A     -0.536107    21A     -0.506143
      22A     -0.481529    23A     -0.477368    24A     -0.427512
      25A     -0.423886    26A     -0.414975    27A     -0.414752
      28A     -0.395537    29A     -0.380043    30A     -0.340816
      31A     -0.304583    32A     -0.251843    33A     -0.237048
      34A     -0.224249    35A     -0.215427

  @DF-RHF Final Energy:  -473.27537708996636

   => Energetics <=

    Nuclear Repulsion Energy =            434.5244268354996962
    One-Electron Energy =               -1521.0880569144619585
    Two-Electron Energy =                 613.2882529889958505
    Total Energy =                       -473.2753770899663550
  Basis Set: (AUG-CC-PVTZ AUX)
    Blend: AUG-CC-PVTZ-RI
    Molecular point group: c1

    Geometry (in Angstrom), charge = -1, multiplicity = 1:

       Center              X                  Y                   Z               Mass
    ------------   -----------------  -----------------  -----------------  -----------------
         O            1.653812001855    -1.439420661352    -0.007345810553    15.994914619570
         O           -2.331799798145     1.402407938648    -0.016227810553    15.994914619570
         O           -3.438685998145    -0.597172661352    -0.026307810553    15.994914619570
         N            0.083790001855     0.223970338648     0.016360189447    14.003074004430
         C            2.425651001855     0.847531338648     0.002444189447    12.000000000000
         C            1.343942001855    -0.214476661352     0.004984189447    12.000000000000
         C           -1.024287598145    -0.588892961352     0.016012389447    12.000000000000
         C            3.814915001855     0.243270338648    -0.010913810553    12.000000000000
         C           -2.408952998145     0.138380338648     0.032862189447    12.000000000000
         H            2.263221001855     1.506210338648    -0.861671810553     1.007825032230
         H            2.276138001855     1.497399338648     0.875396189447     1.007825032230
         H           -1.053316998145    -1.297471661352    -0.856512810553     1.007825032230
         H           -1.041157998145    -1.308246661352     0.885466189447     1.007825032230
         H           -0.184627998145     1.206097338648     0.024537189447     1.007825032230
         H            3.964813001855    -0.383568661352     0.868644189447     1.007825032230
         H            3.951507001855    -0.374677661352    -0.898977810553     1.007825032230
         H            4.565387001855     1.037242338648    -0.012981810553     1.007825032230

  Basis Set: AUG-CC-PVTZ
    Blend: AUG-CC-PVTZ
  Basis Set: (AUG-CC-PVTZ AUX)
    Blend: AUG-CC-PVTZ-JKFIT
	 Reference Energy          =    -473.2753770899663550 [Eh]
	 Singles Energy            =      -0.0000000000000000 [Eh]
	 Same-Spin Energy          =      -0.4769390274038368 [Eh]
	 Opposite-Spin Energy      =      -1.4660542605181013 [Eh]
	 Correlation Energy        =      -1.9429932879219380 [Eh]
	 Total Energy              =    -475.2183703778882773 [Eh]

	 ================> DF-SCS-MP2 Energies <==================
	-----------------------------------------------------------
	 SCS Same-Spin Scale       =       0.3333333333333333 [-]
	 SCS Opposite-Spin Scale   =       1.2000000000000000 [-]
	 SCS Same-Spin Energy      =      -0.1589796758012789 [Eh]
	 SCS Opposite-Spin Energy  =      -1.7592651126217216 [Eh]
	 SCS Correlation Energy    =      -1.9182447884230005 [Eh]
	 SCS Total Energy          =    -475.1936218783893651 [Eh]
	-----------------------------------------------------------

  Dipole Moment: [D]
     X:     9.8694      Y:     1.6778      Z:     0.1309     Total:    10.0119

*** Psi4 exiting successfully. Buy a developer a beer!
