                               Psi4 1.3.2 release

  ==> Input File <==

--------------------------------------------------------------------------
#psi4
#
memory 32 gb

molecule  {
-1 1
  O        1.5553730    -1.4489990    -0.0078940
  O       -2.4744110     1.3948030    -0.0154550
  O       -3.5371250    -0.6067510    -0.0268560
  N       -0.0146490     0.2143920     0.0158120
  C        2.3272120     0.8379530     0.0018960
  C        1.2492816    -0.2130414     0.0044817
  C       -1.1489000    -0.6463140     0.0180560
  C        3.7164760     0.2336920    -0.0114620
  C       -2.5073920     0.1288020     0.0323140
  H        2.1647820     1.4966320    -0.8622200
  H        2.1776990     1.4878210     0.8748480
  H       -1.1517560    -1.3070500    -0.8570610
  H       -1.1395970    -1.3178250     0.8849180
  H       -0.2744861     1.1988243     0.0239458
  H        3.8663740    -0.3931470     0.8680960
  H        3.8530680    -0.3842560    -0.8995260
  H        4.4669480     1.0276640    -0.0135300
units angstrom
no_reorient  #important for SAPT in psi4, default
symmetry c1  #important for SAPT in psi4, default
}

set PROPERTIES_ORIGIN ["COM"]
properties('MP2/aug-cc-pvtz', properties = ['dipole'])
--------------------------------------------------------------------------

    Molecular point group: c1
  Charge       = -1
  Multiplicity = 1
  Basis Set: AUG-CC-PVTZ
    Blend: AUG-CC-PVTZ
  Basis Set: (AUG-CC-PVTZ AUX)
    Blend: AUG-CC-PVTZ-JKFIT

    Orbital Energies [Eh]
    ---------------------

    Doubly Occupied:

       1A    -20.389920     2A    -20.322327     3A    -20.310844
       4A    -15.452261     5A    -11.227848     6A    -11.164777
       7A    -11.138302     8A    -11.124629     9A    -11.109355
      10A     -1.230205    11A     -1.186767    12A     -1.101367
      13A     -1.082262    14A     -0.954477    15A     -0.837491
      16A     -0.760265    17A     -0.659241    18A     -0.590489
      19A     -0.545452    20A     -0.536277    21A     -0.506589
      22A     -0.484043    23A     -0.473206    24A     -0.426735
      25A     -0.425469    26A     -0.417357    27A     -0.413178
      28A     -0.396816    29A     -0.378822    30A     -0.343019
      31A     -0.303067    32A     -0.257318    33A     -0.235100
      34A     -0.224920    35A     -0.213142

  @DF-RHF Final Energy:  -473.28038768204789

   => Energetics <=

    Nuclear Repulsion Energy =            433.3177961202214306
    One-Electron Energy =               -1518.7496905301379684
    Two-Electron Energy =                 612.1515067278686502
    Total Energy =                       -473.2803876820479445
  Basis Set: (AUG-CC-PVTZ AUX)
    Blend: AUG-CC-PVTZ-RI
    Molecular point group: c1

    Geometry (in Angstrom), charge = -1, multiplicity = 1:

       Center              X                  Y                   Z               Mass
    ------------   -----------------  -----------------  -----------------  -----------------
         O            1.661244658633    -1.436282943671    -0.007751312856    15.994914619570
         O           -2.368539341367     1.407519056329    -0.015312312856    15.994914619570
         O           -3.431253341367    -0.594034943671    -0.026713312856    15.994914619570
         N            0.091222658633     0.227108056329     0.015954687144    14.003074004430
         C            2.433083658633     0.850669056329     0.002038687144    12.000000000000
         C            1.355153258633    -0.200325343671     0.004624387144    12.000000000000
         C           -1.043028341367    -0.633597943671     0.018198687144    12.000000000000
         C            3.822347658633     0.246408056329    -0.011319312856    12.000000000000
         C           -2.401520341367     0.141518056329     0.032456687144    12.000000000000
         H            2.270653658633     1.509348056329    -0.862077312856     1.007825032230
         H            2.283570658633     1.500537056329     0.874990687144     1.007825032230
         H           -1.045884341367    -1.294333943671    -0.856918312856     1.007825032230
         H           -1.033725341367    -1.305108943671     0.885060687144     1.007825032230
         H           -0.168614441367     1.211540356329     0.024088487144     1.007825032230
         H            3.972245658633    -0.380430943671     0.868238687144     1.007825032230
         H            3.958939658633    -0.371539943671    -0.899383312856     1.007825032230
         H            4.572819658633     1.040380056329    -0.013387312856     1.007825032230

  Basis Set: AUG-CC-PVTZ
    Blend: AUG-CC-PVTZ
  Basis Set: (AUG-CC-PVTZ AUX)
    Blend: AUG-CC-PVTZ-JKFIT
	 Reference Energy          =    -473.2803876820478877 [Eh]
	 Singles Energy            =      -0.0000000000000000 [Eh]
	 Same-Spin Energy          =      -0.4763666599335100 [Eh]
	 Opposite-Spin Energy      =      -1.4658183350365754 [Eh]
	 Correlation Energy        =      -1.9421849949700853 [Eh]
	 Total Energy              =    -475.2225726770179790 [Eh]

	 ================> DF-SCS-MP2 Energies <==================
	-----------------------------------------------------------
	 SCS Same-Spin Scale       =       0.3333333333333333 [-]
	 SCS Opposite-Spin Scale   =       1.2000000000000000 [-]
	 SCS Same-Spin Energy      =      -0.1587888866445033 [Eh]
	 SCS Opposite-Spin Energy  =      -1.7589820020438904 [Eh]
	 SCS Correlation Energy    =      -1.9177708886883937 [Eh]
	 SCS Total Energy          =    -475.1981585707362683 [Eh]
	-----------------------------------------------------------

  Dipole Moment: [D]
     X:     9.9121      Y:     1.6241      Z:     0.1370     Total:    10.0452

*** Psi4 exiting successfully. Buy a developer a beer!
