                               Psi4 1.3.2 release

  ==> Input File <==

--------------------------------------------------------------------------
#psi4
#
memory 32 gb

molecule  {
-1 1
  O        1.5553730    -1.4489990    -0.0078940
  O       -2.4744110     1.3948030    -0.0154550
  O       -3.5371250    -0.6067510    -0.0268560
  N       -0.0146490     0.2143920     0.0158120
  C        2.3272120     0.8379530     0.0018960
  C        1.2455030    -0.2240550     0.0044360
  C       -1.1489000    -0.6463140     0.0180560
  C        3.7164760     0.2336920    -0.0114620
  C       -2.5274584     0.0880541     0.1004511
  H        2.1647820     1.4966320    -0.8622200
  H        2.1776990     1.4878210     0.8748480
  H       -1.1517560    -1.3070500    -0.8570610
  H       -1.1917691    -1.2982551     0.8987366
  H       -0.2830670     1.1965190     0.0239890
  H        3.8663740    -0.3931470     0.8680960
  H        3.8530680    -0.3842560    -0.8995260
  H        4.4669480     1.0276640    -0.0135300
units angstrom
no_reorient  #important for SAPT in psi4, default
symmetry c1  #important for SAPT in psi4, default
}

set PROPERTIES_ORIGIN ["COM"]
properties('MP2/aug-cc-pvtz', properties = ['dipole'])
--------------------------------------------------------------------------

    Molecular point group: c1
  Charge       = -1
  Multiplicity = 1
  Basis Set: AUG-CC-PVTZ
    Blend: AUG-CC-PVTZ
  Basis Set: (AUG-CC-PVTZ AUX)
    Blend: AUG-CC-PVTZ-JKFIT

    Orbital Energies [Eh]
    ---------------------

    Doubly Occupied:

       1A    -20.390732     2A    -20.322046     3A    -20.312109
       4A    -15.451058     5A    -11.227171     6A    -11.165531
       7A    -11.137033     8A    -11.123662     9A    -11.109803
      10A     -1.234526    11A     -1.190597    12A     -1.103871
      13A     -1.072154    14A     -0.951948    15A     -0.836333
      16A     -0.759293    17A     -0.658961    18A     -0.589734
      19A     -0.546292    20A     -0.534713    21A     -0.505056
      22A     -0.485103    23A     -0.473904    24A     -0.427056
      25A     -0.424382    26A     -0.417319    27A     -0.413853
      28A     -0.392842    29A     -0.380296    30A     -0.343483
      31A     -0.302879    32A     -0.257456    33A     -0.231427
      34A     -0.224378    35A     -0.212205

  @DF-RHF Final Energy:  -473.27258309005106

   => Energetics <=

    Nuclear Repulsion Energy =            433.0863447676558167
    One-Electron Energy =               -1518.2994455218099574
    Two-Electron Energy =                 611.9405176641030266
    Total Energy =                       -473.2725830900510573
  Basis Set: (AUG-CC-PVTZ AUX)
    Blend: AUG-CC-PVTZ-RI
    Molecular point group: c1

    Geometry (in Angstrom), charge = -1, multiplicity = 1:

       Center              X                  Y                   Z               Mass
    ------------   -----------------  -----------------  -----------------  -----------------
         O            1.663915687294    -1.431640603318    -0.014141658086    15.994914619570
         O           -2.365868312706     1.412161396682    -0.021702658086    15.994914619570
         O           -3.428582312706    -0.589392603318    -0.033103658086    15.994914619570
         N            0.093893687294     0.231750396682     0.009564341914    14.003074004430
         C            2.435754687294     0.855311396682    -0.004351658086    12.000000000000
         C            1.354045687294    -0.206696603318    -0.001811658086    12.000000000000
         C           -1.040357312706    -0.628955603318     0.011808341914    12.000000000000
         C            3.825018687294     0.251050396682    -0.017709658086    12.000000000000
         C           -2.418915712706     0.105412496682     0.094203441914    12.000000000000
         H            2.273324687294     1.513990396682    -0.868467658086     1.007825032230
         H            2.286241687294     1.505179396682     0.868600341914     1.007825032230
         H           -1.043213312706    -1.289691603318    -0.863308658086     1.007825032230
         H           -1.083226412706    -1.280896703318     0.892488941914     1.007825032230
         H           -0.174524312706     1.213877396682     0.017741341914     1.007825032230
         H            3.974916687294    -0.375788603318     0.861848341914     1.007825032230
         H            3.961610687294    -0.366897603318    -0.905773658086     1.007825032230
         H            4.575490687294     1.045022396682    -0.019777658086     1.007825032230

  Basis Set: AUG-CC-PVTZ
    Blend: AUG-CC-PVTZ
  Basis Set: (AUG-CC-PVTZ AUX)
    Blend: AUG-CC-PVTZ-JKFIT
	 Reference Energy          =    -473.2725830900510573 [Eh]
	 Singles Energy            =      -0.0000000000000000 [Eh]
	 Same-Spin Energy          =      -0.4766236906502435 [Eh]
	 Opposite-Spin Energy      =      -1.4665089117823054 [Eh]
	 Correlation Energy        =      -1.9431326024325488 [Eh]
	 Total Energy              =    -475.2157156924836272 [Eh]

	 ================> DF-SCS-MP2 Energies <==================
	-----------------------------------------------------------
	 SCS Same-Spin Scale       =       0.3333333333333333 [-]
	 SCS Opposite-Spin Scale   =       1.2000000000000000 [-]
	 SCS Same-Spin Energy      =      -0.1588745635500812 [Eh]
	 SCS Opposite-Spin Energy  =      -1.7598106941387663 [Eh]
	 SCS Correlation Energy    =      -1.9186852576888476 [Eh]
	 SCS Total Energy          =    -475.1912683477398787 [Eh]
	-----------------------------------------------------------

  Dipole Moment: [D]
     X:     9.6516      Y:     1.1592      Z:     0.1752     Total:     9.7226

*** Psi4 exiting successfully. Buy a developer a beer!
