                               Psi4 1.3.2 release

  ==> Input File <==

--------------------------------------------------------------------------
#psi4
#
memory 32 gb

molecule  {
-1 1
  O        1.5553730    -1.4489990    -0.0078940
  O       -2.4744110     1.3948030    -0.0154550
  O       -3.5371250    -0.6067510    -0.0268560
  N       -0.0146490     0.2143920     0.0158120
  C        2.3272120     0.8379530     0.0018960
  C        1.2455030    -0.2240550     0.0044360
  C       -1.1489000    -0.6463140     0.0180560
  C        3.7164760     0.2336920    -0.0114620
  C       -2.6810976     0.2279133     0.0341371
  H        2.1647820     1.4966320    -0.8622200
  H        2.1776990     1.4878210     0.8748480
  H       -1.1517560    -1.3070500    -0.8570610
  H       -1.1395970    -1.3178250     0.8849180
  H       -0.2830670     1.1965190     0.0239890
  H        3.8663740    -0.3931470     0.8680960
  H        3.8530680    -0.3842560    -0.8995260
  H        4.4669480     1.0276640    -0.0135300
units angstrom
no_reorient  #important for SAPT in psi4, default
symmetry c1  #important for SAPT in psi4, default
}

set PROPERTIES_ORIGIN ["COM"]
properties('MP2/aug-cc-pvtz', properties = ['dipole'])
--------------------------------------------------------------------------

    Molecular point group: c1
  Charge       = -1
  Multiplicity = 1
  Basis Set: AUG-CC-PVTZ
    Blend: AUG-CC-PVTZ
  Basis Set: (AUG-CC-PVTZ AUX)
    Blend: AUG-CC-PVTZ-JKFIT

    Orbital Energies [Eh]
    ---------------------

    Doubly Occupied:

       1A    -20.378455     2A    -20.340791     3A    -20.328027
       4A    -15.436335     5A    -11.213960     6A    -11.172126
       7A    -11.129054     8A    -11.117475     9A    -11.071923
      10A     -1.241112    11A     -1.220800    12A     -1.156532
      13A     -1.083694    14A     -0.943369    15A     -0.807842
      16A     -0.732597    17A     -0.643892    18A     -0.570455
      19A     -0.537194    20A     -0.525870    21A     -0.499687
      22A     -0.473506    23A     -0.463513    24A     -0.456230
      25A     -0.429164    26A     -0.420282    27A     -0.411541
      28A     -0.393592    29A     -0.392158    30A     -0.348453
      31A     -0.292961    32A     -0.268611    33A     -0.254320
      34A     -0.233965    35A     -0.178039

  @DF-RHF Final Energy:  -473.26219854908288

   => Energetics <=

    Nuclear Repulsion Energy =            432.9229655682784710
    One-Electron Energy =               -1518.0352809234877896
    Two-Electron Energy =                 611.8501168061264934
    Total Energy =                       -473.2621985490828820
  Basis Set: (AUG-CC-PVTZ AUX)
    Blend: AUG-CC-PVTZ-RI
    Molecular point group: c1

    Geometry (in Angstrom), charge = -1, multiplicity = 1:

       Center              X                  Y                   Z               Mass
    ------------   -----------------  -----------------  -----------------  -----------------
         O            1.677687961751    -1.444394021483    -0.007915651721    15.994914619570
         O           -2.352096038249     1.399407978517    -0.015476651721    15.994914619570
         O           -3.414810038249    -0.602146021483    -0.026877651721    15.994914619570
         N            0.107665961751     0.218996978517     0.015790348279    14.003074004430
         C            2.449526961751     0.842557978517     0.001874348279    12.000000000000
         C            1.367817961751    -0.219450021483     0.004414348279    12.000000000000
         C           -1.026585038249    -0.641709021483     0.018034348279    12.000000000000
         C            3.838790961751     0.238296978517    -0.011483651721    12.000000000000
         C           -2.558782638249     0.232518278517     0.034115448279    12.000000000000
         H            2.287096961751     1.501236978517    -0.862241651721     1.007825032230
         H            2.300013961751     1.492425978517     0.874826348279     1.007825032230
         H           -1.029441038249    -1.302445021483    -0.857082651721     1.007825032230
         H           -1.017282038249    -1.313220021483     0.884896348279     1.007825032230
         H           -0.160752038249     1.201123978517     0.023967348279     1.007825032230
         H            3.988688961751    -0.388542021483     0.868074348279     1.007825032230
         H            3.975382961751    -0.379651021483    -0.899547651721     1.007825032230
         H            4.589262961751     1.032268978517    -0.013551651721     1.007825032230

  Basis Set: AUG-CC-PVTZ
    Blend: AUG-CC-PVTZ
  Basis Set: (AUG-CC-PVTZ AUX)
    Blend: AUG-CC-PVTZ-JKFIT
	 Reference Energy          =    -473.2621985490828820 [Eh]
	 Singles Energy            =      -0.0000000000000000 [Eh]
	 Same-Spin Energy          =      -0.4752739992985865 [Eh]
	 Opposite-Spin Energy      =      -1.4621421239805819 [Eh]
	 Correlation Energy        =      -1.9374161232791685 [Eh]
	 Total Energy              =    -475.1996146723620313 [Eh]

	 ================> DF-SCS-MP2 Energies <==================
	-----------------------------------------------------------
	 SCS Same-Spin Scale       =       0.3333333333333333 [-]
	 SCS Opposite-Spin Scale   =       1.2000000000000000 [-]
	 SCS Same-Spin Energy      =      -0.1584246664328622 [Eh]
	 SCS Opposite-Spin Energy  =      -1.7545705487766983 [Eh]
	 SCS Correlation Energy    =      -1.9129952152095604 [Eh]
	 SCS Total Energy          =    -475.1751937642924304 [Eh]
	-----------------------------------------------------------

  Dipole Moment: [D]
     X:     8.2175      Y:     2.3252      Z:     0.1303     Total:     8.5411

*** Psi4 exiting successfully. Buy a developer a beer!
