                               Psi4 1.3.2 release

  ==> Input File <==

--------------------------------------------------------------------------
#psi4
#
memory 32 gb

molecule  {
-1 1
  O        1.5553730    -1.4489990    -0.0078940
  O       -2.4744110     1.3948030    -0.0154550
  O       -3.5371250    -0.6067510    -0.0268560
  N       -0.0146490     0.2143920     0.0158120
  C        2.3272120     0.8379530     0.0018960
  C        1.2416284    -0.2350353     0.0043925
  C       -1.1413463    -0.6561790     0.0179417
  C        3.7164760     0.2336920    -0.0114620
  C       -2.5073920     0.1288020     0.0323140
  H        2.1647820     1.4966320    -0.8622200
  H        2.1776990     1.4878210     0.8748480
  H       -1.1517560    -1.3070500    -0.8570610
  H       -1.1395970    -1.3178250     0.8849180
  H       -0.2830670     1.1965190     0.0239890
  H        3.8663740    -0.3931470     0.8680960
  H        3.8530680    -0.3842560    -0.8995260
  H        4.4669480     1.0276640    -0.0135300
units angstrom
no_reorient  #important for SAPT in psi4, default
symmetry c1  #important for SAPT in psi4, default
}

set PROPERTIES_ORIGIN ["COM"]
properties('MP2/aug-cc-pvtz', properties = ['dipole'])
--------------------------------------------------------------------------

    Molecular point group: c1
  Charge       = -1
  Multiplicity = 1
  Basis Set: AUG-CC-PVTZ
    Blend: AUG-CC-PVTZ
  Basis Set: (AUG-CC-PVTZ AUX)
    Blend: AUG-CC-PVTZ-JKFIT

    Orbital Energies [Eh]
    ---------------------

    Doubly Occupied:

       1A    -20.392790     2A    -20.322682     3A    -20.310798
       4A    -15.450252     5A    -11.226810     6A    -11.165017
       7A    -11.136683     8A    -11.123517     9A    -11.107675
      10A     -1.240415    11A     -1.186673    12A     -1.103184
      13A     -1.082356    14A     -0.950562    15A     -0.834612
      16A     -0.756569    17A     -0.660753    18A     -0.588575
      19A     -0.542902    20A     -0.534451    21A     -0.508596
      22A     -0.485322    23A     -0.476445    24A     -0.424918
      25A     -0.423876    26A     -0.417183    27A     -0.414241
      28A     -0.397655    29A     -0.381393    30A     -0.345849
      31A     -0.303124    32A     -0.259021    33A     -0.234984
      34A     -0.223489    35A     -0.213224

  @DF-RHF Final Energy:  -473.28267887789701

   => Energetics <=

    Nuclear Repulsion Energy =            433.3596860723385475
    One-Electron Energy =               -1518.8315364069319457
    Two-Electron Energy =                 612.1891714566963856
    Total Energy =                       -473.2826788778970695
  Basis Set: (AUG-CC-PVTZ AUX)
    Blend: AUG-CC-PVTZ-RI
    Molecular point group: c1

    Geometry (in Angstrom), charge = -1, multiplicity = 1:

       Center              X                  Y                   Z               Mass
    ------------   -----------------  -----------------  -----------------  -----------------
         O            1.661320337327    -1.433325397324    -0.007732870302    15.994914619570
         O           -2.368463662673     1.410476602676    -0.015293870302    15.994914619570
         O           -3.431177662673    -0.591077397324    -0.026694870302    15.994914619570
         N            0.091298337327     0.230065602676     0.015973129698    14.003074004430
         C            2.433159337327     0.853626602676     0.002057129698    12.000000000000
         C            1.347575737327    -0.219361697324     0.004553629698    12.000000000000
         C           -1.035398962673    -0.640505397324     0.018102829698    12.000000000000
         C            3.822423337327     0.249365602676    -0.011300870302    12.000000000000
         C           -2.401444662673     0.144475602676     0.032475129698    12.000000000000
         H            2.270729337327     1.512305602676    -0.862058870302     1.007825032230
         H            2.283646337327     1.503494602676     0.875009129698     1.007825032230
         H           -1.045808662673    -1.291376397324    -0.856899870302     1.007825032230
         H           -1.033649662673    -1.302151397324     0.885079129698     1.007825032230
         H           -0.177119662673     1.212192602676     0.024150129698     1.007825032230
         H            3.972321337327    -0.377473397324     0.868257129698     1.007825032230
         H            3.959015337327    -0.368582397324    -0.899364870302     1.007825032230
         H            4.572895337327     1.043337602676    -0.013368870302     1.007825032230

  Basis Set: AUG-CC-PVTZ
    Blend: AUG-CC-PVTZ
  Basis Set: (AUG-CC-PVTZ AUX)
    Blend: AUG-CC-PVTZ-JKFIT
	 Reference Energy          =    -473.2826788778970126 [Eh]
	 Singles Energy            =      -0.0000000000000000 [Eh]
	 Same-Spin Energy          =      -0.4759221382089246 [Eh]
	 Opposite-Spin Energy      =      -1.4649292913779466 [Eh]
	 Correlation Energy        =      -1.9408514295868713 [Eh]
	 Total Energy              =    -475.2235303074838839 [Eh]

	 ================> DF-SCS-MP2 Energies <==================
	-----------------------------------------------------------
	 SCS Same-Spin Scale       =       0.3333333333333333 [-]
	 SCS Opposite-Spin Scale   =       1.2000000000000000 [-]
	 SCS Same-Spin Energy      =      -0.1586407127363082 [Eh]
	 SCS Opposite-Spin Energy  =      -1.7579151496535359 [Eh]
	 SCS Correlation Energy    =      -1.9165558623898442 [Eh]
	 SCS Total Energy          =    -475.1992347402868404 [Eh]
	-----------------------------------------------------------

  Dipole Moment: [D]
     X:     9.8794      Y:     1.5012      Z:     0.1362     Total:     9.9937

*** Psi4 exiting successfully. Buy a developer a beer!
