                               Psi4 1.3.2 release

  ==> Input File <==

--------------------------------------------------------------------------
#psi4
#
memory 32 gb

molecule  {
-1 1
  O        1.5553730    -1.4489990    -0.0078940
  O       -2.4964452     1.3951118    -0.0173626
  O       -3.5497069    -0.5886595    -0.0286614
  N       -0.0146490     0.2143920     0.0158120
  C        2.3272120     0.8379530     0.0018960
  C        1.2455030    -0.2240550     0.0044360
  C       -1.1489000    -0.6463140     0.0180560
  C        3.7164760     0.2336920    -0.0114620
  C       -2.5073920     0.1288020     0.0323140
  H        2.1647820     1.4966320    -0.8622200
  H        2.1776990     1.4878210     0.8748480
  H       -1.1517560    -1.3070500    -0.8570610
  H       -1.1395970    -1.3178250     0.8849180
  H       -0.2830670     1.1965190     0.0239890
  H        3.8663740    -0.3931470     0.8680960
  H        3.8530680    -0.3842560    -0.8995260
  H        4.4669480     1.0276640    -0.0135300
units angstrom
no_reorient  #important for SAPT in psi4, default
symmetry c1  #important for SAPT in psi4, default
}

set PROPERTIES_ORIGIN ["COM"]
properties('MP2/aug-cc-pvtz', properties = ['dipole'])
--------------------------------------------------------------------------

    Molecular point group: c1
  Charge       = -1
  Multiplicity = 1
  Basis Set: AUG-CC-PVTZ
    Blend: AUG-CC-PVTZ
  Basis Set: (AUG-CC-PVTZ AUX)
    Blend: AUG-CC-PVTZ-JKFIT

    Orbital Energies [Eh]
    ---------------------

    Doubly Occupied:

       1A    -20.392540     2A    -20.320373     3A    -20.308716
       4A    -15.452818     5A    -11.228713     6A    -11.163626
       7A    -11.138307     8A    -11.124674     9A    -11.111418
      10A     -1.236342    11A     -1.186564    12A     -1.103523
      13A     -1.078755    14A     -0.953316    15A     -0.837867
      16A     -0.759607    17A     -0.661538    18A     -0.590875
      19A     -0.545218    20A     -0.536121    21A     -0.507615
      22A     -0.485332    23A     -0.475071    24A     -0.425857
      25A     -0.425721    26A     -0.417746    27A     -0.413788
      28A     -0.396207    29A     -0.380581    30A     -0.344019
      31A     -0.304251    32A     -0.258944    33A     -0.233419
      34A     -0.224282    35A     -0.210730

  @DF-RHF Final Energy:  -473.28056735397075

   => Energetics <=

    Nuclear Repulsion Energy =            433.1092530065689061
    One-Electron Energy =               -1518.3106901476940038
    Two-Electron Energy =                 611.9208697871544018
    Total Energy =                       -473.2805673539706959
  Basis Set: (AUG-CC-PVTZ AUX)
    Blend: AUG-CC-PVTZ-RI
    Molecular point group: c1

    Geometry (in Angstrom), charge = -1, multiplicity = 1:

       Center              X                  Y                   Z               Mass
    ------------   -----------------  -----------------  -----------------  -----------------
         O            1.665917252682    -1.437511887727    -0.007290768548    15.994914619570
         O           -2.385900947318     1.406598912273    -0.016759368548    15.994914619570
         O           -3.439162647318    -0.577172387727    -0.028058168548    15.994914619570
         N            0.095895252682     0.225879112273     0.016415231452    14.003074004430
         C            2.437756252682     0.849440112273     0.002499231452    12.000000000000
         C            1.356047252682    -0.212567887727     0.005039231452    12.000000000000
         C           -1.038355747318    -0.634826887727     0.018659231452    12.000000000000
         C            3.827020252682     0.245179112273    -0.010858768548    12.000000000000
         C           -2.396847747318     0.140289112273     0.032917231452    12.000000000000
         H            2.275326252682     1.508119112273    -0.861616768548     1.007825032230
         H            2.288243252682     1.499308112273     0.875451231452     1.007825032230
         H           -1.041211747318    -1.295562887727    -0.856457768548     1.007825032230
         H           -1.029052747318    -1.306337887727     0.885521231452     1.007825032230
         H           -0.172522747318     1.208006112273     0.024592231452     1.007825032230
         H            3.976918252682    -0.381659887727     0.868699231452     1.007825032230
         H            3.963612252682    -0.372768887727    -0.898922768548     1.007825032230
         H            4.577492252682     1.039151112273    -0.012926768548     1.007825032230

  Basis Set: AUG-CC-PVTZ
    Blend: AUG-CC-PVTZ
  Basis Set: (AUG-CC-PVTZ AUX)
    Blend: AUG-CC-PVTZ-JKFIT
	 Reference Energy          =    -473.2805673539707527 [Eh]
	 Singles Energy            =      -0.0000000000000000 [Eh]
	 Same-Spin Energy          =      -0.4761017149737473 [Eh]
	 Opposite-Spin Energy      =      -1.4653535596499743 [Eh]
	 Correlation Energy        =      -1.9414552746237215 [Eh]
	 Total Energy              =    -475.2220226285944591 [Eh]

	 ================> DF-SCS-MP2 Energies <==================
	-----------------------------------------------------------
	 SCS Same-Spin Scale       =       0.3333333333333333 [-]
	 SCS Opposite-Spin Scale   =       1.2000000000000000 [-]
	 SCS Same-Spin Energy      =      -0.1587005716579158 [Eh]
	 SCS Opposite-Spin Energy  =      -1.7584242715799692 [Eh]
	 SCS Correlation Energy    =      -1.9171248432378849 [Eh]
	 SCS Total Energy          =    -475.1976921972086529 [Eh]
	-----------------------------------------------------------

  Dipole Moment: [D]
     X:    10.0277      Y:     1.5097      Z:     0.1429     Total:    10.1417

*** Psi4 exiting successfully. Buy a developer a beer!
