                               Psi4 1.3.2 release

  ==> Input File <==

--------------------------------------------------------------------------
#psi4
#
memory 32 gb

molecule  {
-1 1
  O        1.5553730    -1.4489990    -0.0078940
  O       -2.5407278     1.3948708    -0.0133649
  O       -3.5371250    -0.6067510    -0.0268560
  N       -0.0146490     0.2143920     0.0158120
  C        2.3272120     0.8379530     0.0018960
  C        1.2455030    -0.2240550     0.0044360
  C       -1.1912529    -0.7162895     0.0219753
  C        3.7164760     0.2336920    -0.0114620
  C       -2.5073920     0.1288020     0.0323140
  H        2.1647820     1.4966320    -0.8622200
  H        2.1776990     1.4878210     0.8748480
  H       -1.1517560    -1.3070500    -0.8570610
  H       -1.1395970    -1.3178250     0.8849180
  H       -0.2830670     1.1965190     0.0239890
  H        3.8663740    -0.3931470     0.8680960
  H        3.8530680    -0.3842560    -0.8995260
  H        4.4669480     1.0276640    -0.0135300
units angstrom
no_reorient  #important for SAPT in psi4, default
symmetry c1  #important for SAPT in psi4, default
}

set PROPERTIES_ORIGIN ["COM"]
properties('MP2/aug-cc-pvtz', properties = ['dipole'])
--------------------------------------------------------------------------

    Molecular point group: c1
  Charge       = -1
  Multiplicity = 1
  Basis Set: AUG-CC-PVTZ
    Blend: AUG-CC-PVTZ
  Basis Set: (AUG-CC-PVTZ AUX)
    Blend: AUG-CC-PVTZ-JKFIT

    Orbital Energies [Eh]
    ---------------------

    Doubly Occupied:

       1A    -20.389529     2A    -20.322451     3A    -20.306627
       4A    -15.450192     5A    -11.225620     6A    -11.163809
       7A    -11.136337     8A    -11.123324     9A    -11.113924
      10A     -1.232081    11A     -1.187105    12A     -1.089132
      13A     -1.077791    14A     -0.950490    15A     -0.837246
      16A     -0.761816    17A     -0.655975    18A     -0.585454
      19A     -0.538926    20A     -0.534308    21A     -0.505182
      22A     -0.492748    23A     -0.470766    24A     -0.430340
      25A     -0.422349    26A     -0.420766    27A     -0.411947
      28A     -0.393484    29A     -0.380311    30A     -0.349111
      31A     -0.301223    32A     -0.262591    33A     -0.235437
      34A     -0.222007    35A     -0.210147

  @DF-RHF Final Energy:  -473.27649276919595

   => Energetics <=

    Nuclear Repulsion Energy =            431.7838109349389697
    One-Electron Energy =               -1515.7395097004466606
    Two-Electron Energy =                 610.6792059963117936
    Total Energy =                       -473.2764927691960111
  Basis Set: (AUG-CC-PVTZ AUX)
    Blend: AUG-CC-PVTZ-RI
    Molecular point group: c1

    Geometry (in Angstrom), charge = -1, multiplicity = 1:

       Center              X                  Y                   Z               Mass
    ------------   -----------------  -----------------  -----------------  -----------------
         O            1.673724107935    -1.428800398840    -0.008366133710    15.994914619570
         O           -2.422376692065     1.415069401160    -0.013837033710    15.994914619570
         O           -3.418773892065    -0.586552398840    -0.027328133710    15.994914619570
         N            0.103702107935     0.234590601160     0.015339866290    14.003074004430
         C            2.445563107935     0.858151601160     0.001423866290    12.000000000000
         C            1.363854107935    -0.203856398840     0.003963866290    12.000000000000
         C           -1.072901792065    -0.696090898840     0.021503166290    12.000000000000
         C            3.834827107935     0.253890601160    -0.011934133710    12.000000000000
         C           -2.389040892065     0.149000601160     0.031841866290    12.000000000000
         H            2.283133107935     1.516830601160    -0.862692133710     1.007825032230
         H            2.296050107935     1.508019601160     0.874375866290     1.007825032230
         H           -1.033404892065    -1.286851398840    -0.857533133710     1.007825032230
         H           -1.021245892065    -1.297626398840     0.884445866290     1.007825032230
         H           -0.164715892065     1.216717601160     0.023516866290     1.007825032230
         H            3.984725107935    -0.372948398840     0.867623866290     1.007825032230
         H            3.971419107935    -0.364057398840    -0.899998133710     1.007825032230
         H            4.585299107935     1.047862601160    -0.014002133710     1.007825032230

  Basis Set: AUG-CC-PVTZ
    Blend: AUG-CC-PVTZ
  Basis Set: (AUG-CC-PVTZ AUX)
    Blend: AUG-CC-PVTZ-JKFIT
	 Reference Energy          =    -473.2764927691959542 [Eh]
	 Singles Energy            =      -0.0000000000000000 [Eh]
	 Same-Spin Energy          =      -0.4755688504007463 [Eh]
	 Opposite-Spin Energy      =      -1.4654297996837480 [Eh]
	 Correlation Energy        =      -1.9409986500844942 [Eh]
	 Total Energy              =    -475.2174914192804636 [Eh]

	 ================> DF-SCS-MP2 Energies <==================
	-----------------------------------------------------------
	 SCS Same-Spin Scale       =       0.3333333333333333 [-]
	 SCS Opposite-Spin Scale   =       1.2000000000000000 [-]
	 SCS Same-Spin Energy      =      -0.1585229501335821 [Eh]
	 SCS Opposite-Spin Energy  =      -1.7585157596204974 [Eh]
	 SCS Correlation Energy    =      -1.9170387097540795 [Eh]
	 SCS Total Energy          =    -475.1935314789500353 [Eh]
	-----------------------------------------------------------

  Dipole Moment: [D]
     X:     9.8929      Y:     1.4104      Z:     0.1431     Total:     9.9939

*** Psi4 exiting successfully. Buy a developer a beer!
