                               Psi4 1.3.2 release

  ==> Input File <==

--------------------------------------------------------------------------
#psi4
#
memory 32 gb

molecule  {
-1 1
  O        1.5553730    -1.4489990    -0.0078940
  O       -2.4744110     1.3948030    -0.0154550
  O       -3.5371250    -0.6067510    -0.0268560
  N       -0.0146490     0.2143920     0.0158120
  C        2.3272120     0.8379530     0.0018960
  C        1.2455030    -0.2240550     0.0044360
  C       -1.2285609    -0.7067633     0.0182136
  C        3.7164760     0.2336920    -0.0114620
  C       -2.5073920     0.1288020     0.0323140
  H        2.1647820     1.4966320    -0.8622200
  H        2.1776990     1.4878210     0.8748480
  H       -1.1517560    -1.3070500    -0.8570610
  H       -1.1395970    -1.3178250     0.8849180
  H       -0.2830670     1.1965190     0.0239890
  H        3.8663740    -0.3931470     0.8680960
  H        3.8530680    -0.3842560    -0.8995260
  H        4.4669480     1.0276640    -0.0135300
units angstrom
no_reorient  #important for SAPT in psi4, default
symmetry c1  #important for SAPT in psi4, default
}

set PROPERTIES_ORIGIN ["COM"]
properties('MP2/aug-cc-pvtz', properties = ['dipole'])
--------------------------------------------------------------------------

    Molecular point group: c1
  Charge       = -1
  Multiplicity = 1
  Basis Set: AUG-CC-PVTZ
    Blend: AUG-CC-PVTZ
  Basis Set: (AUG-CC-PVTZ AUX)
    Blend: AUG-CC-PVTZ-JKFIT

    Orbital Energies [Eh]
    ---------------------

    Doubly Occupied:

       1A    -20.386490     2A    -20.325103     3A    -20.311074
       4A    -15.446038     5A    -11.222969     6A    -11.164735
       7A    -11.134444     8A    -11.121849     9A    -11.113554
      10A     -1.228696    11A     -1.189626    12A     -1.089037
      13A     -1.078148    14A     -0.948241    15A     -0.836730
      16A     -0.761448    17A     -0.651411    18A     -0.585255
      19A     -0.542701    20A     -0.531889    21A     -0.500422
      22A     -0.488960    23A     -0.469658    24A     -0.433495
      25A     -0.422869    26A     -0.419533    27A     -0.412016
      28A     -0.388935    29A     -0.379113    30A     -0.348339
      31A     -0.298691    32A     -0.259327    33A     -0.239938
      34A     -0.226814    35A     -0.214528

  @DF-RHF Final Energy:  -473.27835256893133

   => Energetics <=

    Nuclear Repulsion Energy =            432.3543263283000897
    One-Electron Energy =               -1516.9212068328533860
    Two-Electron Energy =                 611.2885279356221417
    Total Energy =                       -473.2783525689312683
  Basis Set: (AUG-CC-PVTZ AUX)
    Blend: AUG-CC-PVTZ-RI
    Molecular point group: c1

    Geometry (in Angstrom), charge = -1, multiplicity = 1:

       Center              X                  Y                   Z               Mass
    ------------   -----------------  -----------------  -----------------  -----------------
         O            1.669010278001    -1.429671060745    -0.007761972861    15.994914619570
         O           -2.360773721999     1.414130939255    -0.015322972861    15.994914619570
         O           -3.423487721999    -0.587423060745    -0.026723972861    15.994914619570
         N            0.098988278001     0.233719939255     0.015944027139    14.003074004430
         C            2.440849278001     0.857280939255     0.002028027139    12.000000000000
         C            1.359140278001    -0.204727060745     0.004568027139    12.000000000000
         C           -1.114923621999    -0.687435360745     0.018345627139    12.000000000000
         C            3.830113278001     0.253019939255    -0.011329972861    12.000000000000
         C           -2.393754721999     0.148129939255     0.032446027139    12.000000000000
         H            2.278419278001     1.515959939255    -0.862087972861     1.007825032230
         H            2.291336278001     1.507148939255     0.874980027139     1.007825032230
         H           -1.038118721999    -1.287722060745    -0.856928972861     1.007825032230
         H           -1.025959721999    -1.298497060745     0.885050027139     1.007825032230
         H           -0.169429721999     1.215846939255     0.024121027139     1.007825032230
         H            3.980011278001    -0.373819060745     0.868228027139     1.007825032230
         H            3.966705278001    -0.364928060745    -0.899393972861     1.007825032230
         H            4.580585278001     1.046991939255    -0.013397972861     1.007825032230

  Basis Set: AUG-CC-PVTZ
    Blend: AUG-CC-PVTZ
  Basis Set: (AUG-CC-PVTZ AUX)
    Blend: AUG-CC-PVTZ-JKFIT
	 Reference Energy          =    -473.2783525689313251 [Eh]
	 Singles Energy            =      -0.0000000000000000 [Eh]
	 Same-Spin Energy          =      -0.4756847220638486 [Eh]
	 Opposite-Spin Energy      =      -1.4656479036026775 [Eh]
	 Correlation Energy        =      -1.9413326256665262 [Eh]
	 Total Energy              =    -475.2196851945978437 [Eh]

	 ================> DF-SCS-MP2 Energies <==================
	-----------------------------------------------------------
	 SCS Same-Spin Scale       =       0.3333333333333333 [-]
	 SCS Opposite-Spin Scale   =       1.2000000000000000 [-]
	 SCS Same-Spin Energy      =      -0.1585615740212828 [Eh]
	 SCS Opposite-Spin Energy  =      -1.7587774843232129 [Eh]
	 SCS Correlation Energy    =      -1.9173390583444958 [Eh]
	 SCS Total Energy          =    -475.1956916272758349 [Eh]
	-----------------------------------------------------------

  Dipole Moment: [D]
     X:     9.5883      Y:     1.4125      Z:     0.1399     Total:     9.6927

*** Psi4 exiting successfully. Buy a developer a beer!
