                               Psi4 1.3.2 release

  ==> Input File <==

--------------------------------------------------------------------------
#psi4
#
memory 32 gb

molecule  {
-1 1
  O        1.5553730    -1.4489990    -0.0078940
  O       -2.4744110     1.3948030    -0.0154550
  O       -3.5371250    -0.6067510    -0.0268560
  N        0.0288397     0.1538521     0.0151267
  C        2.3272120     0.8379530     0.0018960
  C        1.2455030    -0.2240550     0.0044360
  C       -1.1489000    -0.6463140     0.0180560
  C        3.7164760     0.2336920    -0.0114620
  C       -2.5460997     0.0566398     0.0321164
  H        2.1647820     1.4966320    -0.8622200
  H        2.1776990     1.4878210     0.8748480
  H       -1.1517560    -1.3070500    -0.8570610
  H       -1.1395970    -1.3178250     0.8849180
  H       -0.2830670     1.1965190     0.0239890
  H        3.8663740    -0.3931470     0.8680960
  H        3.8530680    -0.3842560    -0.8995260
  H        4.4669480     1.0276640    -0.0135300
units angstrom
no_reorient  #important for SAPT in psi4, default
symmetry c1  #important for SAPT in psi4, default
}

set PROPERTIES_ORIGIN ["COM"]
properties('MP2/aug-cc-pvtz', properties = ['dipole'])
--------------------------------------------------------------------------

    Molecular point group: c1
  Charge       = -1
  Multiplicity = 1
  Basis Set: AUG-CC-PVTZ
    Blend: AUG-CC-PVTZ
  Basis Set: (AUG-CC-PVTZ AUX)
    Blend: AUG-CC-PVTZ-JKFIT

    Orbital Energies [Eh]
    ---------------------

    Doubly Occupied:

       1A    -20.375769     2A    -20.334832     3A    -20.308136
       4A    -15.455542     5A    -11.213979     6A    -11.169103
       7A    -11.134369     8A    -11.120928     9A    -11.113224
      10A     -1.235389    11A     -1.214445    12A     -1.106708
      13A     -1.067001    14A     -0.949240    15A     -0.845220
      16A     -0.758863    17A     -0.650149    18A     -0.589886
      19A     -0.551302    20A     -0.535004    21A     -0.503848
      22A     -0.488541    23A     -0.470408    24A     -0.433791
      25A     -0.425017    26A     -0.418249    27A     -0.412116
      28A     -0.384033    29A     -0.383383    30A     -0.348961
      31A     -0.294693    32A     -0.254698    33A     -0.236637
      34A     -0.224391    35A     -0.215960

  @DF-RHF Final Energy:  -473.26247971361107

   => Energetics <=

    Nuclear Repulsion Energy =            433.9791685252270099
    One-Electron Energy =               -1520.0356698154498645
    Two-Electron Energy =                 612.7940215766119536
    Total Energy =                       -473.2624797136110146
  Basis Set: (AUG-CC-PVTZ AUX)
    Blend: AUG-CC-PVTZ-RI
    Molecular point group: c1

    Geometry (in Angstrom), charge = -1, multiplicity = 1:

       Center              X                  Y                   Z               Mass
    ------------   -----------------  -----------------  -----------------  -----------------
         O            1.660548837428    -1.422071704171    -0.007655408754    15.994914619570
         O           -2.369235162572     1.421730295829    -0.015216408754    15.994914619570
         O           -3.431949162572    -0.579823704171    -0.026617408754    15.994914619570
         N            0.134015537428     0.180779395829     0.015365291246    14.003074004430
         C            2.432387837428     0.864880295829     0.002134591246    12.000000000000
         C            1.350678837428    -0.197127704171     0.004674591246    12.000000000000
         C           -1.043724162572    -0.619386704171     0.018294591246    12.000000000000
         C            3.821651837428     0.260619295829    -0.011223408754    12.000000000000
         C           -2.440923862572     0.083567095829     0.032354991246    12.000000000000
         H            2.269957837428     1.523559295829    -0.861981408754     1.007825032230
         H            2.282874837428     1.514748295829     0.875086591246     1.007825032230
         H           -1.046580162572    -1.280122704171    -0.856822408754     1.007825032230
         H           -1.034421162572    -1.290897704171     0.885156591246     1.007825032230
         H           -0.177891162572     1.223446295829     0.024227591246     1.007825032230
         H            3.971549837428    -0.366219704171     0.868334591246     1.007825032230
         H            3.958243837428    -0.357328704171    -0.899287408754     1.007825032230
         H            4.572123837428     1.054591295829    -0.013291408754     1.007825032230

  Basis Set: AUG-CC-PVTZ
    Blend: AUG-CC-PVTZ
  Basis Set: (AUG-CC-PVTZ AUX)
    Blend: AUG-CC-PVTZ-JKFIT
	 Reference Energy          =    -473.2624797136110715 [Eh]
	 Singles Energy            =      -0.0000000000000000 [Eh]
	 Same-Spin Energy          =      -0.4766384284264553 [Eh]
	 Opposite-Spin Energy      =      -1.4660146925620017 [Eh]
	 Correlation Energy        =      -1.9426531209884570 [Eh]
	 Total Energy              =    -475.2051328345995103 [Eh]

	 ================> DF-SCS-MP2 Energies <==================
	-----------------------------------------------------------
	 SCS Same-Spin Scale       =       0.3333333333333333 [-]
	 SCS Opposite-Spin Scale   =       1.2000000000000000 [-]
	 SCS Same-Spin Energy      =      -0.1588794761421518 [Eh]
	 SCS Opposite-Spin Energy  =      -1.7592176310744019 [Eh]
	 SCS Correlation Energy    =      -1.9180971072165536 [Eh]
	 SCS Total Energy          =    -475.1805768208276390 [Eh]
	-----------------------------------------------------------

  Dipole Moment: [D]
     X:     8.9976      Y:     0.9813      Z:     0.1359     Total:     9.0519

*** Psi4 exiting successfully. Buy a developer a beer!
