                               Psi4 1.4a3.dev225

  ==> Input File <==

--------------------------------------------------------------------------
#psi4
#
memory 32 gb

molecule  {
-1 1
  O       -1.5186010     1.5599430    -0.1433510
  O        2.2638970    -1.4295650    -0.0456660
  O        3.5317420     0.4486470     0.1950180
  N        0.0040180    -0.1295860    -0.1151350
  C       -2.3384940    -0.6954940    -0.4149760
  C       -1.2508570     0.3439190    -0.2101810
  C        1.1754880     0.7048690     0.0403840
  C       -3.5055210    -0.4701880     0.5431350
  C        2.4465640    -0.1793200     0.0655420
  H       -2.6873130    -0.6028840    -1.4504550
  H       -1.9319890    -1.7056860    -0.3020050
  H        1.2516430     1.4279040    -0.7806770
  H        1.1211640     1.2868180     0.9683990
  H        0.2197847    -1.0710984    -0.1725977
  H       -3.1861080    -0.6022700     1.5809140
  H       -3.8905480     0.5449040     0.4307430
  H       -4.3152940    -1.1768540     0.3431720
units angstrom
no_reorient  #important for SAPT in psi4, default
symmetry c1  #important for SAPT in psi4, default
}

set PROPERTIES_ORIGIN ["COM"]
properties('MP2/aug-cc-pvtz', properties = ['dipole'])
--------------------------------------------------------------------------

    Molecular point group: c1
  Charge       = -1
  Multiplicity = 1
  Basis Set: AUG-CC-PVTZ
    Blend: AUG-CC-PVTZ
  Basis Set: (AUG-CC-PVTZ AUX)
    Blend: AUG-CC-PVTZ-JKFIT

    Orbital Energies [Eh]
    ---------------------

    Doubly Occupied:

       1A    -20.388017     2A    -20.321661     3A    -20.313354
       4A    -15.441612     5A    -11.223002     6A    -11.163433
       7A    -11.135967     8A    -11.128316     9A    -11.108942
      10A     -1.239628    11A     -1.189932    12A     -1.100971
      13A     -1.083888    14A     -0.950275    15A     -0.832045
      16A     -0.761343    17A     -0.664447    18A     -0.587437
      19A     -0.545691    20A     -0.527168    21A     -0.502924
      22A     -0.486250    23A     -0.475961    24A     -0.437578
      25A     -0.429186    26A     -0.420445    27A     -0.408111
      28A     -0.396643    29A     -0.381297    30A     -0.345222
      31A     -0.299434    32A     -0.257665    33A     -0.238272
      34A     -0.225536    35A     -0.215481

  @DF-RHF Final Energy:  -473.28771034190635

   => Energetics <=

    Nuclear Repulsion Energy =            435.5113806299679027
    One-Electron Energy =               -1523.1439120840923351
    Two-Electron Energy =                 614.3448211122181419
    Total Energy =                       -473.2877103419064042
  Basis Set: (AUG-CC-PVTZ AUX)
    Blend: AUG-CC-PVTZ-RI
    Molecular point group: c1

    Geometry (in Angstrom), charge = -1, multiplicity = 1:

       Center              X                  Y                   Z               Mass
    ------------   -----------------  -----------------  -----------------  -----------------
         O           -1.620635429634     1.544731532940    -0.138682923983    15.994914619570
         O            2.161862570366    -1.444776467060    -0.040997923983    15.994914619570
         O            3.429707570366     0.433435532940     0.199686076017    15.994914619570
         N           -0.098016429634    -0.144797467060    -0.110466923983    14.003074004430
         C           -2.440528429634    -0.710705467060    -0.410307923983    12.000000000000
         C           -1.352891429634     0.328707532940    -0.205512923983    12.000000000000
         C            1.073453570366     0.689657532940     0.045052076017    12.000000000000
         C           -3.607555429634    -0.485399467060     0.547803076017    12.000000000000
         C            2.344529570366    -0.194531467060     0.070210076017    12.000000000000
         H           -2.789347429634    -0.618095467060    -1.445786923983     1.007825032230
         H           -2.034023429634    -1.720897467060    -0.297336923983     1.007825032230
         H            1.149608570366     1.412692532940    -0.776008923983     1.007825032230
         H            1.019129570366     1.271606532940     0.973067076017     1.007825032230
         H            0.117750270366    -1.086309867060    -0.167929623983     1.007825032230
         H           -3.288142429634    -0.617481467060     1.585582076017     1.007825032230
         H           -3.992582429634     0.529692532940     0.435411076017     1.007825032230
         H           -4.417328429634    -1.192065467060     0.347840076017     1.007825032230

  Basis Set: AUG-CC-PVTZ
    Blend: AUG-CC-PVTZ
  Basis Set: (AUG-CC-PVTZ AUX)
    Blend: AUG-CC-PVTZ-JKFIT
	 Reference Energy          =    -473.2877103419063474 [Eh]
	 Singles Energy            =      -0.0000000000000000 [Eh]
	 Same-Spin Energy          =      -0.4752880376211229 [Eh]
	 Opposite-Spin Energy      =      -1.4638242314248924 [Eh]
	 Correlation Energy        =      -1.9391122690460154 [Eh]
	 Total Energy              =    -475.2268226109523539 [Eh]

	 ================> DF-SCS-MP2 Energies <==================
	-----------------------------------------------------------
	 SCS Same-Spin Scale       =       0.3333333333333333 [-]
	 SCS Opposite-Spin Scale   =       1.2000000000000000 [-]
	 SCS Same-Spin Energy      =      -0.1584293458737076 [Eh]
	 SCS Opposite-Spin Energy  =      -1.7565890777098707 [Eh]
	 SCS Correlation Energy    =      -1.9150184235835783 [Eh]
	 SCS Total Energy          =    -475.2027287654899510 [Eh]
	-----------------------------------------------------------

  Dipole Moment: [D]
     X:    -9.4670      Y:    -1.0839      Z:    -0.4130     Total:     9.5378

*** Psi4 exiting successfully. Buy a developer a beer!
