                               Psi4 1.4a3.dev225

  ==> Input File <==

--------------------------------------------------------------------------
#psi4
#
memory 32 gb

molecule  {
-1 1
  O       -1.5186010     1.5599430    -0.1433510
  O        2.2638970    -1.4295650    -0.0456660
  O        3.5317420     0.4486470     0.1950180
  N        0.0040180    -0.1295860    -0.1151350
  C       -2.3384940    -0.6954940    -0.4149760
  C       -1.2508570     0.3439190    -0.2101810
  C        1.1754880     0.7048690     0.0403840
  C       -3.5055210    -0.4701880     0.5431350
  C        2.4393633    -0.2286042     0.0611582
  H       -2.6873130    -0.6028840    -1.4504550
  H       -1.9319890    -1.7056860    -0.3020050
  H        1.2516430     1.4279040    -0.7806770
  H        1.1211640     1.2868180     0.9683990
  H        0.2309340    -1.1197490    -0.1755670
  H       -3.1861080    -0.6022700     1.5809140
  H       -3.8905480     0.5449040     0.4307430
  H       -4.3152940    -1.1768540     0.3431720
units angstrom
no_reorient  #important for SAPT in psi4, default
symmetry c1  #important for SAPT in psi4, default
}

set PROPERTIES_ORIGIN ["COM"]
properties('MP2/aug-cc-pvtz', properties = ['dipole'])
--------------------------------------------------------------------------

    Molecular point group: c1
  Charge       = -1
  Multiplicity = 1
  Basis Set: AUG-CC-PVTZ
    Blend: AUG-CC-PVTZ
  Basis Set: (AUG-CC-PVTZ AUX)
    Blend: AUG-CC-PVTZ-JKFIT

    Orbital Energies [Eh]
    ---------------------

    Doubly Occupied:

       1A    -20.386945     2A    -20.334293     3A    -20.304148
       4A    -15.444708     5A    -11.221681     6A    -11.163132
       7A    -11.135424     8A    -11.127966     9A    -11.106224
      10A     -1.238292    11A     -1.207819    12A     -1.090321
      13A     -1.084907    14A     -0.949593    15A     -0.827897
      16A     -0.757530    17A     -0.652914    18A     -0.583807
      19A     -0.543935    20A     -0.528122    21A     -0.502587
      22A     -0.484981    23A     -0.476355    24A     -0.437774
      25A     -0.428562    26A     -0.419112    27A     -0.408760
      28A     -0.397811    29A     -0.382762    30A     -0.351640
      31A     -0.298029    32A     -0.256246    33A     -0.242966
      34A     -0.217671    35A     -0.214966

  @DF-RHF Final Energy:  -473.28535340998872

   => Energetics <=

    Nuclear Repulsion Energy =            435.3807776028201033
    One-Electron Energy =               -1522.9125010073651083
    Two-Electron Energy =                 614.2463699945564031
    Total Energy =                       -473.2853534099887156
  Basis Set: (AUG-CC-PVTZ AUX)
    Blend: AUG-CC-PVTZ-RI
    Molecular point group: c1

    Geometry (in Angstrom), charge = -1, multiplicity = 1:

       Center              X                  Y                   Z               Mass
    ------------   -----------------  -----------------  -----------------  -----------------
         O           -1.620057408760     1.549656097596    -0.138255411825    15.994914619570
         O            2.162440591240    -1.439851902404    -0.040570411825    15.994914619570
         O            3.430285591240     0.438360097596     0.200113588175    15.994914619570
         N           -0.097438408760    -0.139872902404    -0.110039411825    14.003074004430
         C           -2.439950408760    -0.705780902404    -0.409880411825    12.000000000000
         C           -1.352313408760     0.333632097596    -0.205085411825    12.000000000000
         C            1.074031591240     0.694582097596     0.045479588175    12.000000000000
         C           -3.606977408760    -0.480474902404     0.548230588175    12.000000000000
         C            2.337906891240    -0.238891102404     0.066253788175    12.000000000000
         H           -2.788769408760    -0.613170902404    -1.445359411825     1.007825032230
         H           -2.033445408760    -1.715972902404    -0.296909411825     1.007825032230
         H            1.150186591240     1.417617097596    -0.775581411825     1.007825032230
         H            1.019707591240     1.276531097596     0.973494588175     1.007825032230
         H            0.129477591240    -1.130035902404    -0.170471411825     1.007825032230
         H           -3.287564408760    -0.612556902404     1.586009588175     1.007825032230
         H           -3.992004408760     0.534617097596     0.435838588175     1.007825032230
         H           -4.416750408760    -1.187140902404     0.348267588175     1.007825032230

  Basis Set: AUG-CC-PVTZ
    Blend: AUG-CC-PVTZ
  Basis Set: (AUG-CC-PVTZ AUX)
    Blend: AUG-CC-PVTZ-JKFIT
	 Reference Energy          =    -473.2853534099887156 [Eh]
	 Singles Energy            =      -0.0000000000000000 [Eh]
	 Same-Spin Energy          =      -0.4755621691821023 [Eh]
	 Opposite-Spin Energy      =      -1.4641367130254244 [Eh]
	 Correlation Energy        =      -1.9396988822075265 [Eh]
	 Total Energy              =    -475.2250522921962670 [Eh]

	 ================> DF-SCS-MP2 Energies <==================
	-----------------------------------------------------------
	 SCS Same-Spin Scale       =       0.3333333333333333 [-]
	 SCS Opposite-Spin Scale   =       1.2000000000000000 [-]
	 SCS Same-Spin Energy      =      -0.1585207230607008 [Eh]
	 SCS Opposite-Spin Energy  =      -1.7569640556305093 [Eh]
	 SCS Correlation Energy    =      -1.9154847786912099 [Eh]
	 SCS Total Energy          =    -475.2008381886799384 [Eh]
	-----------------------------------------------------------

  Dipole Moment: [D]
     X:    -9.5512      Y:    -1.5835      Z:    -0.4595     Total:     9.6925

*** Psi4 exiting successfully. Buy a developer a beer!
