                               Psi4 1.4a3.dev225

  ==> Input File <==

--------------------------------------------------------------------------
#psi4
#
memory 32 gb

molecule  {
-1 1
  O       -1.5186010     1.5599430    -0.1433510
  O        2.2638970    -1.4295650    -0.0456660
  O        3.5317420     0.4486470     0.1950180
  N        0.0040180    -0.1295860    -0.1151350
  C       -2.3384940    -0.6954940    -0.4149760
  C       -1.2508570     0.3439190    -0.2101810
  C        1.1754880     0.7048690     0.0403840
  C       -3.5055210    -0.4701880     0.5431350
  C        2.4465640    -0.1793200     0.0655420
  H       -2.6873130    -0.6028840    -1.4504550
  H       -1.9319890    -1.7056860    -0.3020050
  H        1.2516430     1.4279040    -0.7806770
  H        1.1201734     1.2974304     0.9853222
  H        0.2309340    -1.1197490    -0.1755670
  H       -3.1861080    -0.6022700     1.5809140
  H       -3.8905480     0.5449040     0.4307430
  H       -4.3152940    -1.1768540     0.3431720
units angstrom
no_reorient  #important for SAPT in psi4, default
symmetry c1  #important for SAPT in psi4, default
}

set PROPERTIES_ORIGIN ["COM"]
properties('MP2/aug-cc-pvtz', properties = ['dipole'])
--------------------------------------------------------------------------

    Molecular point group: c1
  Charge       = -1
  Multiplicity = 1
  Basis Set: AUG-CC-PVTZ
    Blend: AUG-CC-PVTZ
  Basis Set: (AUG-CC-PVTZ AUX)
    Blend: AUG-CC-PVTZ-JKFIT

    Orbital Energies [Eh]
    ---------------------

    Doubly Occupied:

       1A    -20.387165     2A    -20.322729     3A    -20.313787
       4A    -15.445213     5A    -11.222046     6A    -11.164023
       7A    -11.135365     8A    -11.127854     9A    -11.111298
      10A     -1.238401    11A     -1.190480    12A     -1.097348
      13A     -1.081843    14A     -0.949563    15A     -0.830437
      16A     -0.759456    17A     -0.652269    18A     -0.585537
      19A     -0.545347    20A     -0.526267    21A     -0.502102
      22A     -0.484608    23A     -0.474516    24A     -0.436754
      25A     -0.427649    26A     -0.419819    27A     -0.407605
      28A     -0.394212    29A     -0.380829    30A     -0.344819
      31A     -0.298608    32A     -0.256013    33A     -0.238978
      34A     -0.226000    35A     -0.216047

  @DF-RHF Final Energy:  -473.28739078796684

   => Energetics <=

    Nuclear Repulsion Energy =            435.1342602707200626
    One-Electron Energy =               -1522.4533248200507387
    Two-Electron Energy =                 614.0316737613638907
    Total Energy =                       -473.2873907879668423
  Basis Set: (AUG-CC-PVTZ AUX)
    Blend: AUG-CC-PVTZ-RI
    Molecular point group: c1

    Geometry (in Angstrom), charge = -1, multiplicity = 1:

       Center              X                  Y                   Z               Mass
    ------------   -----------------  -----------------  -----------------  -----------------
         O           -1.620714154427     1.545026309771    -0.138791059657    15.994914619570
         O            2.161783845573    -1.444481690229    -0.041106059657    15.994914619570
         O            3.429628845573     0.433730309771     0.199577940343    15.994914619570
         N           -0.098095154427    -0.144502690229    -0.110575059657    14.003074004430
         C           -2.440607154427    -0.710410690229    -0.410416059657    12.000000000000
         C           -1.352970154427     0.329002309771    -0.205621059657    12.000000000000
         C            1.073374845573     0.689952309771     0.044943940343    12.000000000000
         C           -3.607634154427    -0.485104690229     0.547694940343    12.000000000000
         C            2.344450845573    -0.194236690229     0.070101940343    12.000000000000
         H           -2.789426154427    -0.617800690229    -1.445895059657     1.007825032230
         H           -2.034102154427    -1.720602690229    -0.297445059657     1.007825032230
         H            1.149529845573     1.412987309771    -0.776117059657     1.007825032230
         H            1.018060245573     1.282513709771     0.989882140343     1.007825032230
         H            0.128820845573    -1.134665690229    -0.171007059657     1.007825032230
         H           -3.288221154427    -0.617186690229     1.585473940343     1.007825032230
         H           -3.992661154427     0.529987309771     0.435302940343     1.007825032230
         H           -4.417407154427    -1.191770690229     0.347731940343     1.007825032230

  Basis Set: AUG-CC-PVTZ
    Blend: AUG-CC-PVTZ
  Basis Set: (AUG-CC-PVTZ AUX)
    Blend: AUG-CC-PVTZ-JKFIT
	 Reference Energy          =    -473.2873907879668423 [Eh]
	 Singles Energy            =      -0.0000000000000000 [Eh]
	 Same-Spin Energy          =      -0.4758575763248474 [Eh]
	 Opposite-Spin Energy      =      -1.4649291947116945 [Eh]
	 Correlation Energy        =      -1.9407867710365418 [Eh]
	 Total Energy              =    -475.2281775590033703 [Eh]

	 ================> DF-SCS-MP2 Energies <==================
	-----------------------------------------------------------
	 SCS Same-Spin Scale       =       0.3333333333333333 [-]
	 SCS Opposite-Spin Scale   =       1.2000000000000000 [-]
	 SCS Same-Spin Energy      =      -0.1586191921082825 [Eh]
	 SCS Opposite-Spin Energy  =      -1.7579150336540332 [Eh]
	 SCS Correlation Energy    =      -1.9165342257623157 [Eh]
	 SCS Total Energy          =    -475.2039250137291333 [Eh]
	-----------------------------------------------------------

  Dipole Moment: [D]
     X:    -9.3821      Y:    -1.1460      Z:    -0.4196     Total:     9.4612

*** Psi4 exiting successfully. Buy a developer a beer!
