                               Psi4 1.3.2 release

  ==> Input File <==

--------------------------------------------------------------------------
#psi4
#
memory 32 gb

molecule  {
-1 1
  O        1.5553730    -1.4489990    -0.0078940
  O       -2.4744110     1.3948030    -0.0154550
  O       -3.4971155    -0.6596103    -0.0288642
  N       -0.0146490     0.2143920     0.0158120
  C        2.3272120     0.8379530     0.0018960
  C        1.2455030    -0.2240550     0.0044360
  C       -1.1913032    -0.7162221     0.0135240
  C        3.7164760     0.2336920    -0.0114620
  C       -2.5073920     0.1288020     0.0323140
  H        2.1647820     1.4966320    -0.8622200
  H        2.1776990     1.4878210     0.8748480
  H       -1.1517560    -1.3070500    -0.8570610
  H       -1.1395970    -1.3178250     0.8849180
  H       -0.2830670     1.1965190     0.0239890
  H        3.8663740    -0.3931470     0.8680960
  H        3.8530680    -0.3842560    -0.8995260
  H        4.4669480     1.0276640    -0.0135300
units angstrom
no_reorient  #important for SAPT in psi4, default
symmetry c1  #important for SAPT in psi4, default
}

set PROPERTIES_ORIGIN ["COM"]
properties('MP2/aug-cc-pvtz', properties = ['dipole'])
--------------------------------------------------------------------------

    Molecular point group: c1
  Charge       = -1
  Multiplicity = 1
  Basis Set: AUG-CC-PVTZ
    Blend: AUG-CC-PVTZ
  Basis Set: (AUG-CC-PVTZ AUX)
    Blend: AUG-CC-PVTZ-JKFIT

    Orbital Energies [Eh]
    ---------------------

    Doubly Occupied:

       1A    -20.386102     2A    -20.328792     3A    -20.312934
       4A    -15.445205     5A    -11.221969     6A    -11.167185
       7A    -11.133969     8A    -11.121506     9A    -11.106397
      10A     -1.228662    11A     -1.188574    12A     -1.092996
      13A     -1.081289    14A     -0.948075    15A     -0.832280
      16A     -0.758687    17A     -0.651928    18A     -0.582757
      19A     -0.539133    20A     -0.531769    21A     -0.502435
      22A     -0.489081    23A     -0.470163    24A     -0.428498
      25A     -0.423456    26A     -0.418596    27A     -0.412232
      28A     -0.393524    29A     -0.378661    30A     -0.349886
      31A     -0.298406    32A     -0.259103    33A     -0.241931
      34A     -0.222062    35A     -0.217487

  @DF-RHF Final Energy:  -473.27871314752042

   => Energetics <=

    Nuclear Repulsion Energy =            432.6436251800877812
    One-Electron Energy =               -1517.5132192389921784
    Two-Electron Energy =                 611.5908809113839197
    Total Energy =                       -473.2787131475204205
  Basis Set: (AUG-CC-PVTZ AUX)
    Blend: AUG-CC-PVTZ-RI
    Molecular point group: c1

    Geometry (in Angstrom), charge = -1, multiplicity = 1:

       Center              X                  Y                   Z               Mass
    ------------   -----------------  -----------------  -----------------  -----------------
         O            1.660651666378    -1.422297108364    -0.007082265800    15.994914619570
         O           -2.369132333622     1.421504891636    -0.014643265800    15.994914619570
         O           -3.391836833622    -0.632908408364    -0.028052465800    15.994914619570
         N            0.090629666378     0.241093891636     0.016623734200    14.003074004430
         C            2.432490666378     0.864654891636     0.002707734200    12.000000000000
         C            1.350781666378    -0.197353108364     0.005247734200    12.000000000000
         C           -1.086024533622    -0.689520208364     0.014335734200    12.000000000000
         C            3.821754666378     0.260393891636    -0.010650265800    12.000000000000
         C           -2.402113333622     0.155503891636     0.033125734200    12.000000000000
         H            2.270060666378     1.523333891636    -0.861408265800     1.007825032230
         H            2.282977666378     1.514522891636     0.875659734200     1.007825032230
         H           -1.046477333622    -1.280348108364    -0.856249265800     1.007825032230
         H           -1.034318333622    -1.291123108364     0.885729734200     1.007825032230
         H           -0.177788333622     1.223220891636     0.024800734200     1.007825032230
         H            3.971652666378    -0.366445108364     0.868907734200     1.007825032230
         H            3.958346666378    -0.357554108364    -0.898714265800     1.007825032230
         H            4.572226666378     1.054365891636    -0.012718265800     1.007825032230

  Basis Set: AUG-CC-PVTZ
    Blend: AUG-CC-PVTZ
  Basis Set: (AUG-CC-PVTZ AUX)
    Blend: AUG-CC-PVTZ-JKFIT
	 Reference Energy          =    -473.2787131475204205 [Eh]
	 Singles Energy            =      -0.0000000000000000 [Eh]
	 Same-Spin Energy          =      -0.4758000072076756 [Eh]
	 Opposite-Spin Energy      =      -1.4656370739378475 [Eh]
	 Correlation Energy        =      -1.9414370811455230 [Eh]
	 Total Energy              =    -475.2201502286659434 [Eh]

	 ================> DF-SCS-MP2 Energies <==================
	-----------------------------------------------------------
	 SCS Same-Spin Scale       =       0.3333333333333333 [-]
	 SCS Opposite-Spin Scale   =       1.2000000000000000 [-]
	 SCS Same-Spin Energy      =      -0.1586000024025585 [Eh]
	 SCS Opposite-Spin Energy  =      -1.7587644887254170 [Eh]
	 SCS Correlation Energy    =      -1.9173644911279755 [Eh]
	 SCS Total Energy          =    -475.1960776386483758 [Eh]
	-----------------------------------------------------------

  Dipole Moment: [D]
     X:     9.4835      Y:     1.5645      Z:     0.1344     Total:     9.6126

*** Psi4 exiting successfully. Buy a developer a beer!
