                               Psi4 1.3.2 release

  ==> Input File <==

--------------------------------------------------------------------------
#psi4
#
memory 32 gb

molecule  {
-1 1
  O        1.5553730    -1.4489990    -0.0078940
  O       -2.4303794     1.3930287    -0.0115967
  O       -3.5110242    -0.6422563    -0.0231917
  N       -0.0146490     0.2143920     0.0158120
  C        2.3272120     0.8379530     0.0018960
  C        1.2455030    -0.2240550     0.0044360
  C       -1.1489000    -0.6463140     0.0180560
  C        3.7164760     0.2336920    -0.0114620
  C       -2.5073920     0.1288020     0.0323140
  H        2.1647820     1.4966320    -0.8622200
  H        2.1776990     1.4878210     0.8748480
  H       -1.1517560    -1.3070500    -0.8570610
  H       -1.1395970    -1.3178250     0.8849180
  H       -0.2830670     1.1965190     0.0239890
  H        3.8663740    -0.3931470     0.8680960
  H        3.8530680    -0.3842560    -0.8995260
  H        4.4669480     1.0276640    -0.0135300
units angstrom
no_reorient  #important for SAPT in psi4, default
symmetry c1  #important for SAPT in psi4, default
}

set PROPERTIES_ORIGIN ["COM"]
properties('MP2/aug-cc-pvtz', properties = ['dipole'])
--------------------------------------------------------------------------

    Molecular point group: c1
  Charge       = -1
  Multiplicity = 1
  Basis Set: AUG-CC-PVTZ
    Blend: AUG-CC-PVTZ
  Basis Set: (AUG-CC-PVTZ AUX)
    Blend: AUG-CC-PVTZ-JKFIT

    Orbital Energies [Eh]
    ---------------------

    Doubly Occupied:

       1A    -20.389143     2A    -20.326617     3A    -20.314898
       4A    -15.447963     5A    -11.225119     6A    -11.167030
       7A    -11.136001     8A    -11.122897     9A    -11.103743
      10A     -1.232941    11A     -1.188111    12A     -1.101055
      13A     -1.088314    14A     -0.950942    15A     -0.833215
      16A     -0.756377    17A     -0.657566    18A     -0.588049
      19A     -0.544043    20A     -0.533657    21A     -0.506261
      22A     -0.481809    23A     -0.474448    24A     -0.426247
      25A     -0.424156    26A     -0.415906    27A     -0.413932
      28A     -0.396871    29A     -0.379429    30A     -0.343869
      31A     -0.301414    32A     -0.255685    33A     -0.241247
      34A     -0.222770    35A     -0.217792

  @DF-RHF Final Energy:  -473.28229826378816

   => Energetics <=

    Nuclear Repulsion Energy =            433.9833890846198301
    One-Electron Energy =               -1520.1123460170945236
    Two-Electron Energy =                 612.8466586686865867
    Total Energy =                       -473.2822982637881069
  Basis Set: (AUG-CC-PVTZ AUX)
    Blend: AUG-CC-PVTZ-RI
    Molecular point group: c1

    Geometry (in Angstrom), charge = -1, multiplicity = 1:

       Center              X                  Y                   Z               Mass
    ------------   -----------------  -----------------  -----------------  -----------------
         O            1.653034223636    -1.430663810963    -0.008672636175    15.994914619570
         O           -2.332718176364     1.411363889037    -0.012375336175    15.994914619570
         O           -3.413362976364    -0.623921110963    -0.023970336175    15.994914619570
         N            0.083012223636     0.232727189037     0.015033363825    14.003074004430
         C            2.424873223636     0.856288189037     0.001117363825    12.000000000000
         C            1.343164223636    -0.205719810963     0.003657363825    12.000000000000
         C           -1.051238776364    -0.627978810963     0.017277363825    12.000000000000
         C            3.814137223636     0.252027189037    -0.012240636175    12.000000000000
         C           -2.409730776364     0.147137189037     0.031535363825    12.000000000000
         H            2.262443223636     1.514967189037    -0.862998636175     1.007825032230
         H            2.275360223636     1.506156189037     0.874069363825     1.007825032230
         H           -1.054094776364    -1.288714810963    -0.857839636175     1.007825032230
         H           -1.041935776364    -1.299489810963     0.884139363825     1.007825032230
         H           -0.185405776364     1.214854189037     0.023210363825     1.007825032230
         H            3.964035223636    -0.374811810963     0.867317363825     1.007825032230
         H            3.950729223636    -0.365920810963    -0.900304636175     1.007825032230
         H            4.564609223636     1.045999189037    -0.014308636175     1.007825032230

  Basis Set: AUG-CC-PVTZ
    Blend: AUG-CC-PVTZ
  Basis Set: (AUG-CC-PVTZ AUX)
    Blend: AUG-CC-PVTZ-JKFIT
	 Reference Energy          =    -473.2822982637881637 [Eh]
	 Singles Energy            =      -0.0000000000000000 [Eh]
	 Same-Spin Energy          =      -0.4763561835291183 [Eh]
	 Opposite-Spin Energy      =      -1.4656082168684712 [Eh]
	 Correlation Energy        =      -1.9419644003975896 [Eh]
	 Total Energy              =    -475.2242626641857441 [Eh]

	 ================> DF-SCS-MP2 Energies <==================
	-----------------------------------------------------------
	 SCS Same-Spin Scale       =       0.3333333333333333 [-]
	 SCS Opposite-Spin Scale   =       1.2000000000000000 [-]
	 SCS Same-Spin Energy      =      -0.1587853945097061 [Eh]
	 SCS Opposite-Spin Energy  =      -1.7587298602421655 [Eh]
	 SCS Correlation Energy    =      -1.9175152547518717 [Eh]
	 SCS Total Energy          =    -475.1998135185400542 [Eh]
	-----------------------------------------------------------

  Dipole Moment: [D]
     X:     9.6248      Y:     1.6723      Z:     0.1240     Total:     9.7698

*** Psi4 exiting successfully. Buy a developer a beer!
