                               Psi4 1.4a3.dev225

  ==> Input File <==

--------------------------------------------------------------------------
#psi4
#
memory 32 gb

molecule  {
-1 1
  O       -1.5186010     1.5599430    -0.1433510
  O        2.2638970    -1.4295650    -0.0456660
  O        3.5317420     0.4486470     0.1950180
  N        0.0040180    -0.1295860    -0.1151350
  C       -2.3384940    -0.6954940    -0.4149760
  C       -1.2041935     0.3263114    -0.2066466
  C        1.1754880     0.7048690     0.0403840
  C       -3.5055210    -0.4701880     0.5431350
  C        2.4465640    -0.1793200     0.0655420
  H       -2.6873130    -0.6028840    -1.4504550
  H       -1.9319890    -1.7056860    -0.3020050
  H        1.2516430     1.4279040    -0.7806770
  H        1.1211640     1.2868180     0.9683990
  H        0.2309340    -1.1197490    -0.1755670
  H       -3.1861080    -0.6022700     1.5809140
  H       -3.8905480     0.5449040     0.4307430
  H       -4.3152940    -1.1768540     0.3431720
units angstrom
no_reorient  #important for SAPT in psi4, default
symmetry c1  #important for SAPT in psi4, default
}

set PROPERTIES_ORIGIN ["COM"]
properties('MP2/aug-cc-pvtz', properties = ['dipole'])
--------------------------------------------------------------------------

    Molecular point group: c1
  Charge       = -1
  Multiplicity = 1
  Basis Set: AUG-CC-PVTZ
    Blend: AUG-CC-PVTZ
  Basis Set: (AUG-CC-PVTZ AUX)
    Blend: AUG-CC-PVTZ-JKFIT

    Orbital Energies [Eh]
    ---------------------

    Doubly Occupied:

       1A    -20.377471     2A    -20.326476     3A    -20.317115
       4A    -15.453749     5A    -11.218164     6A    -11.167577
       7A    -11.134269     8A    -11.125419     9A    -11.113937
      10A     -1.225187    11A     -1.193265    12A     -1.106841
      13A     -1.089640    14A     -0.943888    15A     -0.839530
      16A     -0.758699    17A     -0.663585    18A     -0.586241
      19A     -0.542900    20A     -0.526849    21A     -0.505585
      22A     -0.488757    23A     -0.470466    24A     -0.435931
      25A     -0.429914    26A     -0.418200    27A     -0.402847
      28A     -0.394251    29A     -0.381031    30A     -0.345281
      31A     -0.289987    32A     -0.260871    33A     -0.242659
      34A     -0.229645    35A     -0.219838

  @DF-RHF Final Energy:  -473.28460420251332

   => Energetics <=

    Nuclear Repulsion Energy =            435.4884477088012318
    One-Electron Energy =               -1523.0939744891736609
    Two-Electron Energy =                 614.3209225778591644
    Total Energy =                       -473.2846042025132647
  Basis Set: (AUG-CC-PVTZ AUX)
    Blend: AUG-CC-PVTZ-RI
    Molecular point group: c1

    Geometry (in Angstrom), charge = -1, multiplicity = 1:

       Center              X                  Y                   Z               Mass
    ------------   -----------------  -----------------  -----------------  -----------------
         O           -1.625027561177     1.546733237327    -0.138986039234    15.994914619570
         O            2.157470438823    -1.442774762673    -0.041301039234    15.994914619570
         O            3.425315438823     0.435437237327     0.199382960766    15.994914619570
         N           -0.102408561177    -0.142795762673    -0.110770039234    14.003074004430
         C           -2.444920561177    -0.708703762673    -0.410611039234    12.000000000000
         C           -1.310620061177     0.313101637327    -0.202281639234    12.000000000000
         C            1.069061438823     0.691659237327     0.044748960766    12.000000000000
         C           -3.611947561177    -0.483397762673     0.547499960766    12.000000000000
         C            2.340137438823    -0.192529762673     0.069906960766    12.000000000000
         H           -2.793739561177    -0.616093762673    -1.446090039234     1.007825032230
         H           -2.038415561177    -1.718895762673    -0.297640039234     1.007825032230
         H            1.145216438823     1.414694237327    -0.776312039234     1.007825032230
         H            1.014737438823     1.273608237327     0.972763960766     1.007825032230
         H            0.124507438823    -1.132958762673    -0.171202039234     1.007825032230
         H           -3.292534561177    -0.615479762673     1.585278960766     1.007825032230
         H           -3.996974561177     0.531694237327     0.435107960766     1.007825032230
         H           -4.421720561177    -1.190063762673     0.347536960766     1.007825032230

  Basis Set: AUG-CC-PVTZ
    Blend: AUG-CC-PVTZ
  Basis Set: (AUG-CC-PVTZ AUX)
    Blend: AUG-CC-PVTZ-JKFIT
	 Reference Energy          =    -473.2846042025133215 [Eh]
	 Singles Energy            =      -0.0000000000000000 [Eh]
	 Same-Spin Energy          =      -0.4759427735727179 [Eh]
	 Opposite-Spin Energy      =      -1.4651131612801640 [Eh]
	 Correlation Energy        =      -1.9410559348528820 [Eh]
	 Total Energy              =    -475.2256601373662193 [Eh]

	 ================> DF-SCS-MP2 Energies <==================
	-----------------------------------------------------------
	 SCS Same-Spin Scale       =       0.3333333333333333 [-]
	 SCS Opposite-Spin Scale   =       1.2000000000000000 [-]
	 SCS Same-Spin Energy      =      -0.1586475911909060 [Eh]
	 SCS Opposite-Spin Energy  =      -1.7581357935361968 [Eh]
	 SCS Correlation Energy    =      -1.9167833847271027 [Eh]
	 SCS Total Energy          =    -475.2013875872404469 [Eh]
	-----------------------------------------------------------

  Dipole Moment: [D]
     X:    -8.9277      Y:    -1.3157      Z:    -0.3821     Total:     9.0322

*** Psi4 exiting successfully. Buy a developer a beer!
