                               Psi4 1.3.2 release

  ==> Input File <==

--------------------------------------------------------------------------
#psi4
#
memory 32 gb

molecule  {
-1 1
  O        1.5553730    -1.4489990    -0.0078940
  O       -2.4744110     1.3948030    -0.0154550
  O       -3.5371250    -0.6067510    -0.0268560
  N       -0.0146490     0.2143920     0.0158120
  C        2.3272120     0.8379530     0.0018960
  C        1.3168604    -0.1539972     0.0042684
  C       -1.1489000    -0.6463140     0.0180560
  C        3.7164760     0.2336920    -0.0114620
  C       -2.5073920     0.1288020     0.0323140
  H        2.1647820     1.4966320    -0.8622200
  H        2.1776990     1.4878210     0.8748480
  H       -1.1517560    -1.3070500    -0.8570610
  H       -1.1395970    -1.3178250     0.8849180
  H       -0.2830670     1.1965190     0.0239890
  H        3.8663740    -0.3931470     0.8680960
  H        3.8530680    -0.3842560    -0.8995260
  H        4.4669480     1.0276640    -0.0135300
units angstrom
no_reorient  #important for SAPT in psi4, default
symmetry c1  #important for SAPT in psi4, default
}

set PROPERTIES_ORIGIN ["COM"]
properties('MP2/aug-cc-pvtz', properties = ['dipole'])
--------------------------------------------------------------------------

    Molecular point group: c1
  Charge       = -1
  Multiplicity = 1
  Basis Set: AUG-CC-PVTZ
    Blend: AUG-CC-PVTZ
  Basis Set: (AUG-CC-PVTZ AUX)
    Blend: AUG-CC-PVTZ-JKFIT

    Orbital Energies [Eh]
    ---------------------

    Doubly Occupied:

       1A    -20.389322     2A    -20.319733     3A    -20.308959
       4A    -15.449464     5A    -11.235006     6A    -11.162657
       7A    -11.142084     8A    -11.129964     9A    -11.107050
      10A     -1.209345    11A     -1.183840    12A     -1.086569
      13A     -1.075522    14A     -0.974876    15A     -0.839738
      16A     -0.768716    17A     -0.647462    18A     -0.594742
      19A     -0.548924    20A     -0.545931    21A     -0.502178
      22A     -0.477658    23A     -0.466893    24A     -0.434148
      25A     -0.425602    26A     -0.422454    27A     -0.409886
      28A     -0.394729    29A     -0.369871    30A     -0.336578
      31A     -0.305261    32A     -0.248768    33A     -0.232540
      34A     -0.222978    35A     -0.210640

  @DF-RHF Final Energy:  -473.25995944040420

   => Energetics <=

    Nuclear Repulsion Energy =            432.7855020376081825
    One-Electron Energy =               -1517.7307503202807766
    Two-Electron Energy =                 611.6852888422683918
    Total Energy =                       -473.2599594404041454
  Basis Set: (AUG-CC-PVTZ AUX)
    Blend: AUG-CC-PVTZ-RI
    Molecular point group: c1

    Geometry (in Angstrom), charge = -1, multiplicity = 1:

       Center              X                  Y                   Z               Mass
    ------------   -----------------  -----------------  -----------------  -----------------
         O            1.655075531568    -1.441713199653    -0.007731966037    15.994914619570
         O           -2.374708468432     1.402088800347    -0.015292966037    15.994914619570
         O           -3.437422468432    -0.599465199653    -0.026693966037    15.994914619570
         N            0.085053531568     0.221677800347     0.015974033963    14.003074004430
         C            2.426914531568     0.845238800347     0.002058033963    12.000000000000
         C            1.416562931568    -0.146711399653     0.004430433963    12.000000000000
         C           -1.049197468432    -0.639028199653     0.018218033963    12.000000000000
         C            3.816178531568     0.240977800347    -0.011299966037    12.000000000000
         C           -2.407689468432     0.136087800347     0.032476033963    12.000000000000
         H            2.264484531568     1.503917800347    -0.862057966037     1.007825032230
         H            2.277401531568     1.495106800347     0.875010033963     1.007825032230
         H           -1.052053468432    -1.299764199653    -0.856898966037     1.007825032230
         H           -1.039894468432    -1.310539199653     0.885080033963     1.007825032230
         H           -0.183364468432     1.203804800347     0.024151033963     1.007825032230
         H            3.966076531568    -0.385861199653     0.868258033963     1.007825032230
         H            3.952770531568    -0.376970199653    -0.899363966037     1.007825032230
         H            4.566650531568     1.034949800347    -0.013367966037     1.007825032230

  Basis Set: AUG-CC-PVTZ
    Blend: AUG-CC-PVTZ
  Basis Set: (AUG-CC-PVTZ AUX)
    Blend: AUG-CC-PVTZ-JKFIT
	 Reference Energy          =    -473.2599594404042023 [Eh]
	 Singles Energy            =      -0.0000000000000000 [Eh]
	 Same-Spin Energy          =      -0.4783475301452501 [Eh]
	 Opposite-Spin Energy      =      -1.4695763778269622 [Eh]
	 Correlation Energy        =      -1.9479239079722122 [Eh]
	 Total Energy              =    -475.2078833483764129 [Eh]

	 ================> DF-SCS-MP2 Energies <==================
	-----------------------------------------------------------
	 SCS Same-Spin Scale       =       0.3333333333333333 [-]
	 SCS Opposite-Spin Scale   =       1.2000000000000000 [-]
	 SCS Same-Spin Energy      =      -0.1594491767150834 [Eh]
	 SCS Opposite-Spin Energy  =      -1.7634916533923546 [Eh]
	 SCS Correlation Energy    =      -1.9229408301074380 [Eh]
	 SCS Total Energy          =    -475.1829002705116523 [Eh]
	-----------------------------------------------------------

  Dipole Moment: [D]
     X:    10.3228      Y:     1.8693      Z:     0.1350     Total:    10.4916

*** Psi4 exiting successfully. Buy a developer a beer!
