                               Psi4 1.4a3.dev225

  ==> Input File <==

--------------------------------------------------------------------------
#psi4
#
memory 32 gb

molecule  {
-1 1
  O       -1.5186010     1.5599430    -0.1433510
  O        2.2638970    -1.4295650    -0.0456660
  O        3.5317420     0.4486470     0.1950180
  N        0.0040180    -0.1295860    -0.1151350
  C       -2.3384940    -0.6954940    -0.4149760
  C       -1.2508570     0.3439190    -0.2101810
  C        1.1754880     0.7048690     0.0403840
  C       -3.5055210    -0.4701880     0.5431350
  C        2.4465640    -0.1793200     0.0655420
  H       -2.6873130    -0.6028840    -1.4504550
  H       -1.9319890    -1.7056860    -0.3020050
  H        1.2516430     1.4279040    -0.7806770
  H        1.1211640     1.2868180     0.9683990
  H        0.2353937    -1.1392092    -0.1767547
  H       -3.1861080    -0.6022700     1.5809140
  H       -3.8905480     0.5449040     0.4307430
  H       -4.3152940    -1.1768540     0.3431720
units angstrom
no_reorient  #important for SAPT in psi4, default
symmetry c1  #important for SAPT in psi4, default
}

set PROPERTIES_ORIGIN ["COM"]
properties('MP2/aug-cc-pvtz', properties = ['dipole'])
--------------------------------------------------------------------------

    Molecular point group: c1
  Charge       = -1
  Multiplicity = 1
  Basis Set: AUG-CC-PVTZ
    Blend: AUG-CC-PVTZ
  Basis Set: (AUG-CC-PVTZ AUX)
    Blend: AUG-CC-PVTZ-JKFIT

    Orbital Energies [Eh]
    ---------------------

    Doubly Occupied:

       1A    -20.386685     2A    -20.323023     3A    -20.313990
       4A    -15.446159     5A    -11.221539     6A    -11.164056
       7A    -11.135016     8A    -11.127605     9A    -11.108871
      10A     -1.237830    11A     -1.190648    12A     -1.096336
      13A     -1.080650    14A     -0.949243    15A     -0.831055
      16A     -0.759404    17A     -0.648151    18A     -0.584553
      19A     -0.545062    20A     -0.526704    21A     -0.501686
      22A     -0.485346    23A     -0.474830    24A     -0.437084
      25A     -0.427206    26A     -0.419597    27A     -0.407296
      28A     -0.393670    29A     -0.380624    30A     -0.345532
      31A     -0.298182    32A     -0.255699    33A     -0.239187
      34A     -0.226062    35A     -0.216295

  @DF-RHF Final Energy:  -473.28692282198045

   => Energetics <=

    Nuclear Repulsion Energy =            435.1281271234429369
    One-Electron Energy =               -1522.4603482343648011
    Two-Electron Energy =                 614.0452982889414670
    Total Energy =                       -473.2869228219803972
  Basis Set: (AUG-CC-PVTZ AUX)
    Blend: AUG-CC-PVTZ-RI
    Molecular point group: c1

    Geometry (in Angstrom), charge = -1, multiplicity = 1:

       Center              X                  Y                   Z               Mass
    ------------   -----------------  -----------------  -----------------  -----------------
         O           -1.620756391498     1.545259357227    -0.138650709333    15.994914619570
         O            2.161741608502    -1.444248642773    -0.040965709333    15.994914619570
         O            3.429586608502     0.433963357227     0.199718290667    15.994914619570
         N           -0.098137391498    -0.144269642773    -0.110434709333    14.003074004430
         C           -2.440649391498    -0.710177642773    -0.410275709333    12.000000000000
         C           -1.353012391498     0.329235357227    -0.205480709333    12.000000000000
         C            1.073332608502     0.690185357227     0.045084290667    12.000000000000
         C           -3.607676391498    -0.484871642773     0.547835290667    12.000000000000
         C            2.344408608502    -0.194003642773     0.070242290667    12.000000000000
         H           -2.789468391498    -0.617567642773    -1.445754709333     1.007825032230
         H           -2.034144391498    -1.720369642773    -0.297304709333     1.007825032230
         H            1.149487608502     1.413220357227    -0.775976709333     1.007825032230
         H            1.019008608502     1.272134357227     0.973099290667     1.007825032230
         H            0.133238308502    -1.153892842773    -0.172054409333     1.007825032230
         H           -3.288263391498    -0.616953642773     1.585614290667     1.007825032230
         H           -3.992703391498     0.530220357227     0.435443290667     1.007825032230
         H           -4.417449391498    -1.191537642773     0.347872290667     1.007825032230

  Basis Set: AUG-CC-PVTZ
    Blend: AUG-CC-PVTZ
  Basis Set: (AUG-CC-PVTZ AUX)
    Blend: AUG-CC-PVTZ-JKFIT
	 Reference Energy          =    -473.2869228219804540 [Eh]
	 Singles Energy            =      -0.0000000000000000 [Eh]
	 Same-Spin Energy          =      -0.4760605043467378 [Eh]
	 Opposite-Spin Energy      =      -1.4652034862155472 [Eh]
	 Correlation Energy        =      -1.9412639905622850 [Eh]
	 Total Energy              =    -475.2281868125427309 [Eh]

	 ================> DF-SCS-MP2 Energies <==================
	-----------------------------------------------------------
	 SCS Same-Spin Scale       =       0.3333333333333333 [-]
	 SCS Opposite-Spin Scale   =       1.2000000000000000 [-]
	 SCS Same-Spin Energy      =      -0.1586868347822459 [Eh]
	 SCS Opposite-Spin Energy  =      -1.7582441834586566 [Eh]
	 SCS Correlation Energy    =      -1.9169310182409025 [Eh]
	 SCS Total Energy          =    -475.2038538402213703 [Eh]
	-----------------------------------------------------------

  Dipole Moment: [D]
     X:    -9.3408      Y:    -1.1615      Z:    -0.4111     Total:     9.4217

*** Psi4 exiting successfully. Buy a developer a beer!
