                               Psi4 1.3.2 release

  ==> Input File <==

--------------------------------------------------------------------------
#psi4
#
memory 32 gb

molecule  {
-1 1
  O        1.5553730    -1.4489990    -0.0078940
  O       -2.4744110     1.3948030    -0.0154550
  O       -3.5371250    -0.6067510    -0.0268560
  N       -0.0146490     0.2143920     0.0158120
  C        2.3272120     0.8379530     0.0018960
  C        1.2455030    -0.2240550     0.0044360
  C       -1.1489000    -0.6463140     0.0180560
  C        3.7164760     0.2336920    -0.0114620
  C       -2.4836021     0.1674253    -0.0358622
  H        2.1647820     1.4966320    -0.8622200
  H        2.1776990     1.4878210     0.8748480
  H       -1.1517560    -1.3070500    -0.8570610
  H       -1.0874504    -1.3355544     0.8687234
  H       -0.2830670     1.1965190     0.0239890
  H        3.8663740    -0.3931470     0.8680960
  H        3.8530680    -0.3842560    -0.8995260
  H        4.4669480     1.0276640    -0.0135300
units angstrom
no_reorient  #important for SAPT in psi4, default
symmetry c1  #important for SAPT in psi4, default
}

set PROPERTIES_ORIGIN ["COM"]
properties('MP2/aug-cc-pvtz', properties = ['dipole'])
--------------------------------------------------------------------------

    Molecular point group: c1
  Charge       = -1
  Multiplicity = 1
  Basis Set: AUG-CC-PVTZ
    Blend: AUG-CC-PVTZ
  Basis Set: (AUG-CC-PVTZ AUX)
    Blend: AUG-CC-PVTZ-JKFIT

    Orbital Energies [Eh]
    ---------------------

    Doubly Occupied:

       1A    -20.392294     2A    -20.333493     3A    -20.300332
       4A    -15.451599     5A    -11.228034     6A    -11.164983
       7A    -11.138163     8A    -11.124596     9A    -11.108975
      10A     -1.236204    11A     -1.199474    12A     -1.102249
      13A     -1.072929    14A     -0.953221    15A     -0.836836
      16A     -0.758202    17A     -0.661943    18A     -0.590936
      19A     -0.545165    20A     -0.535822    21A     -0.510096
      22A     -0.483856    23A     -0.476860    24A     -0.429165
      25A     -0.424950    26A     -0.417037    27A     -0.412891
      28A     -0.399271    29A     -0.381248    30A     -0.347417
      31A     -0.303782    32A     -0.258314    33A     -0.238518
      34A     -0.218289    35A     -0.209001

  @DF-RHF Final Energy:  -473.27731429745580

   => Energetics <=

    Nuclear Repulsion Energy =            433.6103338191751959
    One-Electron Energy =               -1519.2830086776161806
    Two-Electron Energy =                 612.3953605609852957
    Total Energy =                       -473.2773142974557459
  Basis Set: (AUG-CC-PVTZ AUX)
    Blend: AUG-CC-PVTZ-RI
    Molecular point group: c1

    Geometry (in Angstrom), charge = -1, multiplicity = 1:

       Center              X                  Y                   Z               Mass
    ------------   -----------------  -----------------  -----------------  -----------------
         O            1.659060565670    -1.438675284521    -0.001331182900    15.994914619570
         O           -2.370723434330     1.405126715479    -0.008892182900    15.994914619570
         O           -3.433437434330    -0.596427284521    -0.020293182900    15.994914619570
         N            0.089038565670     0.224715715479     0.022374817100    14.003074004430
         C            2.430899565670     0.848276715479     0.008458817100    12.000000000000
         C            1.349190565670    -0.213731284521     0.010998817100    12.000000000000
         C           -1.045212434330    -0.635990284521     0.024618817100    12.000000000000
         C            3.820163565670     0.244015715479    -0.004899182900    12.000000000000
         C           -2.379914534330     0.177749015479    -0.029299382900    12.000000000000
         H            2.268469565670     1.506955715479    -0.855657182900     1.007825032230
         H            2.281386565670     1.498144715479     0.881410817100     1.007825032230
         H           -1.048068434330    -1.296726284521    -0.850498182900     1.007825032230
         H           -0.983762834330    -1.325230684521     0.875286217100     1.007825032230
         H           -0.179379434330     1.206842715479     0.030551817100     1.007825032230
         H            3.970061565670    -0.382823284521     0.874658817100     1.007825032230
         H            3.956755565670    -0.373932284521    -0.892963182900     1.007825032230
         H            4.570635565670     1.037987715479    -0.006967182900     1.007825032230

  Basis Set: AUG-CC-PVTZ
    Blend: AUG-CC-PVTZ
  Basis Set: (AUG-CC-PVTZ AUX)
    Blend: AUG-CC-PVTZ-JKFIT
	 Reference Energy          =    -473.2773142974558027 [Eh]
	 Singles Energy            =      -0.0000000000000000 [Eh]
	 Same-Spin Energy          =      -0.4762167322543140 [Eh]
	 Opposite-Spin Energy      =      -1.4655228453451208 [Eh]
	 Correlation Energy        =      -1.9417395775994348 [Eh]
	 Total Energy              =    -475.2190538750552378 [Eh]

	 ================> DF-SCS-MP2 Energies <==================
	-----------------------------------------------------------
	 SCS Same-Spin Scale       =       0.3333333333333333 [-]
	 SCS Opposite-Spin Scale   =       1.2000000000000000 [-]
	 SCS Same-Spin Energy      =      -0.1587389107514380 [Eh]
	 SCS Opposite-Spin Energy  =      -1.7586274144141449 [Eh]
	 SCS Correlation Energy    =      -1.9173663251655830 [Eh]
	 SCS Total Energy          =    -475.1946806226213766 [Eh]
	-----------------------------------------------------------

  Dipole Moment: [D]
     X:    10.1635      Y:     1.9573      Z:     0.0938     Total:    10.3507

*** Psi4 exiting successfully. Buy a developer a beer!
