                               Psi4 1.3.2 release

  ==> Input File <==

--------------------------------------------------------------------------
#psi4
#
memory 32 gb

molecule  {
-1 1
  O        1.5553730    -1.4489990    -0.0078940
  O       -2.4744110     1.3948030    -0.0154550
  O       -3.5371250    -0.6067510    -0.0268560
  N       -0.0146490     0.2143920     0.0158120
  C        2.3272120     0.8379530     0.0018960
  C        1.2455030    -0.2240550     0.0044360
  C       -1.1489000    -0.6463140     0.0180560
  C        3.7164760     0.2336920    -0.0114620
  C       -2.5073920     0.1288020     0.0323140
  H        2.1647820     1.4966320    -0.8622200
  H        2.1776990     1.4878210     0.8748480
  H       -1.1517560    -1.3070500    -0.8570610
  H       -1.1379003    -1.4402999     1.0430224
  H       -0.2830670     1.1965190     0.0239890
  H        3.8663740    -0.3931470     0.8680960
  H        3.8530680    -0.3842560    -0.8995260
  H        4.4669480     1.0276640    -0.0135300
units angstrom
no_reorient  #important for SAPT in psi4, default
symmetry c1  #important for SAPT in psi4, default
}

set PROPERTIES_ORIGIN ["COM"]
properties('MP2/aug-cc-pvtz', properties = ['dipole'])
--------------------------------------------------------------------------

    Molecular point group: c1
  Charge       = -1
  Multiplicity = 1
  Basis Set: AUG-CC-PVTZ
    Blend: AUG-CC-PVTZ
  Basis Set: (AUG-CC-PVTZ AUX)
    Blend: AUG-CC-PVTZ-JKFIT

    Orbital Energies [Eh]
    ---------------------

    Doubly Occupied:

       1A    -20.392770     2A    -20.324087     3A    -20.311010
       4A    -15.454532     5A    -11.228758     6A    -11.166850
       7A    -11.138513     8A    -11.131875     9A    -11.124711
      10A     -1.236301    11A     -1.187964    12A     -1.104111
      13A     -1.083200    14A     -0.953159    15A     -0.831292
      16A     -0.754946    17A     -0.658584    18A     -0.591411
      19A     -0.546432    20A     -0.535538    21A     -0.504730
      22A     -0.476525    23A     -0.470786    24A     -0.426494
      25A     -0.424287    26A     -0.414658    27A     -0.412659
      28A     -0.392342    29A     -0.379475    30A     -0.336836
      31A     -0.304157    32A     -0.254091    33A     -0.236010
      34A     -0.226016    35A     -0.213361

  @DF-RHF Final Energy:  -473.26174635342170

   => Energetics <=

    Nuclear Repulsion Energy =            432.4662711567394808
    One-Electron Energy =               -1516.9990940759284967
    Two-Electron Energy =                 611.2710765657674301
    Total Energy =                       -473.2617463534216995
  Basis Set: (AUG-CC-PVTZ AUX)
    Blend: AUG-CC-PVTZ-RI
    Molecular point group: c1

    Geometry (in Angstrom), charge = -1, multiplicity = 1:

       Center              X                  Y                   Z               Mass
    ------------   -----------------  -----------------  -----------------  -----------------
         O            1.661646666330    -1.434299714298    -0.008972660026    15.994914619570
         O           -2.368137333670     1.409502285702    -0.016533660026    15.994914619570
         O           -3.430851333670    -0.592051714298    -0.027934660026    15.994914619570
         N            0.091624666330     0.229091285702     0.014733339974    14.003074004430
         C            2.433485666330     0.852652285702     0.000817339974    12.000000000000
         C            1.351776666330    -0.209355714298     0.003357339974    12.000000000000
         C           -1.042626333670    -0.631614714298     0.016977339974    12.000000000000
         C            3.822749666330     0.248391285702    -0.012540660026    12.000000000000
         C           -2.401118333670     0.143501285702     0.031235339974    12.000000000000
         H            2.271055666330     1.511331285702    -0.863298660026     1.007825032230
         H            2.283972666330     1.502520285702     0.873769339974     1.007825032230
         H           -1.045482333670    -1.292350714298    -0.858139660026     1.007825032230
         H           -1.031626633670    -1.425600614298     1.041943739974     1.007825032230
         H           -0.176793333670     1.211218285702     0.022910339974     1.007825032230
         H            3.972647666330    -0.378447714298     0.867017339974     1.007825032230
         H            3.959341666330    -0.369556714298    -0.900604660026     1.007825032230
         H            4.573221666330     1.042363285702    -0.014608660026     1.007825032230

  Basis Set: AUG-CC-PVTZ
    Blend: AUG-CC-PVTZ
  Basis Set: (AUG-CC-PVTZ AUX)
    Blend: AUG-CC-PVTZ-JKFIT
	 Reference Energy          =    -473.2617463534216995 [Eh]
	 Singles Energy            =      -0.0000000000000000 [Eh]
	 Same-Spin Energy          =      -0.4764488358587674 [Eh]
	 Opposite-Spin Energy      =      -1.4671763444787431 [Eh]
	 Correlation Energy        =      -1.9436251803375106 [Eh]
	 Total Energy              =    -475.2053715337592052 [Eh]

	 ================> DF-SCS-MP2 Energies <==================
	-----------------------------------------------------------
	 SCS Same-Spin Scale       =       0.3333333333333333 [-]
	 SCS Opposite-Spin Scale   =       1.2000000000000000 [-]
	 SCS Same-Spin Energy      =      -0.1588162786195891 [Eh]
	 SCS Opposite-Spin Energy  =      -1.7606116133744918 [Eh]
	 SCS Correlation Energy    =      -1.9194278919940810 [Eh]
	 SCS Total Energy          =    -475.1811742454157752 [Eh]
	-----------------------------------------------------------

  Dipole Moment: [D]
     X:     9.9503      Y:     1.6714      Z:     0.0214     Total:    10.0897

*** Psi4 exiting successfully. Buy a developer a beer!
