                               Psi4 1.3.2 release

  ==> Input File <==

--------------------------------------------------------------------------
#psi4
#
memory 32 gb

molecule  {
-1 1
  O        1.5553730    -1.4489990    -0.0078940
  O       -2.4744110     1.3948030    -0.0154550
  O       -3.5371250    -0.6067510    -0.0268560
  N       -0.0146490     0.2143920     0.0158120
  C        2.3272120     0.8379530     0.0018960
  C        1.2600388    -0.1798084     0.0046188
  C       -1.1782454    -0.6062061     0.0185113
  C        3.7164760     0.2336920    -0.0114620
  C       -2.5073920     0.1288020     0.0323140
  H        2.1647820     1.4966320    -0.8622200
  H        2.1776990     1.4878210     0.8748480
  H       -1.1517560    -1.3070500    -0.8570610
  H       -1.1395970    -1.3178250     0.8849180
  H       -0.2830670     1.1965190     0.0239890
  H        3.8663740    -0.3931470     0.8680960
  H        3.8530680    -0.3842560    -0.8995260
  H        4.4669480     1.0276640    -0.0135300
units angstrom
no_reorient  #important for SAPT in psi4, default
symmetry c1  #important for SAPT in psi4, default
}

set PROPERTIES_ORIGIN ["COM"]
properties('MP2/aug-cc-pvtz', properties = ['dipole'])
--------------------------------------------------------------------------

    Molecular point group: c1
  Charge       = -1
  Multiplicity = 1
  Basis Set: AUG-CC-PVTZ
    Blend: AUG-CC-PVTZ
  Basis Set: (AUG-CC-PVTZ AUX)
    Blend: AUG-CC-PVTZ-JKFIT

    Orbital Energies [Eh]
    ---------------------

    Doubly Occupied:

       1A    -20.386021     2A    -20.321975     3A    -20.311054
       4A    -15.455601     5A    -11.230625     6A    -11.163643
       7A    -11.140449     8A    -11.126288     9A    -11.114280
      10A     -1.216950    11A     -1.188136    12A     -1.098701
      13A     -1.082489    14A     -0.960649    15A     -0.843317
      16A     -0.766933    17A     -0.658447    18A     -0.595869
      19A     -0.553382    20A     -0.539201    21A     -0.502204
      22A     -0.479890    23A     -0.468773    24A     -0.431709
      25A     -0.428480    26A     -0.418049    27A     -0.411295
      28A     -0.392387    29A     -0.375908    30A     -0.335307
      31A     -0.301851    32A     -0.252902    33A     -0.237021
      34A     -0.229064    35A     -0.213312

  @DF-RHF Final Energy:  -473.27082647026896

   => Energetics <=

    Nuclear Repulsion Energy =            433.5255880830437150
    One-Electron Energy =               -1519.1285009222751796
    Two-Electron Energy =                 612.3320863689625639
    Total Energy =                       -473.2708264702689576
  Basis Set: (AUG-CC-PVTZ AUX)
    Blend: AUG-CC-PVTZ-RI
    Molecular point group: c1

    Geometry (in Angstrom), charge = -1, multiplicity = 1:

       Center              X                  Y                   Z               Mass
    ------------   -----------------  -----------------  -----------------  -----------------
         O            1.663026324921    -1.443032383416    -0.007806309512    15.994914619570
         O           -2.366757675079     1.400769616584    -0.015367309512    15.994914619570
         O           -3.429471675079    -0.600784383416    -0.026768309512    15.994914619570
         N            0.093004324921     0.220358616584     0.015899690488    14.003074004430
         C            2.434865324921     0.843919616584     0.001983690488    12.000000000000
         C            1.367692124921    -0.173841783416     0.004706490488    12.000000000000
         C           -1.070592075079    -0.600239483416     0.018598990488    12.000000000000
         C            3.824129324921     0.239658616584    -0.011374309512    12.000000000000
         C           -2.399738675079     0.134768616584     0.032401690488    12.000000000000
         H            2.272435324921     1.502598616584    -0.862132309512     1.007825032230
         H            2.285352324921     1.493787616584     0.874935690488     1.007825032230
         H           -1.044102675079    -1.301083383416    -0.856973309512     1.007825032230
         H           -1.031943675079    -1.311858383416     0.885005690488     1.007825032230
         H           -0.175413675079     1.202485616584     0.024076690488     1.007825032230
         H            3.974027324921    -0.387180383416     0.868183690488     1.007825032230
         H            3.960721324921    -0.378289383416    -0.899438309512     1.007825032230
         H            4.574601324921     1.033630616584    -0.013442309512     1.007825032230

  Basis Set: AUG-CC-PVTZ
    Blend: AUG-CC-PVTZ
  Basis Set: (AUG-CC-PVTZ AUX)
    Blend: AUG-CC-PVTZ-JKFIT
	 Reference Energy          =    -473.2708264702689576 [Eh]
	 Singles Energy            =      -0.0000000000000000 [Eh]
	 Same-Spin Energy          =      -0.4774170711306985 [Eh]
	 Opposite-Spin Energy      =      -1.4678048283749214 [Eh]
	 Correlation Energy        =      -1.9452218995056199 [Eh]
	 Total Energy              =    -475.2160483697745690 [Eh]

	 ================> DF-SCS-MP2 Energies <==================
	-----------------------------------------------------------
	 SCS Same-Spin Scale       =       0.3333333333333333 [-]
	 SCS Opposite-Spin Scale   =       1.2000000000000000 [-]
	 SCS Same-Spin Energy      =      -0.1591390237102328 [Eh]
	 SCS Opposite-Spin Energy  =      -1.7613657940499057 [Eh]
	 SCS Correlation Energy    =      -1.9205048177601385 [Eh]
	 SCS Total Energy          =    -475.1913312880291187 [Eh]
	-----------------------------------------------------------

  Dipole Moment: [D]
     X:     9.9379      Y:     1.8072      Z:     0.1381     Total:    10.1018

*** Psi4 exiting successfully. Buy a developer a beer!
