                               Psi4 1.3.2 release

  ==> Input File <==

--------------------------------------------------------------------------
#psi4
#
memory 32 gb

molecule  {
-1 1
  O        1.5553730    -1.4489990    -0.0078940
  O       -2.4744110     1.3948030    -0.0154550
  O       -3.5371250    -0.6067510    -0.0268560
  N       -0.0146490     0.2143920     0.0158120
  C        2.3272120     0.8379530     0.0018960
  C        1.2455030    -0.2240550     0.0044360
  C       -1.1489000    -0.6463140     0.0180560
  C        3.7164760     0.2336920    -0.0114620
  C       -2.5073920     0.1288020     0.0323140
  H        2.1647820     1.4966320    -0.8622200
  H        2.1776990     1.4878210     0.8748480
  H       -1.1517560    -1.3070500    -0.8570610
  H       -1.1395970    -1.3178250     0.8849180
  H       -0.3094296     1.2929782     0.0247921
  H        3.8663740    -0.3931470     0.8680960
  H        3.8530680    -0.3842560    -0.8995260
  H        4.4669480     1.0276640    -0.0135300
units angstrom
no_reorient  #important for SAPT in psi4, default
symmetry c1  #important for SAPT in psi4, default
}

set PROPERTIES_ORIGIN ["COM"]
properties('MP2/aug-cc-pvtz', properties = ['dipole'])
--------------------------------------------------------------------------

    Molecular point group: c1
  Charge       = -1
  Multiplicity = 1
  Basis Set: AUG-CC-PVTZ
    Blend: AUG-CC-PVTZ
  Basis Set: (AUG-CC-PVTZ AUX)
    Blend: AUG-CC-PVTZ-JKFIT

    Orbital Energies [Eh]
    ---------------------

    Doubly Occupied:

       1A    -20.389665     2A    -20.324417     3A    -20.311647
       4A    -15.456909     5A    -11.225630     6A    -11.165537
       7A    -11.136189     8A    -11.123051     9A    -11.108891
      10A     -1.232779    11A     -1.188003    12A     -1.093690
      13A     -1.082171    14A     -0.951116    15A     -0.835045
      16A     -0.756171    17A     -0.639290    18A     -0.584977
      19A     -0.544134    20A     -0.533897    21A     -0.505781
      22A     -0.483021    23A     -0.472765    24A     -0.424763
      25A     -0.422495    26A     -0.416205    27A     -0.412670
      28A     -0.392120    29A     -0.379346    30A     -0.344401
      31A     -0.301533    32A     -0.255278    33A     -0.236646
      34A     -0.225431    35A     -0.214344

  @DF-RHF Final Energy:  -473.27159817880920

   => Energetics <=

    Nuclear Repulsion Energy =            432.8725593773806395
    One-Electron Energy =               -1517.9483034250888522
    Two-Electron Energy =                 611.8041458688990133
    Total Energy =                       -473.2715981788091995
  Basis Set: (AUG-CC-PVTZ AUX)
    Blend: AUG-CC-PVTZ-RI
    Molecular point group: c1

    Geometry (in Angstrom), charge = -1, multiplicity = 1:

       Center              X                  Y                   Z               Mass
    ------------   -----------------  -----------------  -----------------  -----------------
         O            1.661864111728    -1.435996342957    -0.007753654428    15.994914619570
         O           -2.367919888272     1.407805657043    -0.015314654428    15.994914619570
         O           -3.430633888272    -0.593748342957    -0.026715654428    15.994914619570
         N            0.091842111728     0.227394657043     0.015952345572    14.003074004430
         C            2.433703111728     0.850955657043     0.002036345572    12.000000000000
         C            1.351994111728    -0.211052342957     0.004576345572    12.000000000000
         C           -1.042408888272    -0.633311342957     0.018196345572    12.000000000000
         C            3.822967111728     0.246694657043    -0.011321654428    12.000000000000
         C           -2.400900888272     0.141804657043     0.032454345572    12.000000000000
         H            2.271273111728     1.509634657043    -0.862079654428     1.007825032230
         H            2.284190111728     1.500823657043     0.874988345572     1.007825032230
         H           -1.045264888272    -1.294047342957    -0.856920654428     1.007825032230
         H           -1.033105888272    -1.304822342957     0.885058345572     1.007825032230
         H           -0.202938488272     1.305980857043     0.024932445572     1.007825032230
         H            3.972865111728    -0.380144342957     0.868236345572     1.007825032230
         H            3.959559111728    -0.371253342957    -0.899385654428     1.007825032230
         H            4.573439111728     1.040666657043    -0.013389654428     1.007825032230

  Basis Set: AUG-CC-PVTZ
    Blend: AUG-CC-PVTZ
  Basis Set: (AUG-CC-PVTZ AUX)
    Blend: AUG-CC-PVTZ-JKFIT
	 Reference Energy          =    -473.2715981788091995 [Eh]
	 Singles Energy            =      -0.0000000000000000 [Eh]
	 Same-Spin Energy          =      -0.4772476245129034 [Eh]
	 Opposite-Spin Energy      =      -1.4675604709841692 [Eh]
	 Correlation Energy        =      -1.9448080954970726 [Eh]
	 Total Energy              =    -475.2164062743062800 [Eh]

	 ================> DF-SCS-MP2 Energies <==================
	-----------------------------------------------------------
	 SCS Same-Spin Scale       =       0.3333333333333333 [-]
	 SCS Opposite-Spin Scale   =       1.2000000000000000 [-]
	 SCS Same-Spin Energy      =      -0.1590825415043011 [Eh]
	 SCS Opposite-Spin Energy  =      -1.7610725651810031 [Eh]
	 SCS Correlation Energy    =      -1.9201551066853042 [Eh]
	 SCS Total Energy          =    -475.1917532854944852 [Eh]
	-----------------------------------------------------------

  Dipole Moment: [D]
     X:     9.7102      Y:     1.6632      Z:     0.1371     Total:     9.8526

*** Psi4 exiting successfully. Buy a developer a beer!
