                               Psi4 1.3.2 release

  ==> Input File <==

--------------------------------------------------------------------------
#psi4
#
memory 32 gb

molecule  {
-1 1
  O        1.5553730    -1.4489990    -0.0078940
  O       -2.4744110     1.3948030    -0.0154550
  O       -3.5371250    -0.6067510    -0.0268560
  N       -0.0146490     0.2143920     0.0158120
  C        2.3272120     0.8379530     0.0018960
  C        1.2600388    -0.1798085     0.0046240
  C       -1.1489000    -0.6463140     0.0180560
  C        3.7164760     0.2336920    -0.0114620
  C       -2.5073920     0.1288020     0.0323140
  H        2.1647820     1.4966320    -0.8622200
  H        2.1776990     1.4878210     0.8748480
  H       -1.1517560    -1.3070500    -0.8570610
  H       -1.1395970    -1.3178250     0.8849180
  H       -0.2486274     1.2052899     0.0238125
  H        3.8663740    -0.3931470     0.8680960
  H        3.8530680    -0.3842560    -0.8995260
  H        4.4669480     1.0276640    -0.0135300
units angstrom
no_reorient  #important for SAPT in psi4, default
symmetry c1  #important for SAPT in psi4, default
}

set PROPERTIES_ORIGIN ["COM"]
properties('MP2/aug-cc-pvtz', properties = ['dipole'])
--------------------------------------------------------------------------

    Molecular point group: c1
  Charge       = -1
  Multiplicity = 1
  Basis Set: AUG-CC-PVTZ
    Blend: AUG-CC-PVTZ
  Basis Set: (AUG-CC-PVTZ AUX)
    Blend: AUG-CC-PVTZ-JKFIT

    Orbital Energies [Eh]
    ---------------------

    Doubly Occupied:

       1A    -20.385397     2A    -20.321855     3A    -20.310958
       4A    -15.455482     5A    -11.228839     6A    -11.164931
       7A    -11.140265     8A    -11.126199     9A    -11.110821
      10A     -1.216660    11A     -1.185946    12A     -1.097795
      13A     -1.081807    14A     -0.960437    15A     -0.841036
      16A     -0.765484    17A     -0.656321    18A     -0.592217
      19A     -0.547944    20A     -0.539379    21A     -0.505780
      22A     -0.483826    23A     -0.467722    24A     -0.430711
      25A     -0.425759    26A     -0.418565    27A     -0.410684
      28A     -0.396484    29A     -0.375015    30A     -0.339610
      31A     -0.301152    32A     -0.255653    33A     -0.234642
      34A     -0.225234    35A     -0.212970

  @DF-RHF Final Energy:  -473.27380968140903

   => Energetics <=

    Nuclear Repulsion Energy =            433.1304285929887214
    One-Electron Energy =               -1518.3813136833121007
    Two-Electron Energy =                 611.9770754089144020
    Total Energy =                       -473.2738096814090341
  Basis Set: (AUG-CC-PVTZ AUX)
    Blend: AUG-CC-PVTZ-RI
    Molecular point group: c1

    Geometry (in Angstrom), charge = -1, multiplicity = 1:

       Center              X                  Y                   Z               Mass
    ------------   -----------------  -----------------  -----------------  -----------------
         O            1.660051679422    -1.439399511840    -0.007763410141    15.994914619570
         O           -2.369732320578     1.404402488160    -0.015324410141    15.994914619570
         O           -3.432446320578    -0.597151511840    -0.026725410141    15.994914619570
         N            0.090029679422     0.223991488160     0.015942589859    14.003074004430
         C            2.431890679422     0.847552488160     0.002026589859    12.000000000000
         C            1.364717479422    -0.170209011840     0.004754589859    12.000000000000
         C           -1.044221320578    -0.636714511840     0.018186589859    12.000000000000
         C            3.821154679422     0.243291488160    -0.011331410141    12.000000000000
         C           -2.402713320578     0.138401488160     0.032444589859    12.000000000000
         H            2.269460679422     1.506231488160    -0.862089410141     1.007825032230
         H            2.282377679422     1.497420488160     0.874978589859     1.007825032230
         H           -1.047077320578    -1.297450511840    -0.856930410141     1.007825032230
         H           -1.034918320578    -1.308225511840     0.885048589859     1.007825032230
         H           -0.143948720578     1.214889388160     0.023943089859     1.007825032230
         H            3.971052679422    -0.383547511840     0.868226589859     1.007825032230
         H            3.957746679422    -0.374656511840    -0.899395410141     1.007825032230
         H            4.571626679422     1.037263488160    -0.013399410141     1.007825032230

  Basis Set: AUG-CC-PVTZ
    Blend: AUG-CC-PVTZ
  Basis Set: (AUG-CC-PVTZ AUX)
    Blend: AUG-CC-PVTZ-JKFIT
	 Reference Energy          =    -473.2738096814090341 [Eh]
	 Singles Energy            =      -0.0000000000000000 [Eh]
	 Same-Spin Energy          =      -0.4770682341389328 [Eh]
	 Opposite-Spin Energy      =      -1.4672589294649125 [Eh]
	 Correlation Energy        =      -1.9443271636038453 [Eh]
	 Total Energy              =    -475.2181368450129071 [Eh]

	 ================> DF-SCS-MP2 Energies <==================
	-----------------------------------------------------------
	 SCS Same-Spin Scale       =       0.3333333333333333 [-]
	 SCS Opposite-Spin Scale   =       1.2000000000000000 [-]
	 SCS Same-Spin Energy      =      -0.1590227447129776 [Eh]
	 SCS Opposite-Spin Energy  =      -1.7607107153578949 [Eh]
	 SCS Correlation Energy    =      -1.9197334600708724 [Eh]
	 SCS Total Energy          =    -475.1935431414798927 [Eh]
	-----------------------------------------------------------

  Dipole Moment: [D]
     X:     9.9536      Y:     1.7997      Z:     0.1380     Total:    10.1159

*** Psi4 exiting successfully. Buy a developer a beer!
