                               Psi4 1.3.2 release

  ==> Input File <==

--------------------------------------------------------------------------
#psi4
#
memory 32 gb

molecule  {
-1 1
  O        1.5553730    -1.4489990    -0.0078940
  O       -2.4744110     1.3948030    -0.0154550
  O       -3.5371250    -0.6067510    -0.0268560
  N       -0.0146490     0.2143920     0.0158120
  C        2.3272120     0.8379530     0.0018960
  C        1.2091004    -0.1856578     0.0049018
  C       -1.1489000    -0.6463140     0.0180560
  C        3.7367196     0.2825462    -0.0113609
  C       -2.5073920     0.1288020     0.0323140
  H        2.1647820     1.4966320    -0.8622200
  H        2.1776990     1.4878210     0.8748480
  H       -1.1517560    -1.3070500    -0.8570610
  H       -1.1395970    -1.3178250     0.8849180
  H       -0.2830670     1.1965190     0.0239890
  H        3.8663740    -0.3931470     0.8680960
  H        3.8530680    -0.3842560    -0.8995260
  H        4.4669480     1.0276640    -0.0135300
units angstrom
no_reorient  #important for SAPT in psi4, default
symmetry c1  #important for SAPT in psi4, default
}

set PROPERTIES_ORIGIN ["COM"]
properties('MP2/aug-cc-pvtz', properties = ['dipole'])
--------------------------------------------------------------------------

    Molecular point group: c1
  Charge       = -1
  Multiplicity = 1
  Basis Set: AUG-CC-PVTZ
    Blend: AUG-CC-PVTZ
  Basis Set: (AUG-CC-PVTZ AUX)
    Blend: AUG-CC-PVTZ-JKFIT

    Orbital Energies [Eh]
    ---------------------

    Doubly Occupied:

       1A    -20.379286     2A    -20.326270     3A    -20.314297
       4A    -15.461798     5A    -11.225554     6A    -11.168648
       7A    -11.138237     8A    -11.123075     9A    -11.114561
      10A     -1.218227    11A     -1.189188    12A     -1.108747
      13A     -1.086442    14A     -0.950720    15A     -0.846668
      16A     -0.762773    17A     -0.670420    18A     -0.590806
      19A     -0.548011    20A     -0.532707    21A     -0.508598
      22A     -0.487407    23A     -0.474077    24A     -0.435862
      25A     -0.426548    26A     -0.408059    27A     -0.407342
      28A     -0.394667    29A     -0.375247    30A     -0.341126
      31A     -0.293510    32A     -0.260547    33A     -0.238870
      34A     -0.228832    35A     -0.216861

  @DF-RHF Final Energy:  -473.26978568435794

   => Energetics <=

    Nuclear Repulsion Energy =            433.1759559427785575
    One-Electron Energy =               -1518.3834986468605166
    Two-Electron Energy =                 611.9377570197241312
    Total Energy =                       -473.2697856843578847
  Basis Set: (AUG-CC-PVTZ AUX)
    Blend: AUG-CC-PVTZ-RI
    Molecular point group: c1

    Geometry (in Angstrom), charge = -1, multiplicity = 1:

       Center              X                  Y                   Z               Mass
    ------------   -----------------  -----------------  -----------------  -----------------
         O            1.663150836632    -1.443299685901    -0.007799739752    15.994914619570
         O           -2.366633163368     1.400502314099    -0.015360739752    15.994914619570
         O           -3.429347163368    -0.601051685901    -0.026761739752    15.994914619570
         N            0.093128836632     0.220091314099     0.015906260248    14.003074004430
         C            2.434989836632     0.843652314099     0.001990260248    12.000000000000
         C            1.316878236632    -0.179958485901     0.004996060248    12.000000000000
         C           -1.041122163368    -0.640614685901     0.018150260248    12.000000000000
         C            3.844497436632     0.288245514099    -0.011266639752    12.000000000000
         C           -2.399614163368     0.134501314099     0.032408260248    12.000000000000
         H            2.272559836632     1.502331314099    -0.862125739752     1.007825032230
         H            2.285476836632     1.493520314099     0.874942260248     1.007825032230
         H           -1.043978163368    -1.301350685901    -0.856966739752     1.007825032230
         H           -1.031819163368    -1.312125685901     0.885012260248     1.007825032230
         H           -0.175289163368     1.202218314099     0.024083260248     1.007825032230
         H            3.974151836632    -0.387447685901     0.868190260248     1.007825032230
         H            3.960845836632    -0.378556685901    -0.899431739752     1.007825032230
         H            4.574725836632     1.033363314099    -0.013435739752     1.007825032230

  Basis Set: AUG-CC-PVTZ
    Blend: AUG-CC-PVTZ
  Basis Set: (AUG-CC-PVTZ AUX)
    Blend: AUG-CC-PVTZ-JKFIT
	 Reference Energy          =    -473.2697856843579416 [Eh]
	 Singles Energy            =      -0.0000000000000000 [Eh]
	 Same-Spin Energy          =      -0.4768472786860640 [Eh]
	 Opposite-Spin Energy      =      -1.4668591921023513 [Eh]
	 Correlation Energy        =      -1.9437064707884153 [Eh]
	 Total Energy              =    -475.2134921551463549 [Eh]

	 ================> DF-SCS-MP2 Energies <==================
	-----------------------------------------------------------
	 SCS Same-Spin Scale       =       0.3333333333333333 [-]
	 SCS Opposite-Spin Scale   =       1.2000000000000000 [-]
	 SCS Same-Spin Energy      =      -0.1589490928953546 [Eh]
	 SCS Opposite-Spin Energy  =      -1.7602310305228215 [Eh]
	 SCS Correlation Energy    =      -1.9191801234181760 [Eh]
	 SCS Total Energy          =    -475.1889658077761283 [Eh]
	-----------------------------------------------------------

  Dipole Moment: [D]
     X:     9.4806      Y:     1.8809      Z:     0.1413     Total:     9.6664

*** Psi4 exiting successfully. Buy a developer a beer!
