                               Psi4 1.3.2 release

  ==> Input File <==

--------------------------------------------------------------------------
#psi4
#
memory 32 gb

molecule  {
-1 1
  O        1.5553730    -1.4489990    -0.0078940
  O       -2.4523868     1.3941085    -0.0135328
  O       -3.5242294    -0.6246184    -0.0250326
  N       -0.0146490     0.2143920     0.0158120
  C        2.3272120     0.8379530     0.0018960
  C        1.2455030    -0.2240550     0.0044360
  C       -1.1489000    -0.6463140     0.0180560
  C        3.7164760     0.2336920    -0.0114620
  C       -2.5073920     0.1288020     0.0323140
  H        2.1647820     1.4966320    -0.8622200
  H        2.1776990     1.4878210     0.8748480
  H       -1.1517560    -1.3070500    -0.8570610
  H       -1.1395970    -1.3178250     0.8849180
  H       -0.2830670     1.1965190     0.0239890
  H        3.8663740    -0.3931470     0.8680960
  H        3.8530680    -0.3842560    -0.8995260
  H        4.4669480     1.0276640    -0.0135300
units angstrom
no_reorient  #important for SAPT in psi4, default
symmetry c1  #important for SAPT in psi4, default
}

set PROPERTIES_ORIGIN ["COM"]
properties('MP2/aug-cc-pvtz', properties = ['dipole'])
--------------------------------------------------------------------------

    Molecular point group: c1
  Charge       = -1
  Multiplicity = 1
  Basis Set: AUG-CC-PVTZ
    Blend: AUG-CC-PVTZ
  Basis Set: (AUG-CC-PVTZ AUX)
    Blend: AUG-CC-PVTZ-JKFIT

    Orbital Energies [Eh]
    ---------------------

    Doubly Occupied:

       1A    -20.390294     2A    -20.324589     3A    -20.312885
       4A    -15.449614     5A    -11.226338     6A    -11.165879
       7A    -11.136781     8A    -11.123498     9A    -11.106336
      10A     -1.234090    11A     -1.187514    12A     -1.101482
      13A     -1.085666    14A     -0.951744    15A     -0.834780
      16A     -0.757471    17A     -0.658896    18A     -0.588995
      19A     -0.544388    20A     -0.534488    21A     -0.506720
      22A     -0.482982    23A     -0.474678    24A     -0.425869
      25A     -0.424730    26A     -0.416511    27A     -0.413880
      28A     -0.396994    29A     -0.379788    30A     -0.343990
      31A     -0.302358    32A     -0.256728    33A     -0.238116
      34A     -0.224088    35A     -0.215575

  @DF-RHF Final Energy:  -473.28232702484121

   => Energetics <=

    Nuclear Repulsion Energy =            433.6763630476846174
    One-Electron Energy =               -1519.4799076849274115
    Two-Electron Energy =                 612.5212176124016423
    Total Energy =                       -473.2823270248411518
  Basis Set: (AUG-CC-PVTZ AUX)
    Blend: AUG-CC-PVTZ-RI
    Molecular point group: c1

    Geometry (in Angstrom), charge = -1, multiplicity = 1:

       Center              X                  Y                   Z               Mass
    ------------   -----------------  -----------------  -----------------  -----------------
         O            1.657365025018    -1.432965902857    -0.008208102547    15.994914619570
         O           -2.350394774982     1.410141597143    -0.013846902547    15.994914619570
         O           -3.422237374982    -0.608585302857    -0.025346702547    15.994914619570
         N            0.087343025018     0.230425097143     0.015497897453    14.003074004430
         C            2.429204025018     0.853986097143     0.001581897453    12.000000000000
         C            1.347495025018    -0.208021902857     0.004121897453    12.000000000000
         C           -1.046907974982    -0.630280902857     0.017741897453    12.000000000000
         C            3.818468025018     0.249725097143    -0.011776102547    12.000000000000
         C           -2.405399974982     0.144835097143     0.031999897453    12.000000000000
         H            2.266774025018     1.512665097143    -0.862534102547     1.007825032230
         H            2.279691025018     1.503854097143     0.874533897453     1.007825032230
         H           -1.049763974982    -1.291016902857    -0.857375102547     1.007825032230
         H           -1.037604974982    -1.301791902857     0.884603897453     1.007825032230
         H           -0.181074974982     1.212552097143     0.023674897453     1.007825032230
         H            3.968366025018    -0.377113902857     0.867781897453     1.007825032230
         H            3.955060025018    -0.368222902857    -0.899840102547     1.007825032230
         H            4.568940025018     1.043697097143    -0.013844102547     1.007825032230

  Basis Set: AUG-CC-PVTZ
    Blend: AUG-CC-PVTZ
  Basis Set: (AUG-CC-PVTZ AUX)
    Blend: AUG-CC-PVTZ-JKFIT
	 Reference Energy          =    -473.2823270248412086 [Eh]
	 Singles Energy            =      -0.0000000000000000 [Eh]
	 Same-Spin Energy          =      -0.4762454090399480 [Eh]
	 Opposite-Spin Energy      =      -1.4654758297483081 [Eh]
	 Correlation Energy        =      -1.9417212387882561 [Eh]
	 Total Energy              =    -475.2240482636294701 [Eh]

	 ================> DF-SCS-MP2 Energies <==================
	-----------------------------------------------------------
	 SCS Same-Spin Scale       =       0.3333333333333333 [-]
	 SCS Opposite-Spin Scale   =       1.2000000000000000 [-]
	 SCS Same-Spin Energy      =      -0.1587484696799827 [Eh]
	 SCS Opposite-Spin Energy  =      -1.7585709956979698 [Eh]
	 SCS Correlation Energy    =      -1.9173194653779524 [Eh]
	 SCS Total Energy          =    -475.1996464902191519 [Eh]
	-----------------------------------------------------------

  Dipole Moment: [D]
     X:     9.7610      Y:     1.6177      Z:     0.1304     Total:     9.8950

*** Psi4 exiting successfully. Buy a developer a beer!
