                               Psi4 1.3.2 release

  ==> Input File <==

--------------------------------------------------------------------------
#psi4
#
memory 32 gb

molecule  {
-1 1
  O        1.5553730    -1.4489990    -0.0078940
  O       -2.4744110     1.3948030    -0.0154550
  O       -3.5371250    -0.6067510    -0.0268560
  N       -0.0146490     0.2143920     0.0158120
  C        2.3272120     0.8379530     0.0018960
  C        1.2455030    -0.2240550     0.0044360
  C       -0.9895782    -0.5254155     0.0177408
  C        3.7164760     0.2336920    -0.0114620
  C       -2.5073920     0.1288020     0.0323140
  H        2.1647820     1.4966320    -0.8622200
  H        2.1776990     1.4878210     0.8748480
  H       -1.1517560    -1.3070500    -0.8570610
  H       -1.1395970    -1.3178250     0.8849180
  H       -0.2830670     1.1965190     0.0239890
  H        3.8663740    -0.3931470     0.8680960
  H        3.8530680    -0.3842560    -0.8995260
  H        4.4669480     1.0276640    -0.0135300
units angstrom
no_reorient  #important for SAPT in psi4, default
symmetry c1  #important for SAPT in psi4, default
}

set PROPERTIES_ORIGIN ["COM"]
properties('MP2/aug-cc-pvtz', properties = ['dipole'])
--------------------------------------------------------------------------

    Molecular point group: c1
  Charge       = -1
  Multiplicity = 1
  Basis Set: AUG-CC-PVTZ
    Blend: AUG-CC-PVTZ
  Basis Set: (AUG-CC-PVTZ AUX)
    Blend: AUG-CC-PVTZ-JKFIT

    Orbital Energies [Eh]
    ---------------------

    Doubly Occupied:

       1A    -20.401917     2A    -20.320672     3A    -20.314994
       4A    -15.455129     5A    -11.234988     6A    -11.169573
       7A    -11.142781     8A    -11.127843     9A    -11.108136
      10A     -1.255184    11A     -1.187703    12A     -1.154204
      13A     -1.082705    14A     -0.961026    15A     -0.846093
      16A     -0.749762    17A     -0.678443    18A     -0.608878
      19A     -0.568257    20A     -0.544018    21A     -0.503482
      22A     -0.493243    23A     -0.485139    24A     -0.433666
      25A     -0.420414    26A     -0.414730    27A     -0.413216
      28A     -0.386367    29A     -0.378684    30A     -0.343083
      31A     -0.312355    32A     -0.234431    33A     -0.232182
      34A     -0.212142    35A     -0.211425

  @DF-RHF Final Energy:  -473.21189030584497

   => Energetics <=

    Nuclear Repulsion Energy =            435.9014794884290609
    One-Electron Energy =               -1523.4530017877857517
    Two-Electron Energy =                 614.3396319935118299
    Total Energy =                       -473.2118903058449177
  Basis Set: (AUG-CC-PVTZ AUX)
    Blend: AUG-CC-PVTZ-RI
    Molecular point group: c1

    Geometry (in Angstrom), charge = -1, multiplicity = 1:

       Center              X                  Y                   Z               Mass
    ------------   -----------------  -----------------  -----------------  -----------------
         O            1.646958888690    -1.446404367961    -0.007718346704    15.994914619570
         O           -2.382825111310     1.397397632039    -0.015279346704    15.994914619570
         O           -3.445539111310    -0.604156367961    -0.026680346704    15.994914619570
         N            0.076936888690     0.216986632039     0.015987653296    14.003074004430
         C            2.418797888690     0.840547632039     0.002071653296    12.000000000000
         C            1.337088888690    -0.221460367961     0.004611653296    12.000000000000
         C           -0.897992311310    -0.522820867961     0.017916453296    12.000000000000
         C            3.808061888690     0.236286632039    -0.011286346704    12.000000000000
         C           -2.415806111310     0.131396632039     0.032489653296    12.000000000000
         H            2.256367888690     1.499226632039    -0.862044346704     1.007825032230
         H            2.269284888690     1.490415632039     0.875023653296     1.007825032230
         H           -1.060170111310    -1.304455367961    -0.856885346704     1.007825032230
         H           -1.048011111310    -1.315230367961     0.885093653296     1.007825032230
         H           -0.191481111310     1.199113632039     0.024164653296     1.007825032230
         H            3.957959888690    -0.390552367961     0.868271653296     1.007825032230
         H            3.944653888690    -0.381661367961    -0.899350346704     1.007825032230
         H            4.558533888690     1.030258632039    -0.013354346704     1.007825032230

  Basis Set: AUG-CC-PVTZ
    Blend: AUG-CC-PVTZ
  Basis Set: (AUG-CC-PVTZ AUX)
    Blend: AUG-CC-PVTZ-JKFIT
	 Reference Energy          =    -473.2118903058449746 [Eh]
	 Singles Energy            =      -0.0000000000000000 [Eh]
	 Same-Spin Energy          =      -0.4802064198129264 [Eh]
	 Opposite-Spin Energy      =      -1.4697629798979064 [Eh]
	 Correlation Energy        =      -1.9499693997108327 [Eh]
	 Total Energy              =    -475.1618597055557984 [Eh]

	 ================> DF-SCS-MP2 Energies <==================
	-----------------------------------------------------------
	 SCS Same-Spin Scale       =       0.3333333333333333 [-]
	 SCS Opposite-Spin Scale   =       1.2000000000000000 [-]
	 SCS Same-Spin Energy      =      -0.1600688066043088 [Eh]
	 SCS Opposite-Spin Energy  =      -1.7637155758774876 [Eh]
	 SCS Correlation Energy    =      -1.9237843824817964 [Eh]
	 SCS Total Energy          =    -475.1356746883267874 [Eh]
	-----------------------------------------------------------

  Dipole Moment: [D]
     X:    10.2730      Y:     1.9384      Z:     0.1260     Total:    10.4550

*** Psi4 exiting successfully. Buy a developer a beer!
