                               Psi4 1.3.2 release

  ==> Input File <==

--------------------------------------------------------------------------
#psi4
#
memory 32 gb

molecule  {
-1 1
  O        1.5553730    -1.4489990    -0.0078940
  O       -2.4744110     1.3948030    -0.0154550
  O       -3.5371250    -0.6067510    -0.0268560
  N       -0.0146490     0.2143920     0.0158120
  C        2.3272120     0.8379530     0.0018960
  C        1.1964570    -0.0301718     0.0063876
  C       -1.1489000    -0.6463140     0.0180560
  C        3.7164760     0.2336920    -0.0114620
  C       -2.5073920     0.1288020     0.0323140
  H        2.1647820     1.4966320    -0.8622200
  H        2.1776990     1.4878210     0.8748480
  H       -1.1517560    -1.3070500    -0.8570610
  H       -1.1395970    -1.3178250     0.8849180
  H       -0.2830670     1.1965190     0.0239890
  H        3.8663740    -0.3931470     0.8680960
  H        3.8530680    -0.3842560    -0.8995260
  H        4.4669480     1.0276640    -0.0135300
units angstrom
no_reorient  #important for SAPT in psi4, default
symmetry c1  #important for SAPT in psi4, default
}

set PROPERTIES_ORIGIN ["COM"]
properties('MP2/aug-cc-pvtz', properties = ['dipole'])
--------------------------------------------------------------------------

    Molecular point group: c1
  Charge       = -1
  Multiplicity = 1
  Basis Set: AUG-CC-PVTZ
    Blend: AUG-CC-PVTZ
  Basis Set: (AUG-CC-PVTZ AUX)
    Blend: AUG-CC-PVTZ-JKFIT

    Orbital Energies [Eh]
    ---------------------

    Doubly Occupied:

       1A    -20.351606     2A    -20.330996     3A    -20.319345
       4A    -15.481143     5A    -11.221198     6A    -11.174210
       7A    -11.143438     8A    -11.125373     9A    -11.123971
      10A     -1.213323    11A     -1.189301    12A     -1.092729
      13A     -1.063323    14A     -0.963926    15A     -0.865349
      16A     -0.784097    17A     -0.675503    18A     -0.598903
      19A     -0.557947    20A     -0.546678    21A     -0.515056
      22A     -0.495732    23A     -0.449242    24A     -0.448038
      25A     -0.430431    26A     -0.421127    27A     -0.412515
      28A     -0.377316    29A     -0.346051    30A     -0.332807
      31A     -0.269093    32A     -0.245573    33A     -0.242290
      34A     -0.234304    35A     -0.221418

  @DF-RHF Final Energy:  -473.21369628915551

   => Energetics <=

    Nuclear Repulsion Energy =            433.2717562656444557
    One-Electron Energy =               -1518.4441948921848962
    Two-Electron Energy =                 611.9587423373849333
    Total Energy =                       -473.2136962891555640
  Basis Set: (AUG-CC-PVTZ AUX)
    Blend: AUG-CC-PVTZ-RI
    Molecular point group: c1

    Geometry (in Angstrom), charge = -1, multiplicity = 1:

       Center              X                  Y                   Z               Mass
    ------------   -----------------  -----------------  -----------------  -----------------
         O            1.666185382816    -1.453138805364    -0.007927508661    15.994914619570
         O           -2.363598617184     1.390663194636    -0.015488508661    15.994914619570
         O           -3.426312617184    -0.610890805364    -0.026889508661    15.994914619570
         N            0.096163382816     0.210252194636     0.015778491339    14.003074004430
         C            2.438024382816     0.833813194636     0.001862491339    12.000000000000
         C            1.307269382816    -0.034311605364     0.006354091339    12.000000000000
         C           -1.038087617184    -0.650453805364     0.018022491339    12.000000000000
         C            3.827288382816     0.229552194636    -0.011495508661    12.000000000000
         C           -2.396579617184     0.124662194636     0.032280491339    12.000000000000
         H            2.275594382816     1.492492194636    -0.862253508661     1.007825032230
         H            2.288511382816     1.483681194636     0.874814491339     1.007825032230
         H           -1.040943617184    -1.311189805364    -0.857094508661     1.007825032230
         H           -1.028784617184    -1.321964805364     0.884884491339     1.007825032230
         H           -0.172254617184     1.192379194636     0.023955491339     1.007825032230
         H            3.977186382816    -0.397286805364     0.868062491339     1.007825032230
         H            3.963880382816    -0.388395805364    -0.899559508661     1.007825032230
         H            4.577760382816     1.023524194636    -0.013563508661     1.007825032230

  Basis Set: AUG-CC-PVTZ
    Blend: AUG-CC-PVTZ
  Basis Set: (AUG-CC-PVTZ AUX)
    Blend: AUG-CC-PVTZ-JKFIT
	 Reference Energy          =    -473.2136962891555072 [Eh]
	 Singles Energy            =      -0.0000000000000000 [Eh]
	 Same-Spin Energy          =      -0.4796120740921800 [Eh]
	 Opposite-Spin Energy      =      -1.4729348354551317 [Eh]
	 Correlation Energy        =      -1.9525469095473116 [Eh]
	 Total Energy              =    -475.1662431987028299 [Eh]

	 ================> DF-SCS-MP2 Energies <==================
	-----------------------------------------------------------
	 SCS Same-Spin Scale       =       0.3333333333333333 [-]
	 SCS Opposite-Spin Scale   =       1.2000000000000000 [-]
	 SCS Same-Spin Energy      =      -0.1598706913640600 [Eh]
	 SCS Opposite-Spin Energy  =      -1.7675218025461581 [Eh]
	 SCS Correlation Energy    =      -1.9273924939102181 [Eh]
	 SCS Total Energy          =    -475.1410887830656975 [Eh]
	-----------------------------------------------------------

  Dipole Moment: [D]
     X:     8.9641      Y:     2.6908      Z:     0.1499     Total:     9.3605

*** Psi4 exiting successfully. Buy a developer a beer!
