                               Psi4 1.3.2 release

  ==> Input File <==

--------------------------------------------------------------------------
#psi4
#
memory 32 gb

molecule  {
-1 1
  O        1.5553730    -1.4489990    -0.0078940
  O       -2.4744110     1.3948030    -0.0154550
  O       -3.5371250    -0.6067510    -0.0268560
  N       -0.0146490     0.2143920     0.0158120
  C        2.3272120     0.8379530     0.0018960
  C        1.2455030    -0.2240550     0.0044360
  C       -1.1489000    -0.6463140     0.0180560
  C        3.7164760     0.2336920    -0.0114620
  C       -2.3336864     0.0296907     0.0304909
  H        2.1647820     1.4966320    -0.8622200
  H        2.1776990     1.4878210     0.8748480
  H       -1.1517560    -1.3070500    -0.8570610
  H       -1.1395970    -1.3178250     0.8849180
  H       -0.2830670     1.1965190     0.0239890
  H        3.8663740    -0.3931470     0.8680960
  H        3.8530680    -0.3842560    -0.8995260
  H        4.4669480     1.0276640    -0.0135300
units angstrom
no_reorient  #important for SAPT in psi4, default
symmetry c1  #important for SAPT in psi4, default
}

set PROPERTIES_ORIGIN ["COM"]
properties('MP2/aug-cc-pvtz', properties = ['dipole'])
--------------------------------------------------------------------------

    Molecular point group: c1
  Charge       = -1
  Multiplicity = 1
  Basis Set: AUG-CC-PVTZ
    Blend: AUG-CC-PVTZ
  Basis Set: (AUG-CC-PVTZ AUX)
    Blend: AUG-CC-PVTZ-JKFIT

    Orbital Energies [Eh]
    ---------------------

    Doubly Occupied:

       1A    -20.400582     2A    -20.318477     3A    -20.306485
       4A    -15.461920     5A    -11.236809     6A    -11.173401
       7A    -11.143418     8A    -11.128682     9A    -11.123498
      10A     -1.245067    11A     -1.147771    12A     -1.104313
      13A     -1.021551    14A     -0.960231    15A     -0.882690
      16A     -0.779312    17A     -0.673177    18A     -0.617047
      19A     -0.560305    20A     -0.543704    21A     -0.518426
      22A     -0.507174    23A     -0.475237    24A     -0.431107
      25A     -0.426193    26A     -0.421911    27A     -0.417183
      28A     -0.385413    29A     -0.356902    30A     -0.310261
      31A     -0.307740    32A     -0.267446    33A     -0.247167
      34A     -0.200850    35A     -0.189876

  @DF-RHF Final Energy:  -473.21443596516389

   => Energetics <=

    Nuclear Repulsion Energy =            433.9955014581910859
    One-Electron Energy =               -1519.8372226175649757
    Two-Electron Energy =                 612.6272851942101170
    Total Energy =                       -473.2144359651638297
  Basis Set: (AUG-CC-PVTZ AUX)
    Blend: AUG-CC-PVTZ-RI
    Molecular point group: c1

    Geometry (in Angstrom), charge = -1, multiplicity = 1:

       Center              X                  Y                   Z               Mass
    ------------   -----------------  -----------------  -----------------  -----------------
         O            1.645631668044    -1.426103644302    -0.007579209896    15.994914619570
         O           -2.384152331956     1.417698355698    -0.015140209896    15.994914619570
         O           -3.446866331956    -0.583855644302    -0.026541209896    15.994914619570
         N            0.075609668044     0.237287355698     0.016126790104    14.003074004430
         C            2.417470668044     0.860848355698     0.002210790104    12.000000000000
         C            1.335761668044    -0.201159644302     0.004750790104    12.000000000000
         C           -1.058641331956    -0.623418644302     0.018370790104    12.000000000000
         C            3.806734668044     0.256587355698    -0.011147209896    12.000000000000
         C           -2.243427731956     0.052586055698     0.030805690104    12.000000000000
         H            2.255040668044     1.519527355698    -0.861905209896     1.007825032230
         H            2.267957668044     1.510716355698     0.875162790104     1.007825032230
         H           -1.061497331956    -1.284154644302    -0.856746209896     1.007825032230
         H           -1.049338331956    -1.294929644302     0.885232790104     1.007825032230
         H           -0.192808331956     1.219414355698     0.024303790104     1.007825032230
         H            3.956632668044    -0.370251644302     0.868410790104     1.007825032230
         H            3.943326668044    -0.361360644302    -0.899211209896     1.007825032230
         H            4.557206668044     1.050559355698    -0.013215209896     1.007825032230

  Basis Set: AUG-CC-PVTZ
    Blend: AUG-CC-PVTZ
  Basis Set: (AUG-CC-PVTZ AUX)
    Blend: AUG-CC-PVTZ-JKFIT
	 Reference Energy          =    -473.2144359651638865 [Eh]
	 Singles Energy            =      -0.0000000000000000 [Eh]
	 Same-Spin Energy          =      -0.4816926642394133 [Eh]
	 Opposite-Spin Energy      =      -1.4770139434997076 [Eh]
	 Correlation Energy        =      -1.9587066077391209 [Eh]
	 Total Energy              =    -475.1731425729030320 [Eh]

	 ================> DF-SCS-MP2 Energies <==================
	-----------------------------------------------------------
	 SCS Same-Spin Scale       =       0.3333333333333333 [-]
	 SCS Opposite-Spin Scale   =       1.2000000000000000 [-]
	 SCS Same-Spin Energy      =      -0.1605642214131378 [Eh]
	 SCS Opposite-Spin Energy  =      -1.7724167321996491 [Eh]
	 SCS Correlation Energy    =      -1.9329809536127869 [Eh]
	 SCS Total Energy          =    -475.1474169187766847 [Eh]
	-----------------------------------------------------------

  Dipole Moment: [D]
     X:    10.9487      Y:     1.0666      Z:     0.1302     Total:    11.0013

*** Psi4 exiting successfully. Buy a developer a beer!
