                               Psi4 1.3.2 release

  ==> Input File <==

--------------------------------------------------------------------------
#psi4
#
memory 32 gb

molecule  {
-1 1
  O        1.5553730    -1.4489990    -0.0078940
  O       -2.4744110     1.3948030    -0.0154550
  O       -3.5371250    -0.6067510    -0.0268560
  N       -0.0146490     0.2143920     0.0158120
  C        2.3272120     0.8379530     0.0018960
  C        1.2455030    -0.2240550     0.0044360
  C       -1.1489000    -0.6463140     0.0180560
  C        3.7164760     0.2336920    -0.0114620
  C       -2.5073920     0.1288020     0.0323140
  H        2.1647820     1.4966320    -0.8622200
  H        2.1776990     1.4878210     0.8748480
  H       -1.1517560    -1.3070500    -0.8570610
  H       -1.1395970    -1.3178250     0.8849180
  H       -0.3357921     1.3894373     0.0255952
  H        3.8663740    -0.3931470     0.8680960
  H        3.8530680    -0.3842560    -0.8995260
  H        4.4669480     1.0276640    -0.0135300
units angstrom
no_reorient  #important for SAPT in psi4, default
symmetry c1  #important for SAPT in psi4, default
}

set PROPERTIES_ORIGIN ["COM"]
properties('MP2/aug-cc-pvtz', properties = ['dipole'])
--------------------------------------------------------------------------

    Molecular point group: c1
  Charge       = -1
  Multiplicity = 1
  Basis Set: AUG-CC-PVTZ
    Blend: AUG-CC-PVTZ
  Basis Set: (AUG-CC-PVTZ AUX)
    Blend: AUG-CC-PVTZ-JKFIT

    Orbital Energies [Eh]
    ---------------------

    Doubly Occupied:

       1A    -20.387806     2A    -20.326659     3A    -20.312615
       4A    -15.460492     5A    -11.223584     6A    -11.166485
       7A    -11.134691     8A    -11.121913     9A    -11.108899
      10A     -1.230478    11A     -1.189226    12A     -1.089750
      13A     -1.079474    14A     -0.949606    15A     -0.833695
      16A     -0.754294    17A     -0.624395    18A     -0.578107
      19A     -0.543526    20A     -0.532367    21A     -0.504206
      22A     -0.481867    23A     -0.470895    24A     -0.424154
      25A     -0.419921    26A     -0.415206    27A     -0.411936
      28A     -0.384383    29A     -0.378511    30A     -0.344801
      31A     -0.299624    32A     -0.252770    33A     -0.237969
      34A     -0.226122    35A     -0.215597

  @DF-RHF Final Energy:  -473.25297030033761

   => Energetics <=

    Nuclear Repulsion Energy =            432.4157523098676279
    One-Electron Energy =               -1517.1053968251712831
    Two-Electron Energy =                 611.4366742149660467
    Total Energy =                       -473.2529703003375516
  Basis Set: (AUG-CC-PVTZ AUX)
    Blend: AUG-CC-PVTZ-RI
    Molecular point group: c1

    Geometry (in Angstrom), charge = -1, multiplicity = 1:

       Center              X                  Y                   Z               Mass
    ------------   -----------------  -----------------  -----------------  -----------------
         O            1.662068407783    -1.436743852245    -0.007759878047    15.994914619570
         O           -2.367715592217     1.407058147755    -0.015320878047    15.994914619570
         O           -3.430429592217    -0.594495852245    -0.026721878047    15.994914619570
         N            0.092046407783     0.226647147755     0.015946121953    14.003074004430
         C            2.433907407783     0.850208147755     0.002030121953    12.000000000000
         C            1.352198407783    -0.211799852245     0.004570121953    12.000000000000
         C           -1.042204592217    -0.634058852245     0.018190121953    12.000000000000
         C            3.823171407783     0.245947147755    -0.011327878047    12.000000000000
         C           -2.400696592217     0.141057147755     0.032448121953    12.000000000000
         H            2.271477407783     1.508887147755    -0.862085878047     1.007825032230
         H            2.284394407783     1.500076147755     0.874982121953     1.007825032230
         H           -1.045060592217    -1.294794852245    -0.856926878047     1.007825032230
         H           -1.032901592217    -1.305569852245     0.885052121953     1.007825032230
         H           -0.229096692217     1.401692447755     0.025729321953     1.007825032230
         H            3.973069407783    -0.380891852245     0.868230121953     1.007825032230
         H            3.959763407783    -0.372000852245    -0.899391878047     1.007825032230
         H            4.573643407783     1.039919147755    -0.013395878047     1.007825032230

  Basis Set: AUG-CC-PVTZ
    Blend: AUG-CC-PVTZ
  Basis Set: (AUG-CC-PVTZ AUX)
    Blend: AUG-CC-PVTZ-JKFIT
	 Reference Energy          =    -473.2529703003376085 [Eh]
	 Singles Energy            =      -0.0000000000000000 [Eh]
	 Same-Spin Energy          =      -0.4784425239040125 [Eh]
	 Opposite-Spin Energy      =      -1.4700858667437791 [Eh]
	 Correlation Energy        =      -1.9485283906477915 [Eh]
	 Total Energy              =    -475.2014986909853747 [Eh]

	 ================> DF-SCS-MP2 Energies <==================
	-----------------------------------------------------------
	 SCS Same-Spin Scale       =       0.3333333333333333 [-]
	 SCS Opposite-Spin Scale   =       1.2000000000000000 [-]
	 SCS Same-Spin Energy      =      -0.1594808413013375 [Eh]
	 SCS Opposite-Spin Energy  =      -1.7641030400925348 [Eh]
	 SCS Correlation Energy    =      -1.9235838813938724 [Eh]
	 SCS Total Energy          =    -475.1765541817314897 [Eh]
	-----------------------------------------------------------

  Dipole Moment: [D]
     X:     9.4984      Y:     1.7633      Z:     0.1373     Total:     9.6617

*** Psi4 exiting successfully. Buy a developer a beer!
