                               Psi4 1.3.2 release

  ==> Input File <==

--------------------------------------------------------------------------
#psi4
#
memory 32 gb

molecule  {
0 1
  O       -1.4055500    -1.0035560    -0.0001340
  N       -0.2319130     1.0048570     0.0000670
  C        1.1804460     0.6184860    -0.0000090
  C        1.4443320    -0.8809630     0.0000140
  C       -1.3478080     0.2225470     0.0001080
  H        1.6527880     1.0692100    -0.8813440
  H        1.6528850     1.0692530     0.8812520
  H        1.0221490    -1.3629470     0.8804920
  H        1.0220490    -1.3629920    -0.8803930
  H        2.5284630    -1.0297260    -0.0000450
  H       -0.4113470     2.0016670     0.0000610
  H       -2.2610150     0.8495590    -0.0000980
units angstrom
no_reorient  #important for SAPT in psi4, default
symmetry c1  #important for SAPT in psi4, default
}

set PROPERTIES_ORIGIN ["COM"]
properties('MP2/aug-cc-pvtz', properties = ['dipole'])
--------------------------------------------------------------------------

    Molecular point group: c1
  Charge       = 0
  Multiplicity = 1
  Basis Set: AUG-CC-PVTZ
    Blend: AUG-CC-PVTZ
  Basis Set: (AUG-CC-PVTZ AUX)
    Blend: AUG-CC-PVTZ-JKFIT

    Orbital Energies [Eh]
    ---------------------

    Doubly Occupied:

       1A    -20.520311     2A    -15.595376     3A    -11.352667
       4A    -11.275756     5A    -11.214826     6A     -1.370101
       7A     -1.235377     8A     -1.026772     9A     -0.888527
      10A     -0.779184    11A     -0.739671    12A     -0.647442
      13A     -0.636869    14A     -0.600926    15A     -0.547665
      16A     -0.534088    17A     -0.521154    18A     -0.509504
      19A     -0.421815    20A     -0.391293

  @DF-RHF Final Energy:  -247.08641985182825

   => Energetics <=

    Nuclear Repulsion Energy =            179.4022527238377336
    One-Electron Energy =                -691.3586943926650292
    Two-Electron Energy =                 264.8700218169990421
    Total Energy =                       -247.0864198518282819
  Basis Set: (AUG-CC-PVTZ AUX)
    Blend: AUG-CC-PVTZ-RI
    Molecular point group: c1

    Geometry (in Angstrom), charge = 0, multiplicity = 1:

       Center              X                  Y                   Z               Mass
    ------------   -----------------  -----------------  -----------------  -----------------
         O           -1.334932572615    -0.986907960153    -0.000135030769    15.994914619570
         N           -0.161295572615     1.021505039847     0.000065969231    14.003074004430
         C            1.251063427385     0.635134039847    -0.000010030769    12.000000000000
         C            1.514949427385    -0.864314960153     0.000012969231    12.000000000000
         C           -1.277190572615     0.239195039847     0.000106969231    12.000000000000
         H            1.723405427385     1.085858039847    -0.881345030769     1.007825032230
         H            1.723502427385     1.085901039847     0.881250969231     1.007825032230
         H            1.092766427385    -1.346298960153     0.880490969231     1.007825032230
         H            1.092666427385    -1.346343960153    -0.880394030769     1.007825032230
         H            2.599080427385    -1.013077960153    -0.000046030769     1.007825032230
         H           -0.340729572615     2.018315039847     0.000059969231     1.007825032230
         H           -2.190397572615     0.866207039847    -0.000099030769     1.007825032230

  Basis Set: AUG-CC-PVTZ
    Blend: AUG-CC-PVTZ
  Basis Set: (AUG-CC-PVTZ AUX)
    Blend: AUG-CC-PVTZ-JKFIT
	 Reference Energy          =    -247.0864198518282535 [Eh]
	 Singles Energy            =      -0.0000000000000000 [Eh]
	 Same-Spin Energy          =      -0.2462706034885510 [Eh]
	 Opposite-Spin Energy      =      -0.8123968589102999 [Eh]
	 Correlation Energy        =      -1.0586674623988510 [Eh]
	 Total Energy              =    -248.1450873142271121 [Eh]

	 ================> DF-SCS-MP2 Energies <==================
	-----------------------------------------------------------
	 SCS Same-Spin Scale       =       0.3333333333333333 [-]
	 SCS Opposite-Spin Scale   =       1.2000000000000000 [-]
	 SCS Same-Spin Energy      =      -0.0820902011628503 [Eh]
	 SCS Opposite-Spin Energy  =      -0.9748762306923598 [Eh]
	 SCS Correlation Energy    =      -1.0569664318552101 [Eh]
	 SCS Total Energy          =    -248.1433862836834692 [Eh]
	-----------------------------------------------------------

  Dipole Moment: [D]
     X:     1.7792      Y:     3.4459      Z:     0.0002     Total:     3.8781

*** Psi4 exiting successfully. Buy a developer a beer!
