                               Psi4 1.3.2 release

  ==> Input File <==

--------------------------------------------------------------------------
#psi4
#
memory 32 gb

molecule  {
0 1
  O       -1.4055500    -1.0035560    -0.0001340
  N       -0.2554244     0.9053946     0.0000710
  C        1.1804460     0.6184860    -0.0000090
  C        1.4443320    -0.8809630     0.0000140
  C       -1.3478080     0.2225470     0.0001080
  H        1.6527880     1.0692100    -0.8813440
  H        1.6528850     1.0692530     0.8812520
  H        1.0221490    -1.3629470     0.8804920
  H        1.0220490    -1.3629920    -0.8803930
  H        2.5284630    -1.0297260    -0.0000450
  H       -0.4113470     2.0016670     0.0000610
  H       -2.2610150     0.8495590    -0.0000980
units angstrom
no_reorient  #important for SAPT in psi4, default
symmetry c1  #important for SAPT in psi4, default
}

set PROPERTIES_ORIGIN ["COM"]
properties('MP2/aug-cc-pvtz', properties = ['dipole'])
--------------------------------------------------------------------------

    Molecular point group: c1
  Charge       = 0
  Multiplicity = 1
  Basis Set: AUG-CC-PVTZ
    Blend: AUG-CC-PVTZ
  Basis Set: (AUG-CC-PVTZ AUX)
    Blend: AUG-CC-PVTZ-JKFIT

    Orbital Energies [Eh]
    ---------------------

    Doubly Occupied:

       1A    -20.503288     2A    -15.604592     3A    -11.340124
       4A    -11.282398     5A    -11.213942     6A     -1.369721
       7A     -1.240619     8A     -1.036062     9A     -0.894597
      10A     -0.770080    11A     -0.733992    12A     -0.654192
      13A     -0.645960    14A     -0.589405    15A     -0.554537
      16A     -0.532990    17A     -0.509225    18A     -0.509111
      19A     -0.415640    20A     -0.390849

  @DF-RHF Final Energy:  -247.07159029083863

   => Energetics <=

    Nuclear Repulsion Energy =            180.8584985786007451
    One-Electron Energy =                -694.2775278343749505
    Two-Electron Energy =                 266.3474389649355203
    Total Energy =                       -247.0715902908386283
  Basis Set: (AUG-CC-PVTZ AUX)
    Blend: AUG-CC-PVTZ-RI
    Molecular point group: c1

    Geometry (in Angstrom), charge = 0, multiplicity = 1:

       Center              X                  Y                   Z               Mass
    ------------   -----------------  -----------------  -----------------  -----------------
         O           -1.330425804400    -0.967842571323    -0.000135797507    15.994914619570
         N           -0.180300204400     0.941108028677     0.000069202493    14.003074004430
         C            1.255570195600     0.654199428677    -0.000010797507    12.000000000000
         C            1.519456195600    -0.845249571323     0.000012202493    12.000000000000
         C           -1.272683804400     0.258260428677     0.000106202493    12.000000000000
         H            1.727912195600     1.104923428677    -0.881345797507     1.007825032230
         H            1.728009195600     1.104966428677     0.881250202493     1.007825032230
         H            1.097273195600    -1.327233571323     0.880490202493     1.007825032230
         H            1.097173195600    -1.327278571323    -0.880394797507     1.007825032230
         H            2.603587195600    -0.994012571323    -0.000046797507     1.007825032230
         H           -0.336222804400     2.037380428677     0.000059202493     1.007825032230
         H           -2.185890804400     0.885272428677    -0.000099797507     1.007825032230

  Basis Set: AUG-CC-PVTZ
    Blend: AUG-CC-PVTZ
  Basis Set: (AUG-CC-PVTZ AUX)
    Blend: AUG-CC-PVTZ-JKFIT
	 Reference Energy          =    -247.0715902908386283 [Eh]
	 Singles Energy            =      -0.0000000000000000 [Eh]
	 Same-Spin Energy          =      -0.2467635217832545 [Eh]
	 Opposite-Spin Energy      =      -0.8129642114067337 [Eh]
	 Correlation Energy        =      -1.0597277331899881 [Eh]
	 Total Energy              =    -248.1313180240286158 [Eh]

	 ================> DF-SCS-MP2 Energies <==================
	-----------------------------------------------------------
	 SCS Same-Spin Scale       =       0.3333333333333333 [-]
	 SCS Opposite-Spin Scale   =       1.2000000000000000 [-]
	 SCS Same-Spin Energy      =      -0.0822545072610848 [Eh]
	 SCS Opposite-Spin Energy  =      -0.9755570536880804 [Eh]
	 SCS Correlation Energy    =      -1.0578115609491652 [Eh]
	 SCS Total Energy          =    -248.1294018517878044 [Eh]
	-----------------------------------------------------------

  Dipole Moment: [D]
     X:     2.0700      Y:     3.7760      Z:     0.0002     Total:     4.3062

*** Psi4 exiting successfully. Buy a developer a beer!
