                               Psi4 1.3.2 release

  ==> Input File <==

--------------------------------------------------------------------------
#psi4
#
memory 32 gb

molecule  {
0 1
  O       -1.4055500    -1.0035560    -0.0001340
  N       -0.2445368     0.9553310     0.0000691
  C        1.1804460     0.6184860    -0.0000090
  C        1.4443320    -0.8809630     0.0000140
  C       -1.3478080     0.2225470     0.0001080
  H        1.6527880     1.0692100    -0.8813440
  H        1.6528850     1.0692530     0.8812520
  H        1.0221490    -1.3629470     0.8804920
  H        1.0220490    -1.3629920    -0.8803930
  H        2.5284630    -1.0297260    -0.0000450
  H       -0.4113470     2.0016670     0.0000610
  H       -2.2610150     0.8495590    -0.0000980
units angstrom
no_reorient  #important for SAPT in psi4, default
symmetry c1  #important for SAPT in psi4, default
}

set PROPERTIES_ORIGIN ["COM"]
properties('MP2/aug-cc-pvtz', properties = ['dipole'])
--------------------------------------------------------------------------

    Molecular point group: c1
  Charge       = 0
  Multiplicity = 1
  Basis Set: AUG-CC-PVTZ
    Blend: AUG-CC-PVTZ
  Basis Set: (AUG-CC-PVTZ AUX)
    Blend: AUG-CC-PVTZ-JKFIT

    Orbital Energies [Eh]
    ---------------------

    Doubly Occupied:

       1A    -20.511731     2A    -15.600180     3A    -11.346329
       4A    -11.278841     5A    -11.214293     6A     -1.369114
       7A     -1.238143     8A     -1.031005     9A     -0.891880
      10A     -0.772778    11A     -0.738113    12A     -0.650628
      13A     -0.641445    14A     -0.595156    15A     -0.550783
      16A     -0.532673    17A     -0.516712    18A     -0.509107
      19A     -0.418984    20A     -0.391342

  @DF-RHF Final Energy:  -247.08268802469308

   => Energetics <=

    Nuclear Repulsion Energy =            180.1185291000534505
    One-Electron Energy =                -692.8039571549481934
    Two-Electron Energy =                 265.6027400302016304
    Total Energy =                       -247.0826880246930841
  Basis Set: (AUG-CC-PVTZ AUX)
    Blend: AUG-CC-PVTZ-RI
    Molecular point group: c1

    Geometry (in Angstrom), charge = 0, multiplicity = 1:

       Center              X                  Y                   Z               Mass
    ------------   -----------------  -----------------  -----------------  -----------------
         O           -1.332512787294    -0.977414599374    -0.000135433306    15.994914619570
         N           -0.171499587294     0.981472400626     0.000067666694    14.003074004430
         C            1.253483212706     0.644627400626    -0.000010433306    12.000000000000
         C            1.517369212706    -0.854821599374     0.000012566694    12.000000000000
         C           -1.274770787294     0.248688400626     0.000106566694    12.000000000000
         H            1.725825212706     1.095351400626    -0.881345433306     1.007825032230
         H            1.725922212706     1.095394400626     0.881250566694     1.007825032230
         H            1.095186212706    -1.336805599374     0.880490566694     1.007825032230
         H            1.095086212706    -1.336850599374    -0.880394433306     1.007825032230
         H            2.601500212706    -1.003584599374    -0.000046433306     1.007825032230
         H           -0.338309787294     2.027808400626     0.000059566694     1.007825032230
         H           -2.187977787294     0.875700400626    -0.000099433306     1.007825032230

  Basis Set: AUG-CC-PVTZ
    Blend: AUG-CC-PVTZ
  Basis Set: (AUG-CC-PVTZ AUX)
    Blend: AUG-CC-PVTZ-JKFIT
	 Reference Energy          =    -247.0826880246930841 [Eh]
	 Singles Energy            =      -0.0000000000000000 [Eh]
	 Same-Spin Energy          =      -0.2464582195160591 [Eh]
	 Opposite-Spin Energy      =      -0.8124891892343618 [Eh]
	 Correlation Energy        =      -1.0589474087504209 [Eh]
	 Total Energy              =    -248.1416354334434970 [Eh]

	 ================> DF-SCS-MP2 Energies <==================
	-----------------------------------------------------------
	 SCS Same-Spin Scale       =       0.3333333333333333 [-]
	 SCS Opposite-Spin Scale   =       1.2000000000000000 [-]
	 SCS Same-Spin Energy      =      -0.0821527398386864 [Eh]
	 SCS Opposite-Spin Energy  =      -0.9749870270812341 [Eh]
	 SCS Correlation Energy    =      -1.0571397669199205 [Eh]
	 SCS Total Energy          =    -248.1398277916130155 [Eh]
	-----------------------------------------------------------

  Dipole Moment: [D]
     X:     1.9255      Y:     3.6205      Z:     0.0002     Total:     4.1006

*** Psi4 exiting successfully. Buy a developer a beer!
