                               Psi4 1.3.2 release

  ==> Input File <==

--------------------------------------------------------------------------
#psi4
#
memory 32 gb

molecule  {
0 1
  O       -1.4055500    -1.0035560    -0.0001340
  N       -0.2015207     1.1024370     0.0000626
  C        1.1804460     0.6184860    -0.0000090
  C        1.4443320    -0.8809630     0.0000140
  C       -1.3478080     0.2225470     0.0001080
  H        1.6527880     1.0692100    -0.8813440
  H        1.6528850     1.0692530     0.8812520
  H        1.0221490    -1.3629470     0.8804920
  H        1.0220490    -1.3629920    -0.8803930
  H        2.5284630    -1.0297260    -0.0000450
  H       -0.4113470     2.0016670     0.0000610
  H       -2.2610150     0.8495590    -0.0000980
units angstrom
no_reorient  #important for SAPT in psi4, default
symmetry c1  #important for SAPT in psi4, default
}

set PROPERTIES_ORIGIN ["COM"]
properties('MP2/aug-cc-pvtz', properties = ['dipole'])
--------------------------------------------------------------------------

    Molecular point group: c1
  Charge       = 0
  Multiplicity = 1
  Basis Set: AUG-CC-PVTZ
    Blend: AUG-CC-PVTZ
  Basis Set: (AUG-CC-PVTZ AUX)
    Blend: AUG-CC-PVTZ-JKFIT

    Orbital Energies [Eh]
    ---------------------

    Doubly Occupied:

       1A    -20.537222     2A    -15.584635     3A    -11.364940
       4A    -11.271136     5A    -11.216395     6A     -1.375359
       7A     -1.230654     8A     -1.021582     9A     -0.880482
      10A     -0.798803    11A     -0.736863    12A     -0.642229
      13A     -0.630569    14A     -0.609754    15A     -0.543376
      16A     -0.541471    17A     -0.522276    18A     -0.511359
      19A     -0.424977    20A     -0.389562

  @DF-RHF Final Energy:  -247.07000579961846

   => Energetics <=

    Nuclear Repulsion Energy =            178.0593266744994594
    One-Electron Energy =                -688.5913755436160955
    Two-Electron Energy =                 263.4620430694981792
    Total Energy =                       -247.0700057996184569
  Basis Set: (AUG-CC-PVTZ AUX)
    Blend: AUG-CC-PVTZ-RI
    Molecular point group: c1

    Geometry (in Angstrom), charge = 0, multiplicity = 1:

       Center              X                  Y                   Z               Mass
    ------------   -----------------  -----------------  -----------------  -----------------
         O           -1.340758301905    -1.005612522299    -0.000134187358    15.994914619570
         N           -0.136729001905     1.100380477701     0.000062412642    14.003074004430
         C            1.245237698095     0.616429477701    -0.000009187358    12.000000000000
         C            1.509123698095    -0.883019522299     0.000013812642    12.000000000000
         C           -1.283016301905     0.220490477701     0.000107812642    12.000000000000
         H            1.717579698095     1.067153477701    -0.881344187358     1.007825032230
         H            1.717676698095     1.067196477701     0.881251812642     1.007825032230
         H            1.086940698095    -1.365003522299     0.880491812642     1.007825032230
         H            1.086840698095    -1.365048522299    -0.880393187358     1.007825032230
         H            2.593254698095    -1.031782522299    -0.000045187358     1.007825032230
         H           -0.346555301905     1.999610477701     0.000060812642     1.007825032230
         H           -2.196223301905     0.847502477701    -0.000098187358     1.007825032230

  Basis Set: AUG-CC-PVTZ
    Blend: AUG-CC-PVTZ
  Basis Set: (AUG-CC-PVTZ AUX)
    Blend: AUG-CC-PVTZ-JKFIT
	 Reference Energy          =    -247.0700057996184569 [Eh]
	 Singles Energy            =      -0.0000000000000000 [Eh]
	 Same-Spin Energy          =      -0.2462443828762020 [Eh]
	 Opposite-Spin Energy      =      -0.8133650419365377 [Eh]
	 Correlation Energy        =      -1.0596094248127397 [Eh]
	 Total Energy              =    -248.1296152244312054 [Eh]

	 ================> DF-SCS-MP2 Energies <==================
	-----------------------------------------------------------
	 SCS Same-Spin Scale       =       0.3333333333333333 [-]
	 SCS Opposite-Spin Scale   =       1.2000000000000000 [-]
	 SCS Same-Spin Energy      =      -0.0820814609587340 [Eh]
	 SCS Opposite-Spin Energy  =      -0.9760380503238452 [Eh]
	 SCS Correlation Energy    =      -1.0581195112825792 [Eh]
	 SCS Total Energy          =    -248.1281253109010265 [Eh]
	-----------------------------------------------------------

  Dipole Moment: [D]
     X:     1.4853      Y:     3.0563      Z:     0.0002     Total:     3.3981

*** Psi4 exiting successfully. Buy a developer a beer!
