                               Psi4 1.3.2 release

  ==> Input File <==

--------------------------------------------------------------------------
#psi4
#
memory 32 gb

molecule  {
0 1
  O       -1.4055500    -1.0035560    -0.0001340
  N       -0.2645627     0.8551087     0.0000729
  C        1.1804460     0.6184860    -0.0000090
  C        1.4443320    -0.8809630     0.0000140
  C       -1.3478080     0.2225470     0.0001080
  H        1.6527880     1.0692100    -0.8813440
  H        1.6528850     1.0692530     0.8812520
  H        1.0221490    -1.3629470     0.8804920
  H        1.0220490    -1.3629920    -0.8803930
  H        2.5284630    -1.0297260    -0.0000450
  H       -0.4113470     2.0016670     0.0000610
  H       -2.2610150     0.8495590    -0.0000980
units angstrom
no_reorient  #important for SAPT in psi4, default
symmetry c1  #important for SAPT in psi4, default
}

set PROPERTIES_ORIGIN ["COM"]
properties('MP2/aug-cc-pvtz', properties = ['dipole'])
--------------------------------------------------------------------------

    Molecular point group: c1
  Charge       = 0
  Multiplicity = 1
  Basis Set: AUG-CC-PVTZ
    Blend: AUG-CC-PVTZ
  Basis Set: (AUG-CC-PVTZ AUX)
    Blend: AUG-CC-PVTZ-JKFIT

    Orbital Energies [Eh]
    ---------------------

    Doubly Occupied:

       1A    -20.495178     2A    -15.608667     3A    -11.334267
       4A    -11.286386     5A    -11.213784     6A     -1.372219
       7A     -1.242416     8A     -1.041696     9A     -0.896674
      10A     -0.770418    11A     -0.728625    12A     -0.658124
      13A     -0.649903    14A     -0.583993    15A     -0.558884
      16A     -0.534087    17A     -0.509510    18A     -0.499569
      19A     -0.412001    20A     -0.389901

  @DF-RHF Final Energy:  -247.05365588606949

   => Energetics <=

    Nuclear Repulsion Energy =            181.6158483130836316
    One-Electron Energy =                -695.7664090157156807
    Two-Electron Energy =                 267.0969048165624713
    Total Energy =                       -247.0536558860695209
  Basis Set: (AUG-CC-PVTZ AUX)
    Blend: AUG-CC-PVTZ-RI
    Molecular point group: c1

    Geometry (in Angstrom), charge = 0, multiplicity = 1:

       Center              X                  Y                   Z               Mass
    ------------   -----------------  -----------------  -----------------  -----------------
         O           -1.328674134998    -0.958203549581    -0.000136161707    15.994914619570
         N           -0.187686834998     0.900461150419     0.000070738293    14.003074004430
         C            1.257321865002     0.663838450419    -0.000011161707    12.000000000000
         C            1.521207865002    -0.835610549581     0.000011838293    12.000000000000
         C           -1.270932134998     0.267899450419     0.000105838293    12.000000000000
         H            1.729663865002     1.114562450419    -0.881346161707     1.007825032230
         H            1.729760865002     1.114605450419     0.881249838293     1.007825032230
         H            1.099024865002    -1.317594549581     0.880489838293     1.007825032230
         H            1.098924865002    -1.317639549581    -0.880395161707     1.007825032230
         H            2.605338865002    -0.984373549581    -0.000047161707     1.007825032230
         H           -0.334471134998     2.047019450419     0.000058838293     1.007825032230
         H           -2.184139134998     0.894911450419    -0.000100161707     1.007825032230

  Basis Set: AUG-CC-PVTZ
    Blend: AUG-CC-PVTZ
  Basis Set: (AUG-CC-PVTZ AUX)
    Blend: AUG-CC-PVTZ-JKFIT
	 Reference Energy          =    -247.0536558860694925 [Eh]
	 Singles Energy            =      -0.0000000000000000 [Eh]
	 Same-Spin Energy          =      -0.2471920238689584 [Eh]
	 Opposite-Spin Energy      =      -0.8138181549123088 [Eh]
	 Correlation Energy        =      -1.0610101787812671 [Eh]
	 Total Energy              =    -248.1146660648507520 [Eh]

	 ================> DF-SCS-MP2 Energies <==================
	-----------------------------------------------------------
	 SCS Same-Spin Scale       =       0.3333333333333333 [-]
	 SCS Opposite-Spin Scale   =       1.2000000000000000 [-]
	 SCS Same-Spin Energy      =      -0.0823973412896528 [Eh]
	 SCS Opposite-Spin Energy  =      -0.9765817858947705 [Eh]
	 SCS Correlation Energy    =      -1.0589791271844233 [Eh]
	 SCS Total Energy          =    -248.1126350132539073 [Eh]
	-----------------------------------------------------------

  Dipole Moment: [D]
     X:     2.2114      Y:     3.9068      Z:     0.0002     Total:     4.4892

*** Psi4 exiting successfully. Buy a developer a beer!
