                               Psi4 1.3.2 release

  ==> Input File <==

--------------------------------------------------------------------------
#psi4
#
memory 32 gb

molecule  {
0 1
  O       -1.4055500    -1.0035560    -0.0001340
  N       -0.2175685     1.0539123     0.0000648
  C        1.1804460     0.6184860    -0.0000090
  C        1.4443320    -0.8809630     0.0000140
  C       -1.3478080     0.2225470     0.0001080
  H        1.6527880     1.0692100    -0.8813440
  H        1.6528850     1.0692530     0.8812520
  H        1.0221490    -1.3629470     0.8804920
  H        1.0220490    -1.3629920    -0.8803930
  H        2.5284630    -1.0297260    -0.0000450
  H       -0.4113470     2.0016670     0.0000610
  H       -2.2610150     0.8495590    -0.0000980
units angstrom
no_reorient  #important for SAPT in psi4, default
symmetry c1  #important for SAPT in psi4, default
}

set PROPERTIES_ORIGIN ["COM"]
properties('MP2/aug-cc-pvtz', properties = ['dipole'])
--------------------------------------------------------------------------

    Molecular point group: c1
  Charge       = 0
  Multiplicity = 1
  Basis Set: AUG-CC-PVTZ
    Blend: AUG-CC-PVTZ
  Basis Set: (AUG-CC-PVTZ AUX)
    Blend: AUG-CC-PVTZ-JKFIT

    Orbital Energies [Eh]
    ---------------------

    Doubly Occupied:

       1A    -20.528858     2A    -15.590178     3A    -11.358933
       4A    -11.273176     5A    -11.215530     6A     -1.372308
       7A     -1.232753     8A     -1.023583     9A     -0.884645
      10A     -0.788360    11A     -0.738966    12A     -0.644640
      13A     -0.632884    14A     -0.606142    15A     -0.545199
      16A     -0.537478    17A     -0.522480    18A     -0.510275
      19A     -0.423895    20A     -0.390685

  @DF-RHF Final Energy:  -247.08232740649666

   => Energetics <=

    Nuclear Repulsion Energy =            178.7146488627493000
    One-Electron Energy =                -689.9520115343277666
    Two-Electron Energy =                 264.1550352650818354
    Total Energy =                       -247.0823274064966313
  Basis Set: (AUG-CC-PVTZ AUX)
    Blend: AUG-CC-PVTZ-RI
    Molecular point group: c1

    Geometry (in Angstrom), charge = 0, multiplicity = 1:

       Center              X                  Y                   Z               Mass
    ------------   -----------------  -----------------  -----------------  -----------------
         O           -1.337682189255    -0.996311095093    -0.000134609063    15.994914619570
         N           -0.149700689255     1.061157204907     0.000064190937    14.003074004430
         C            1.248313810745     0.625730904907    -0.000009609063    12.000000000000
         C            1.512199810745    -0.873718095093     0.000013390937    12.000000000000
         C           -1.279940189255     0.229791904907     0.000107390937    12.000000000000
         H            1.720655810745     1.076454904907    -0.881344609063     1.007825032230
         H            1.720752810745     1.076497904907     0.881251390937     1.007825032230
         H            1.090016810745    -1.355702095093     0.880491390937     1.007825032230
         H            1.089916810745    -1.355747095093    -0.880393609063     1.007825032230
         H            2.596330810745    -1.022481095093    -0.000045609063     1.007825032230
         H           -0.343479189255     2.008911904907     0.000060390937     1.007825032230
         H           -2.193147189255     0.856803904907    -0.000098609063     1.007825032230

  Basis Set: AUG-CC-PVTZ
    Blend: AUG-CC-PVTZ
  Basis Set: (AUG-CC-PVTZ AUX)
    Blend: AUG-CC-PVTZ-JKFIT
	 Reference Energy          =    -247.0823274064966597 [Eh]
	 Singles Energy            =      -0.0000000000000000 [Eh]
	 Same-Spin Energy          =      -0.2461991760818277 [Eh]
	 Opposite-Spin Energy      =      -0.8126901636190227 [Eh]
	 Correlation Energy        =      -1.0588893397008503 [Eh]
	 Total Energy              =    -248.1412167461975002 [Eh]

	 ================> DF-SCS-MP2 Energies <==================
	-----------------------------------------------------------
	 SCS Same-Spin Scale       =       0.3333333333333333 [-]
	 SCS Opposite-Spin Scale   =       1.2000000000000000 [-]
	 SCS Same-Spin Energy      =      -0.0820663920272759 [Eh]
	 SCS Opposite-Spin Energy  =      -0.9752281963428272 [Eh]
	 SCS Correlation Energy    =      -1.0572945883701030 [Eh]
	 SCS Total Energy          =    -248.1396219948667579 [Eh]
	-----------------------------------------------------------

  Dipole Moment: [D]
     X:     1.6322      Y:     3.2568      Z:     0.0002     Total:     3.6429

*** Psi4 exiting successfully. Buy a developer a beer!
