                               Psi4 1.3.2 release

  ==> Input File <==

--------------------------------------------------------------------------
#psi4
#
memory 32 gb

molecule  {
0 1
  O       -1.4055500    -1.0035560    -0.0001340
  N       -0.2249548     1.0294472     0.0000659
  C        1.1804460     0.6184860    -0.0000090
  C        1.4443320    -0.8809630     0.0000140
  C       -1.3478080     0.2225470     0.0001080
  H        1.6527880     1.0692100    -0.8813440
  H        1.6528850     1.0692530     0.8812520
  H        1.0221490    -1.3629470     0.8804920
  H        1.0220490    -1.3629920    -0.8803930
  H        2.5284630    -1.0297260    -0.0000450
  H       -0.4113470     2.0016670     0.0000610
  H       -2.2610150     0.8495590    -0.0000980
units angstrom
no_reorient  #important for SAPT in psi4, default
symmetry c1  #important for SAPT in psi4, default
}

set PROPERTIES_ORIGIN ["COM"]
properties('MP2/aug-cc-pvtz', properties = ['dipole'])
--------------------------------------------------------------------------

    Molecular point group: c1
  Charge       = 0
  Multiplicity = 1
  Basis Set: AUG-CC-PVTZ
    Blend: AUG-CC-PVTZ
  Basis Set: (AUG-CC-PVTZ AUX)
    Blend: AUG-CC-PVTZ-JKFIT

    Orbital Energies [Eh]
    ---------------------

    Doubly Occupied:

       1A    -20.524598     2A    -15.592825     3A    -11.355821
       4A    -11.274400     5A    -11.215157     6A     -1.371076
       7A     -1.234021     8A     -1.025036     9A     -0.886641
      10A     -0.783524    11A     -0.739543    12A     -0.645993
      13A     -0.634749    14A     -0.603655    15A     -0.546350
      16A     -0.535611    17A     -0.522118    18A     -0.509846
      19A     -0.422965    20A     -0.391058

  @DF-RHF Final Energy:  -247.08537823338889

   => Energetics <=

    Nuclear Repulsion Energy =            179.0546091133680875
    One-Electron Energy =                -690.6499985295708939
    Two-Electron Energy =                 264.5100111828139120
    Total Energy =                       -247.0853782333888944
  Basis Set: (AUG-CC-PVTZ AUX)
    Blend: AUG-CC-PVTZ-RI
    Molecular point group: c1

    Geometry (in Angstrom), charge = 0, multiplicity = 1:

       Center              X                  Y                   Z               Mass
    ------------   -----------------  -----------------  -----------------  -----------------
         O           -1.336266350892    -0.991621517481    -0.000134819916    15.994914619570
         N           -0.155671150892     1.041381682519     0.000065080084    14.003074004430
         C            1.249729649108     0.630420482519    -0.000009819916    12.000000000000
         C            1.513615649108    -0.869028517481     0.000013180084    12.000000000000
         C           -1.278524350892     0.234481482519     0.000107180084    12.000000000000
         H            1.722071649108     1.081144482519    -0.881344819916     1.007825032230
         H            1.722168649108     1.081187482519     0.881251180084     1.007825032230
         H            1.091432649108    -1.351012517481     0.880491180084     1.007825032230
         H            1.091332649108    -1.351057517481    -0.880393819916     1.007825032230
         H            2.597746649108    -1.017791517481    -0.000045819916     1.007825032230
         H           -0.342063350892     2.013601482519     0.000060180084     1.007825032230
         H           -2.191731350892     0.861493482519    -0.000098819916     1.007825032230

  Basis Set: AUG-CC-PVTZ
    Blend: AUG-CC-PVTZ
  Basis Set: (AUG-CC-PVTZ AUX)
    Blend: AUG-CC-PVTZ-JKFIT
	 Reference Energy          =    -247.0853782333888944 [Eh]
	 Singles Energy            =      -0.0000000000000000 [Eh]
	 Same-Spin Energy          =      -0.2462203565435834 [Eh]
	 Opposite-Spin Energy      =      -0.8124953518378375 [Eh]
	 Correlation Energy        =      -1.0587157083814209 [Eh]
	 Total Energy              =    -248.1440939417703078 [Eh]

	 ================> DF-SCS-MP2 Energies <==================
	-----------------------------------------------------------
	 SCS Same-Spin Scale       =       0.3333333333333333 [-]
	 SCS Opposite-Spin Scale   =       1.2000000000000000 [-]
	 SCS Same-Spin Energy      =      -0.0820734521811945 [Eh]
	 SCS Opposite-Spin Energy  =      -0.9749944222054050 [Eh]
	 SCS Correlation Energy    =      -1.0570678743865995 [Eh]
	 SCS Total Energy          =    -248.1424461077754984 [Eh]
	-----------------------------------------------------------

  Dipole Moment: [D]
     X:     1.7057      Y:     3.3529      Z:     0.0002     Total:     3.7619

*** Psi4 exiting successfully. Buy a developer a beer!
