                               Psi4 1.3.2 release

  ==> Input File <==

--------------------------------------------------------------------------
#psi4
#
memory 32 gb

molecule  {
0 1
  O       -1.4055500    -1.0035560    -0.0001340
  N       -0.2384410     0.9801491     0.0000680
  C        1.1804460     0.6184860    -0.0000090
  C        1.4443320    -0.8809630     0.0000140
  C       -1.3478080     0.2225470     0.0001080
  H        1.6527880     1.0692100    -0.8813440
  H        1.6528850     1.0692530     0.8812520
  H        1.0221490    -1.3629470     0.8804920
  H        1.0220490    -1.3629920    -0.8803930
  H        2.5284630    -1.0297260    -0.0000450
  H       -0.4113470     2.0016670     0.0000610
  H       -2.2610150     0.8495590    -0.0000980
units angstrom
no_reorient  #important for SAPT in psi4, default
symmetry c1  #important for SAPT in psi4, default
}

set PROPERTIES_ORIGIN ["COM"]
properties('MP2/aug-cc-pvtz', properties = ['dipole'])
--------------------------------------------------------------------------

    Molecular point group: c1
  Charge       = 0
  Multiplicity = 1
  Basis Set: AUG-CC-PVTZ
    Blend: AUG-CC-PVTZ
  Basis Set: (AUG-CC-PVTZ AUX)
    Blend: AUG-CC-PVTZ-JKFIT

    Orbital Energies [Eh]
    ---------------------

    Doubly Occupied:

       1A    -20.516015     2A    -15.597829     3A    -11.349495
       4A    -11.277237     5A    -11.214538     6A     -1.369431
       7A     -1.236769     8A     -1.028770     9A     -0.890279
      10A     -0.775543    11A     -0.739227    12A     -0.648987
      13A     -0.639130    14A     -0.598067    15A     -0.549143
      16A     -0.533099    17A     -0.519370    18A     -0.509257
      19A     -0.420478    20A     -0.391388

  @DF-RHF Final Energy:  -247.08550464211766

   => Energetics <=

    Nuclear Repulsion Energy =            179.7570860970013769
    One-Electron Energy =                -692.0770796544995846
    Two-Electron Energy =                 265.2344889153806093
    Total Energy =                       -247.0855046421176553
  Basis Set: (AUG-CC-PVTZ AUX)
    Blend: AUG-CC-PVTZ-RI
    Molecular point group: c1

    Geometry (in Angstrom), charge = 0, multiplicity = 1:

       Center              X                  Y                   Z               Mass
    ------------   -----------------  -----------------  -----------------  -----------------
         O           -1.333681256959    -0.982171841573    -0.000135222453    15.994914619570
         N           -0.166572256959     1.001533258427     0.000066777547    14.003074004430
         C            1.252314743041     0.639870158427    -0.000010222453    12.000000000000
         C            1.516200743041    -0.859578841573     0.000012777547    12.000000000000
         C           -1.275939256959     0.243931158427     0.000106777547    12.000000000000
         H            1.724656743041     1.090594158427    -0.881345222453     1.007825032230
         H            1.724753743041     1.090637158427     0.881250777547     1.007825032230
         H            1.094017743041    -1.341562841573     0.880490777547     1.007825032230
         H            1.093917743041    -1.341607841573    -0.880394222453     1.007825032230
         H            2.600331743041    -1.008341841573    -0.000046222453     1.007825032230
         H           -0.339478256959     2.023051158427     0.000059777547     1.007825032230
         H           -2.189146256959     0.870943158427    -0.000099222453     1.007825032230

  Basis Set: AUG-CC-PVTZ
    Blend: AUG-CC-PVTZ
  Basis Set: (AUG-CC-PVTZ AUX)
    Blend: AUG-CC-PVTZ-JKFIT
	 Reference Energy          =    -247.0855046421176553 [Eh]
	 Singles Energy            =      -0.0000000000000000 [Eh]
	 Same-Spin Energy          =      -0.2463498669987488 [Eh]
	 Opposite-Spin Energy      =      -0.8123948936466927 [Eh]
	 Correlation Energy        =      -1.0587447606454414 [Eh]
	 Total Energy              =    -248.1442494027631085 [Eh]

	 ================> DF-SCS-MP2 Energies <==================
	-----------------------------------------------------------
	 SCS Same-Spin Scale       =       0.3333333333333333 [-]
	 SCS Opposite-Spin Scale   =       1.2000000000000000 [-]
	 SCS Same-Spin Energy      =      -0.0821166223329163 [Eh]
	 SCS Opposite-Spin Energy  =      -0.9748738723760312 [Eh]
	 SCS Correlation Energy    =      -1.0569904947089475 [Eh]
	 SCS Total Energy          =    -248.1424951368265965 [Eh]
	-----------------------------------------------------------

  Dipole Moment: [D]
     X:     1.8525      Y:     3.5353      Z:     0.0002     Total:     3.9912

*** Psi4 exiting successfully. Buy a developer a beer!
