                               Psi4 1.3.2 release

  ==> Input File <==

--------------------------------------------------------------------------
#psi4
#
memory 32 gb

molecule  {
0 1
  O       -1.4055500    -1.0035560    -0.0001340
  N       -0.1837892     1.1503721     0.0000603
  C        1.1804460     0.6184860    -0.0000090
  C        1.4443320    -0.8809630     0.0000140
  C       -1.3478080     0.2225470     0.0001080
  H        1.6527880     1.0692100    -0.8813440
  H        1.6528850     1.0692530     0.8812520
  H        1.0221490    -1.3629470     0.8804920
  H        1.0220490    -1.3629920    -0.8803930
  H        2.5284630    -1.0297260    -0.0000450
  H       -0.4113470     2.0016670     0.0000610
  H       -2.2610150     0.8495590    -0.0000980
units angstrom
no_reorient  #important for SAPT in psi4, default
symmetry c1  #important for SAPT in psi4, default
}

set PROPERTIES_ORIGIN ["COM"]
properties('MP2/aug-cc-pvtz', properties = ['dipole'])
--------------------------------------------------------------------------

    Molecular point group: c1
  Charge       = 0
  Multiplicity = 1
  Basis Set: AUG-CC-PVTZ
    Blend: AUG-CC-PVTZ
  Basis Set: (AUG-CC-PVTZ AUX)
    Blend: AUG-CC-PVTZ-JKFIT

    Orbital Energies [Eh]
    ---------------------

    Doubly Occupied:

       1A    -20.545274     2A    -15.578855     3A    -11.370519
       4A    -11.269673     5A    -11.217413     6A     -1.378919
       7A     -1.229358     8A     -1.020815     9A     -0.876459
      10A     -0.809306    11A     -0.733886    12A     -0.640213
      13A     -0.631166    14A     -0.610558    15A     -0.545160
      16A     -0.542168    17A     -0.521647    18A     -0.512672
      19A     -0.424818    20A     -0.388015

  @DF-RHF Final Energy:  -247.04912191508174

   => Energetics <=

    Nuclear Repulsion Energy =            177.4384631972268664
    One-Electron Energy =                -687.2813845670480077
    Two-Electron Energy =                 262.7937994547394283
    Total Energy =                       -247.0491219150817415
  Basis Set: (AUG-CC-PVTZ AUX)
    Blend: AUG-CC-PVTZ-RI
    Molecular point group: c1

    Geometry (in Angstrom), charge = 0, multiplicity = 1:

       Center              X                  Y                   Z               Mass
    ------------   -----------------  -----------------  -----------------  -----------------
         O           -1.344157153551    -1.014800932392    -0.000133746484    15.994914619570
         N           -0.122396353551     1.139127167608     0.000060553516    14.003074004430
         C            1.241838846449     0.607241067608    -0.000008746484    12.000000000000
         C            1.505724846449    -0.892207932392     0.000014253516    12.000000000000
         C           -1.286415153551     0.211302067608     0.000108253516    12.000000000000
         H            1.714180846449     1.057965067608    -0.881343746484     1.007825032230
         H            1.714277846449     1.058008067608     0.881252253516     1.007825032230
         H            1.083541846449    -1.374191932392     0.880492253516     1.007825032230
         H            1.083441846449    -1.374236932392    -0.880392746484     1.007825032230
         H            2.589855846449    -1.040970932392    -0.000044746484     1.007825032230
         H           -0.349954153551     1.990422067608     0.000061253516     1.007825032230
         H           -2.199622153551     0.838314067608    -0.000097746484     1.007825032230

  Basis Set: AUG-CC-PVTZ
    Blend: AUG-CC-PVTZ
  Basis Set: (AUG-CC-PVTZ AUX)
    Blend: AUG-CC-PVTZ-JKFIT
	 Reference Energy          =    -247.0491219150817415 [Eh]
	 Singles Energy            =      -0.0000000000000000 [Eh]
	 Same-Spin Energy          =      -0.2464064417464840 [Eh]
	 Opposite-Spin Energy      =      -0.8144085782211193 [Eh]
	 Correlation Energy        =      -1.0608150199676034 [Eh]
	 Total Energy              =    -248.1099369350493475 [Eh]

	 ================> DF-SCS-MP2 Energies <==================
	-----------------------------------------------------------
	 SCS Same-Spin Scale       =       0.3333333333333333 [-]
	 SCS Opposite-Spin Scale   =       1.2000000000000000 [-]
	 SCS Same-Spin Energy      =      -0.0821354805821613 [Eh]
	 SCS Opposite-Spin Energy  =      -0.9772902938653432 [Eh]
	 SCS Correlation Energy    =      -1.0594257744475044 [Eh]
	 SCS Total Energy          =    -248.1085476895292459 [Eh]
	-----------------------------------------------------------

  Dipole Moment: [D]
     X:     1.3387      Y:     2.8470      Z:     0.0002     Total:     3.1460

*** Psi4 exiting successfully. Buy a developer a beer!
