                               Psi4 1.3.2 release

  ==> Input File <==

--------------------------------------------------------------------------
#psi4
#
memory 32 gb

molecule  {
0 1
  O        0.9504380     0.1228240    -0.1741910
  O        0.1670080    -1.9538060     0.3788190
  N       -1.2573980    -0.2788160    -0.3316190
  C       -1.5877521     1.1212294    -0.5812552
  C       -1.5086480     1.9908930     0.6655530
  C       -2.4416600    -1.0731650    -0.0476160
  C       -0.0399700    -0.8055270    -0.0009900
  C        2.2764760    -0.3829840     0.0991100
  C        3.2256880     0.7754290    -0.1091670
  H       -0.6200800     1.4811510    -1.2396720
  H       -2.3650680     1.2369900    -1.1776810
  H       -2.3202370     1.6568460     1.3177610
  H       -0.5663980     1.9180080     1.2126270
  H       -1.6843650     3.0420300     0.4158060
  H       -2.9458070    -0.7386130     0.8669600
  H       -2.1365070    -2.1105210     0.0765900
  H       -3.1412900    -0.9939370    -0.8846800
  H        2.3097600    -0.7656990     1.1223780
  H        2.4881280    -1.2160740    -0.5765640
  H        3.1624490     1.1443740    -1.1352360
  H        2.9853640     1.5953270     0.5713660
  H        4.2535110     0.4542820     0.0824610
units angstrom
no_reorient  #important for SAPT in psi4, default
symmetry c1  #important for SAPT in psi4, default
}

set PROPERTIES_ORIGIN ["COM"]
properties('MP2/aug-cc-pvtz', properties = ['dipole'])
--------------------------------------------------------------------------

    Molecular point group: c1
  Charge       = 0
  Multiplicity = 1
  Basis Set: AUG-CC-PVTZ
    Blend: AUG-CC-PVTZ
  Basis Set: (AUG-CC-PVTZ AUX)
    Blend: AUG-CC-PVTZ-JKFIT

    Orbital Energies [Eh]
    ---------------------

    Doubly Occupied:

       1A    -20.593435     2A    -20.519731     3A    -15.584480
       4A    -11.397646     5A    -11.283246     6A    -11.269136
       7A    -11.252420     8A    -11.223077     9A    -11.221966
      10A     -1.448215    11A     -1.340847    12A     -1.249465
      13A     -1.037773    14A     -1.026068    15A     -0.946248
      16A     -0.884077    17A     -0.843977    18A     -0.763209
      19A     -0.712714    20A     -0.681814    21A     -0.677756
      22A     -0.638402    23A     -0.621359    24A     -0.589228
      25A     -0.580704    26A     -0.568658    27A     -0.560471
      28A     -0.543738    29A     -0.538225    30A     -0.527314
      31A     -0.509460    32A     -0.507345    33A     -0.469053
      34A     -0.455629    35A     -0.444122    36A     -0.372327

  @DF-RHF Final Energy:  -439.10894995791176

   => Energetics <=

    Nuclear Repulsion Energy =            491.6166485898439191
    One-Electron Energy =               -1573.6845290372621093
    Two-Electron Energy =                 642.9589304895065425
    Total Energy =                       -439.1089499579117046
  Basis Set: (AUG-CC-PVTZ AUX)
    Blend: AUG-CC-PVTZ-RI
    Molecular point group: c1

    Geometry (in Angstrom), charge = 0, multiplicity = 1:

       Center              X                  Y                   Z               Mass
    ------------   -----------------  -----------------  -----------------  -----------------
         O            0.959816414980     0.175637397565    -0.171095208930    15.994914619570
         O            0.176386414980    -1.900992602435     0.381914791070    15.994914619570
         N           -1.248019585020    -0.226002602435    -0.328523208930    14.003074004430
         C           -1.578373685020     1.174042797565    -0.578159408930    12.000000000000
         C           -1.499269585020     2.043706397565     0.668648791070    12.000000000000
         C           -2.432281585020    -1.020351602435    -0.044520208930    12.000000000000
         C           -0.030591585020    -0.752713602435     0.002105791070    12.000000000000
         C            2.285854414980    -0.330170602435     0.102205791070    12.000000000000
         C            3.235066414980     0.828242397565    -0.106071208930    12.000000000000
         H           -0.610701585020     1.533964397565    -1.236576208930     1.007825032230
         H           -2.355689585020     1.289803397565    -1.174585208930     1.007825032230
         H           -2.310858585020     1.709659397565     1.320856791070     1.007825032230
         H           -0.557019585020     1.970821397565     1.215722791070     1.007825032230
         H           -1.674986585020     3.094843397565     0.418901791070     1.007825032230
         H           -2.936428585020    -0.685799602435     0.870055791070     1.007825032230
         H           -2.127128585020    -2.057707602435     0.079685791070     1.007825032230
         H           -3.131911585020    -0.941123602435    -0.881584208930     1.007825032230
         H            2.319138414980    -0.712885602435     1.125473791070     1.007825032230
         H            2.497506414980    -1.163260602435    -0.573468208930     1.007825032230
         H            3.171827414980     1.197187397565    -1.132140208930     1.007825032230
         H            2.994742414980     1.648140397565     0.574461791070     1.007825032230
         H            4.262889414980     0.507095397565     0.085556791070     1.007825032230

  Basis Set: AUG-CC-PVTZ
    Blend: AUG-CC-PVTZ
  Basis Set: (AUG-CC-PVTZ AUX)
    Blend: AUG-CC-PVTZ-JKFIT
	 Reference Energy          =    -439.1089499579117614 [Eh]
	 Singles Energy            =      -0.0000000000000000 [Eh]
	 Same-Spin Energy          =      -0.4423788025907560 [Eh]
	 Opposite-Spin Energy      =      -1.4609920221969470 [Eh]
	 Correlation Energy        =      -1.9033708247877030 [Eh]
	 Total Energy              =    -441.0123207826994758 [Eh]

	 ================> DF-SCS-MP2 Energies <==================
	-----------------------------------------------------------
	 SCS Same-Spin Scale       =       0.3333333333333333 [-]
	 SCS Opposite-Spin Scale   =       1.2000000000000000 [-]
	 SCS Same-Spin Energy      =      -0.1474596008635853 [Eh]
	 SCS Opposite-Spin Energy  =      -1.7531904266363363 [Eh]
	 SCS Correlation Energy    =      -1.9006500274999216 [Eh]
	 SCS Total Energy          =    -441.0095999854116826 [Eh]
	-----------------------------------------------------------

  Dipole Moment: [D]
     X:    -0.6507      Y:     2.4025      Z:    -0.4507     Total:     2.5295

*** Psi4 exiting successfully. Buy a developer a beer!
