                               Psi4 1.3.2 release

  ==> Input File <==

--------------------------------------------------------------------------
#psi4
#
memory 32 gb

molecule  {
0 1
  O        1.0158385     0.2562122    -0.2027730
  O        0.1670080    -1.9538060     0.3788190
  N       -1.2573980    -0.2788160    -0.3316190
  C       -1.4380940     1.1445880    -0.6015250
  C       -1.5086480     1.9908930     0.6655530
  C       -2.4416600    -1.0731650    -0.0476160
  C       -0.0399700    -0.8055270    -0.0009900
  C        2.2764760    -0.3829840     0.0991100
  C        3.2256880     0.7754290    -0.1091670
  H       -0.6200800     1.4811510    -1.2396720
  H       -2.3650680     1.2369900    -1.1776810
  H       -2.3202370     1.6568460     1.3177610
  H       -0.5663980     1.9180080     1.2126270
  H       -1.6843650     3.0420300     0.4158060
  H       -2.9458070    -0.7386130     0.8669600
  H       -2.1365070    -2.1105210     0.0765900
  H       -3.1412900    -0.9939370    -0.8846800
  H        2.3097600    -0.7656990     1.1223780
  H        2.4881280    -1.2160740    -0.5765640
  H        3.1624490     1.1443740    -1.1352360
  H        2.9853640     1.5953270     0.5713660
  H        4.2535110     0.4542820     0.0824610
units angstrom
no_reorient  #important for SAPT in psi4, default
symmetry c1  #important for SAPT in psi4, default
}

set PROPERTIES_ORIGIN ["COM"]
properties('MP2/aug-cc-pvtz', properties = ['dipole'])
--------------------------------------------------------------------------

    Molecular point group: c1
  Charge       = 0
  Multiplicity = 1
  Basis Set: AUG-CC-PVTZ
    Blend: AUG-CC-PVTZ
  Basis Set: (AUG-CC-PVTZ AUX)
    Blend: AUG-CC-PVTZ-JKFIT

    Orbital Energies [Eh]
    ---------------------

    Doubly Occupied:

       1A    -20.591447     2A    -20.538251     3A    -15.593361
       4A    -11.408946     5A    -11.274385     6A    -11.267584
       7A    -11.260055     8A    -11.221469     9A    -11.212779
      10A     -1.419508    11A     -1.341010    12A     -1.253879
      13A     -1.028151    14A     -1.018410    15A     -0.949436
      16A     -0.876694    17A     -0.834016    18A     -0.751091
      19A     -0.706173    20A     -0.677649    21A     -0.668244
      22A     -0.637322    23A     -0.615188    24A     -0.596076
      25A     -0.579160    26A     -0.563085    27A     -0.560473
      28A     -0.539620    29A     -0.528078    30A     -0.521040
      31A     -0.508186    32A     -0.503374    33A     -0.497452
      34A     -0.456902    35A     -0.446228    36A     -0.380514

  @DF-RHF Final Energy:  -439.11041428833329

   => Energetics <=

    Nuclear Repulsion Energy =            489.4569151169765746
    One-Electron Energy =               -1569.4841891527321422
    Two-Electron Energy =                 640.9168597474222224
    Total Energy =                       -439.1104142883332315
  Basis Set: (AUG-CC-PVTZ AUX)
    Blend: AUG-CC-PVTZ-RI
    Molecular point group: c1

    Geometry (in Angstrom), charge = 0, multiplicity = 1:

       Center              X                  Y                   Z               Mass
    ------------   -----------------  -----------------  -----------------  -----------------
         O            1.003538127355     0.290612668715    -0.194334470964    15.994914619570
         O            0.154707627355    -1.919405531285     0.387257529036    15.994914619570
         N           -1.269698372645    -0.244415531285    -0.323180470964    14.003074004430
         C           -1.450394372645     1.178988468715    -0.593086470964    12.000000000000
         C           -1.520948372645     2.025293468715     0.673991529036    12.000000000000
         C           -2.453960372645    -1.038764531285    -0.039177470964    12.000000000000
         C           -0.052270372645    -0.771126531285     0.007448529036    12.000000000000
         C            2.264175627355    -0.348583531285     0.107548529036    12.000000000000
         C            3.213387627355     0.809829468715    -0.100728470964    12.000000000000
         H           -0.632380372645     1.515551468715    -1.231233470964     1.007825032230
         H           -2.377368372645     1.271390468715    -1.169242470964     1.007825032230
         H           -2.332537372645     1.691246468715     1.326199529036     1.007825032230
         H           -0.578698372645     1.952408468715     1.221065529036     1.007825032230
         H           -1.696665372645     3.076430468715     0.424244529036     1.007825032230
         H           -2.958107372645    -0.704212531285     0.875398529036     1.007825032230
         H           -2.148807372645    -2.076120531285     0.085028529036     1.007825032230
         H           -3.153590372645    -0.959536531285    -0.876241470964     1.007825032230
         H            2.297459627355    -0.731298531285     1.130816529036     1.007825032230
         H            2.475827627355    -1.181673531285    -0.568125470964     1.007825032230
         H            3.150148627355     1.178774468715    -1.126797470964     1.007825032230
         H            2.973063627355     1.629727468715     0.579804529036     1.007825032230
         H            4.241210627355     0.488682468715     0.090899529036     1.007825032230

  Basis Set: AUG-CC-PVTZ
    Blend: AUG-CC-PVTZ
  Basis Set: (AUG-CC-PVTZ AUX)
    Blend: AUG-CC-PVTZ-JKFIT
	 Reference Energy          =    -439.1104142883332884 [Eh]
	 Singles Energy            =      -0.0000000000000000 [Eh]
	 Same-Spin Energy          =      -0.4449131172847269 [Eh]
	 Opposite-Spin Energy      =      -1.4673558490114200 [Eh]
	 Correlation Energy        =      -1.9122689662961470 [Eh]
	 Total Energy              =    -441.0226832546294418 [Eh]

	 ================> DF-SCS-MP2 Energies <==================
	-----------------------------------------------------------
	 SCS Same-Spin Scale       =       0.3333333333333333 [-]
	 SCS Opposite-Spin Scale   =       1.2000000000000000 [-]
	 SCS Same-Spin Energy      =      -0.1483043724282423 [Eh]
	 SCS Opposite-Spin Energy  =      -1.7608270188137041 [Eh]
	 SCS Correlation Energy    =      -1.9091313912419463 [Eh]
	 SCS Total Energy          =    -441.0195456795752307 [Eh]
	-----------------------------------------------------------

  Dipole Moment: [D]
     X:    -1.3752      Y:     1.8916      Z:    -0.4111     Total:     2.3746

*** Psi4 exiting successfully. Buy a developer a beer!
