                               Psi4 1.3.2 release

  ==> Input File <==

--------------------------------------------------------------------------
#psi4
#
memory 32 gb

molecule  {
0 1
  O        0.9504380     0.1228240    -0.1741910
  O        0.1670080    -1.9538060     0.3788190
  N       -1.2779845    -0.2656490    -0.3761000
  C       -1.4380940     1.1445880    -0.6015250
  C       -1.5086480     1.9908930     0.6655530
  C       -2.4416600    -1.0731650    -0.0476160
  C       -0.0399700    -0.8055270    -0.0009900
  C        2.2764760    -0.3829840     0.0991100
  C        3.2256880     0.7754290    -0.1091670
  H       -0.6200800     1.4811510    -1.2396720
  H       -2.3650680     1.2369900    -1.1776810
  H       -2.3202370     1.6568460     1.3177610
  H       -0.5663980     1.9180080     1.2126270
  H       -1.6843650     3.0420300     0.4158060
  H       -2.9458070    -0.7386130     0.8669600
  H       -2.1365070    -2.1105210     0.0765900
  H       -3.1412900    -0.9939370    -0.8846800
  H        2.3097600    -0.7656990     1.1223780
  H        2.4881280    -1.2160740    -0.5765640
  H        3.1624490     1.1443740    -1.1352360
  H        2.9853640     1.5953270     0.5713660
  H        4.2535110     0.4542820     0.0824610
units angstrom
no_reorient  #important for SAPT in psi4, default
symmetry c1  #important for SAPT in psi4, default
}

set PROPERTIES_ORIGIN ["COM"]
properties('MP2/aug-cc-pvtz', properties = ['dipole'])
--------------------------------------------------------------------------

    Molecular point group: c1
  Charge       = 0
  Multiplicity = 1
  Basis Set: AUG-CC-PVTZ
    Blend: AUG-CC-PVTZ
  Basis Set: (AUG-CC-PVTZ AUX)
    Blend: AUG-CC-PVTZ-JKFIT

    Orbital Energies [Eh]
    ---------------------

    Doubly Occupied:

       1A    -20.596161     2A    -20.524493     3A    -15.582699
       4A    -11.399155     5A    -11.285019     6A    -11.262014
       7A    -11.252837     8A    -11.223333     9A    -11.219485
      10A     -1.449422    11A     -1.342841    12A     -1.246796
      13A     -1.037198    14A     -1.023425    15A     -0.942059
      16A     -0.879707    17A     -0.841495    18A     -0.763177
      19A     -0.711222    20A     -0.683331    21A     -0.674511
      22A     -0.636313    23A     -0.613718    24A     -0.592573
      25A     -0.582197    26A     -0.566571    27A     -0.559140
      28A     -0.544204    29A     -0.533655    30A     -0.520526
      31A     -0.509537    32A     -0.507067    33A     -0.497496
      34A     -0.457472    35A     -0.445904    36A     -0.373067

  @DF-RHF Final Energy:  -439.13381565517903

   => Energetics <=

    Nuclear Repulsion Energy =            491.7406335150135419
    One-Electron Energy =               -1573.9892543341957207
    Two-Electron Energy =                 643.1148051640032008
    Total Energy =                       -439.1338156551789780
  Basis Set: (AUG-CC-PVTZ AUX)
    Blend: AUG-CC-PVTZ-RI
    Molecular point group: c1

    Geometry (in Angstrom), charge = 0, multiplicity = 1:

       Center              X                  Y                   Z               Mass
    ------------   -----------------  -----------------  -----------------  -----------------
         O            0.948316150382     0.172092769687    -0.164488467344    15.994914619570
         O            0.164886150382    -1.904537230313     0.388521532656    15.994914619570
         N           -1.280106349618    -0.216380230313    -0.366397467344    14.003074004430
         C           -1.440215849618     1.193856769687    -0.591822467344    12.000000000000
         C           -1.510769849618     2.040161769687     0.675255532656    12.000000000000
         C           -2.443781849618    -1.023896230313    -0.037913467344    12.000000000000
         C           -0.042091849618    -0.756258230313     0.008712532656    12.000000000000
         C            2.274354150382    -0.333715230313     0.108812532656    12.000000000000
         C            3.223566150382     0.824697769687    -0.099464467344    12.000000000000
         H           -0.622201849618     1.530419769687    -1.229969467344     1.007825032230
         H           -2.367189849618     1.286258769687    -1.167978467344     1.007825032230
         H           -2.322358849618     1.706114769687     1.327463532656     1.007825032230
         H           -0.568519849618     1.967276769687     1.222329532656     1.007825032230
         H           -1.686486849618     3.091298769687     0.425508532656     1.007825032230
         H           -2.947928849618    -0.689344230313     0.876662532656     1.007825032230
         H           -2.138628849618    -2.061252230313     0.086292532656     1.007825032230
         H           -3.143411849618    -0.944668230313    -0.874977467344     1.007825032230
         H            2.307638150382    -0.716430230313     1.132080532656     1.007825032230
         H            2.486006150382    -1.166805230313    -0.566861467344     1.007825032230
         H            3.160327150382     1.193642769687    -1.125533467344     1.007825032230
         H            2.983242150382     1.644595769687     0.581068532656     1.007825032230
         H            4.251389150382     0.503550769687     0.092163532656     1.007825032230

  Basis Set: AUG-CC-PVTZ
    Blend: AUG-CC-PVTZ
  Basis Set: (AUG-CC-PVTZ AUX)
    Blend: AUG-CC-PVTZ-JKFIT
	 Reference Energy          =    -439.1338156551790348 [Eh]
	 Singles Energy            =      -0.0000000000000000 [Eh]
	 Same-Spin Energy          =      -0.4420270705671788 [Eh]
	 Opposite-Spin Energy      =      -1.4598560694612641 [Eh]
	 Correlation Energy        =      -1.9018831400284428 [Eh]
	 Total Energy              =    -441.0356987952074519 [Eh]

	 ================> DF-SCS-MP2 Energies <==================
	-----------------------------------------------------------
	 SCS Same-Spin Scale       =       0.3333333333333333 [-]
	 SCS Opposite-Spin Scale   =       1.2000000000000000 [-]
	 SCS Same-Spin Energy      =      -0.1473423568557263 [Eh]
	 SCS Opposite-Spin Energy  =      -1.7518272833535169 [Eh]
	 SCS Correlation Energy    =      -1.8991696402092431 [Eh]
	 SCS Total Energy          =    -441.0329852953883005 [Eh]
	-----------------------------------------------------------

  Dipole Moment: [D]
     X:    -0.3788      Y:     2.2882      Z:    -0.3958     Total:     2.3529

*** Psi4 exiting successfully. Buy a developer a beer!
