                               Psi4 1.3.2 release

  ==> Input File <==

--------------------------------------------------------------------------
#psi4
#
memory 32 gb

molecule  {
0 1
  O        0.9148712     0.0307269    -0.1534521
  O        0.1670080    -1.9538060     0.3788190
  N       -1.2573980    -0.2788160    -0.3316190
  C       -1.4380940     1.1445880    -0.6015250
  C       -1.5086480     1.9908930     0.6655530
  C       -2.4416600    -1.0731650    -0.0476160
  C       -0.0399700    -0.8055270    -0.0009900
  C        2.2764760    -0.3829840     0.0991100
  C        3.2256880     0.7754290    -0.1091670
  H       -0.6200800     1.4811510    -1.2396720
  H       -2.3650680     1.2369900    -1.1776810
  H       -2.3202370     1.6568460     1.3177610
  H       -0.5663980     1.9180080     1.2126270
  H       -1.6843650     3.0420300     0.4158060
  H       -2.9458070    -0.7386130     0.8669600
  H       -2.1365070    -2.1105210     0.0765900
  H       -3.1412900    -0.9939370    -0.8846800
  H        2.3097600    -0.7656990     1.1223780
  H        2.4881280    -1.2160740    -0.5765640
  H        3.1624490     1.1443740    -1.1352360
  H        2.9853640     1.5953270     0.5713660
  H        4.2535110     0.4542820     0.0824610
units angstrom
no_reorient  #important for SAPT in psi4, default
symmetry c1  #important for SAPT in psi4, default
}

set PROPERTIES_ORIGIN ["COM"]
properties('MP2/aug-cc-pvtz', properties = ['dipole'])
--------------------------------------------------------------------------

    Molecular point group: c1
  Charge       = 0
  Multiplicity = 1
  Basis Set: AUG-CC-PVTZ
    Blend: AUG-CC-PVTZ
  Basis Set: (AUG-CC-PVTZ AUX)
    Blend: AUG-CC-PVTZ-JKFIT

    Orbital Energies [Eh]
    ---------------------

    Doubly Occupied:

       1A    -20.593855     2A    -20.501359     3A    -15.576455
       4A    -11.381752     5A    -11.291353     6A    -11.264549
       7A    -11.250265     8A    -11.229473     9A    -11.220365
      10A     -1.480032    11A     -1.332252    12A     -1.244213
      13A     -1.049681    14A     -1.023739    15A     -0.946660
      16A     -0.882584    17A     -0.849219    18A     -0.770429
      19A     -0.715553    20A     -0.694453    21A     -0.672447
      22A     -0.633482    23A     -0.613509    24A     -0.595645
      25A     -0.582175    26A     -0.571043    27A     -0.559169
      28A     -0.550413    29A     -0.535141    30A     -0.520815
      31A     -0.507846    32A     -0.505151    33A     -0.495029
      34A     -0.450504    35A     -0.435503    36A     -0.370366

  @DF-RHF Final Energy:  -439.13734449345793

   => Energetics <=

    Nuclear Repulsion Energy =            494.2716462277865048
    One-Electron Energy =               -1579.0250237445941366
    Two-Electron Energy =                 645.6160330233497007
    Total Energy =                       -439.1373444934579311
  Basis Set: (AUG-CC-PVTZ AUX)
    Blend: AUG-CC-PVTZ-RI
    Molecular point group: c1

    Geometry (in Angstrom), charge = 0, multiplicity = 1:

       Center              X                  Y                   Z               Mass
    ------------   -----------------  -----------------  -----------------  -----------------
         O            0.914889893051     0.092638931608    -0.151031236161    15.994914619570
         O            0.167026693051    -1.891893968392     0.381239863839    15.994914619570
         N           -1.257379306949    -0.216903968392    -0.329198136161    14.003074004430
         C           -1.438075306949     1.206500031608    -0.599104136161    12.000000000000
         C           -1.508629306949     2.052805031608     0.667973863839    12.000000000000
         C           -2.441641306949    -1.011252968392    -0.045195136161    12.000000000000
         C           -0.039951306949    -0.743614968392     0.001430863839    12.000000000000
         C            2.276494693051    -0.321071968392     0.101530863839    12.000000000000
         C            3.225706693051     0.837341031608    -0.106746136161    12.000000000000
         H           -0.620061306949     1.543063031608    -1.237251136161     1.007825032230
         H           -2.365049306949     1.298902031608    -1.175260136161     1.007825032230
         H           -2.320218306949     1.718758031608     1.320181863839     1.007825032230
         H           -0.566379306949     1.979920031608     1.215047863839     1.007825032230
         H           -1.684346306949     3.103942031608     0.418226863839     1.007825032230
         H           -2.945788306949    -0.676700968392     0.869380863839     1.007825032230
         H           -2.136488306949    -2.048608968392     0.079010863839     1.007825032230
         H           -3.141271306949    -0.932024968392    -0.882259136161     1.007825032230
         H            2.309778693051    -0.703786968392     1.124798863839     1.007825032230
         H            2.488146693051    -1.154161968392    -0.574143136161     1.007825032230
         H            3.162467693051     1.206286031608    -1.132815136161     1.007825032230
         H            2.985382693051     1.657239031608     0.573786863839     1.007825032230
         H            4.253529693051     0.516194031608     0.084881863839     1.007825032230

  Basis Set: AUG-CC-PVTZ
    Blend: AUG-CC-PVTZ
  Basis Set: (AUG-CC-PVTZ AUX)
    Blend: AUG-CC-PVTZ-JKFIT
	 Reference Energy          =    -439.1373444934579311 [Eh]
	 Singles Energy            =      -0.0000000000000000 [Eh]
	 Same-Spin Energy          =      -0.4399784302316863 [Eh]
	 Opposite-Spin Energy      =      -1.4546063453225049 [Eh]
	 Correlation Energy        =      -1.8945847755541911 [Eh]
	 Total Energy              =    -441.0319292690120960 [Eh]

	 ================> DF-SCS-MP2 Energies <==================
	-----------------------------------------------------------
	 SCS Same-Spin Scale       =       0.3333333333333333 [-]
	 SCS Opposite-Spin Scale   =       1.2000000000000000 [-]
	 SCS Same-Spin Energy      =      -0.1466594767438954 [Eh]
	 SCS Opposite-Spin Energy  =      -1.7455276143870058 [Eh]
	 SCS Correlation Energy    =      -1.8921870911309011 [Eh]
	 SCS Total Energy          =    -441.0295315845888240 [Eh]
	-----------------------------------------------------------

  Dipole Moment: [D]
     X:    -0.0411      Y:     2.7917      Z:    -0.5667     Total:     2.8490

*** Psi4 exiting successfully. Buy a developer a beer!
