                               Psi4 1.3.2 release

  ==> Input File <==

--------------------------------------------------------------------------
#psi4
#
memory 32 gb

molecule  {
0 1
  O        0.9409333     0.1000134    -0.1691273
  O        0.1670080    -1.9538060     0.3788190
  N       -1.2573980    -0.2788160    -0.3316190
  C       -1.4380940     1.1445880    -0.6015250
  C       -1.5086480     1.9908930     0.6655530
  C       -2.4416600    -1.0731650    -0.0476160
  C       -0.0399700    -0.8055270    -0.0009900
  C        2.2764760    -0.3829840     0.0991100
  C        3.2256880     0.7754290    -0.1091670
  H       -0.6200800     1.4811510    -1.2396720
  H       -2.3650680     1.2369900    -1.1776810
  H       -2.3202370     1.6568460     1.3177610
  H       -0.5663980     1.9180080     1.2126270
  H       -1.6843650     3.0420300     0.4158060
  H       -2.9458070    -0.7386130     0.8669600
  H       -2.1365070    -2.1105210     0.0765900
  H       -3.1412900    -0.9939370    -0.8846800
  H        2.3097600    -0.7656990     1.1223780
  H        2.4881280    -1.2160740    -0.5765640
  H        3.1624490     1.1443740    -1.1352360
  H        2.9853640     1.5953270     0.5713660
  H        4.2535110     0.4542820     0.0824610
units angstrom
no_reorient  #important for SAPT in psi4, default
symmetry c1  #important for SAPT in psi4, default
}

set PROPERTIES_ORIGIN ["COM"]
properties('MP2/aug-cc-pvtz', properties = ['dipole'])
--------------------------------------------------------------------------

    Molecular point group: c1
  Charge       = 0
  Multiplicity = 1
  Basis Set: AUG-CC-PVTZ
    Blend: AUG-CC-PVTZ
  Basis Set: (AUG-CC-PVTZ AUX)
    Blend: AUG-CC-PVTZ-JKFIT

    Orbital Energies [Eh]
    ---------------------

    Doubly Occupied:

       1A    -20.593712     2A    -20.513804     3A    -15.581641
       4A    -11.391009     5A    -11.285325     6A    -11.265404
       7A    -11.253354     8A    -11.224113     9A    -11.220634
      10A     -1.455390    11A     -1.338307    12A     -1.247073
      13A     -1.039622    14A     -1.024903    15A     -0.946690
      16A     -0.878638    17A     -0.844545    18A     -0.764026
      19A     -0.713565    20A     -0.685371    21A     -0.672993
      22A     -0.634721    23A     -0.613335    24A     -0.594978
      25A     -0.580269    26A     -0.569132    27A     -0.559695
      28A     -0.543018    29A     -0.535813    30A     -0.520931
      31A     -0.508387    32A     -0.506870    33A     -0.495964
      34A     -0.454787    35A     -0.441726    36A     -0.373386

  @DF-RHF Final Energy:  -439.13880985297590

   => Energetics <=

    Nuclear Repulsion Energy =            492.7718450840268360
    One-Electron Energy =               -1576.0750494212775266
    Two-Electron Energy =                 644.1643944842747942
    Total Energy =                       -439.1388098529758963
  Basis Set: (AUG-CC-PVTZ AUX)
    Blend: AUG-CC-PVTZ-RI
    Molecular point group: c1

    Geometry (in Angstrom), charge = 0, multiplicity = 1:

       Center              X                  Y                   Z               Mass
    ------------   -----------------  -----------------  -----------------  -----------------
         O            0.937772144505     0.153471754573    -0.164793897957    15.994914619570
         O            0.163846844505    -1.900347645427     0.383152402043    15.994914619570
         N           -1.260559155495    -0.225357645427    -0.327285597957    14.003074004430
         C           -1.441255155495     1.198046354573    -0.597191597957    12.000000000000
         C           -1.511809155495     2.044351354573     0.669886402043    12.000000000000
         C           -2.444821155495    -1.019706645427    -0.043282597957    12.000000000000
         C           -0.043131155495    -0.752068645427     0.003343402043    12.000000000000
         C            2.273314844505    -0.329525645427     0.103443402043    12.000000000000
         C            3.222526844505     0.828887354573    -0.104833597957    12.000000000000
         H           -0.623241155495     1.534609354573    -1.235338597957     1.007825032230
         H           -2.368229155495     1.290448354573    -1.173347597957     1.007825032230
         H           -2.323398155495     1.710304354573     1.322094402043     1.007825032230
         H           -0.569559155495     1.971466354573     1.216960402043     1.007825032230
         H           -1.687526155495     3.095488354573     0.420139402043     1.007825032230
         H           -2.948968155495    -0.685154645427     0.871293402043     1.007825032230
         H           -2.139668155495    -2.057062645427     0.080923402043     1.007825032230
         H           -3.144451155495    -0.940478645427    -0.880346597957     1.007825032230
         H            2.306598844505    -0.712240645427     1.126711402043     1.007825032230
         H            2.484966844505    -1.162615645427    -0.572230597957     1.007825032230
         H            3.159287844505     1.197832354573    -1.130902597957     1.007825032230
         H            2.982202844505     1.648785354573     0.575699402043     1.007825032230
         H            4.250349844505     0.507740354573     0.086794402043     1.007825032230

  Basis Set: AUG-CC-PVTZ
    Blend: AUG-CC-PVTZ
  Basis Set: (AUG-CC-PVTZ AUX)
    Blend: AUG-CC-PVTZ-JKFIT
	 Reference Energy          =    -439.1388098529758963 [Eh]
	 Singles Energy            =      -0.0000000000000000 [Eh]
	 Same-Spin Energy          =      -0.4411863825999041 [Eh]
	 Opposite-Spin Energy      =      -1.4578547986729506 [Eh]
	 Correlation Energy        =      -1.8990411812728547 [Eh]
	 Total Energy              =    -441.0378510342487743 [Eh]

	 ================> DF-SCS-MP2 Energies <==================
	-----------------------------------------------------------
	 SCS Same-Spin Scale       =       0.3333333333333333 [-]
	 SCS Opposite-Spin Scale   =       1.2000000000000000 [-]
	 SCS Same-Spin Energy      =      -0.1470621275333013 [Eh]
	 SCS Opposite-Spin Energy  =      -1.7494257584075408 [Eh]
	 SCS Correlation Energy    =      -1.8964878859408421 [Eh]
	 SCS Total Energy          =    -441.0352977389167108 [Eh]
	-----------------------------------------------------------

  Dipole Moment: [D]
     X:    -0.4511      Y:     2.5056      Z:    -0.5165     Total:     2.5977

*** Psi4 exiting successfully. Buy a developer a beer!
