                               Psi4 1.3.2 release

  ==> Input File <==

--------------------------------------------------------------------------
#psi4
#
memory 32 gb

molecule  {
0 1
  O        0.9504380     0.1228240    -0.1741910
  O        0.1670080    -1.9538060     0.3788190
  N       -1.2575729    -0.2563426    -0.2322220
  C       -1.4380940     1.1445880    -0.6015250
  C       -1.5086480     1.9908930     0.6655530
  C       -2.4416600    -1.0731650    -0.0476160
  C       -0.0399700    -0.8055270    -0.0009900
  C        2.2764760    -0.3829840     0.0991100
  C        3.2256880     0.7754290    -0.1091670
  H       -0.6200800     1.4811510    -1.2396720
  H       -2.3650680     1.2369900    -1.1776810
  H       -2.3202370     1.6568460     1.3177610
  H       -0.5663980     1.9180080     1.2126270
  H       -1.6843650     3.0420300     0.4158060
  H       -2.9458070    -0.7386130     0.8669600
  H       -2.1365070    -2.1105210     0.0765900
  H       -3.1412900    -0.9939370    -0.8846800
  H        2.3097600    -0.7656990     1.1223780
  H        2.4881280    -1.2160740    -0.5765640
  H        3.1624490     1.1443740    -1.1352360
  H        2.9853640     1.5953270     0.5713660
  H        4.2535110     0.4542820     0.0824610
units angstrom
no_reorient  #important for SAPT in psi4, default
symmetry c1  #important for SAPT in psi4, default
}

set PROPERTIES_ORIGIN ["COM"]
properties('MP2/aug-cc-pvtz', properties = ['dipole'])
--------------------------------------------------------------------------

    Molecular point group: c1
  Charge       = 0
  Multiplicity = 1
  Basis Set: AUG-CC-PVTZ
    Blend: AUG-CC-PVTZ
  Basis Set: (AUG-CC-PVTZ AUX)
    Blend: AUG-CC-PVTZ-JKFIT

    Orbital Energies [Eh]
    ---------------------

    Doubly Occupied:

       1A    -20.592289     2A    -20.514487     3A    -15.582970
       4A    -11.391893     5A    -11.282815     6A    -11.266862
       7A    -11.255094     8A    -11.221955     9A    -11.219159
      10A     -1.447684    11A     -1.338304    12A     -1.250563
      13A     -1.036274    14A     -1.026235    15A     -0.948954
      16A     -0.875708    17A     -0.843151    18A     -0.761619
      19A     -0.717228    20A     -0.682558    21A     -0.672849
      22A     -0.633748    23A     -0.614390    24A     -0.596431
      25A     -0.578358    26A     -0.570600    27A     -0.560459
      28A     -0.538356    29A     -0.534266    30A     -0.522508
      31A     -0.508336    32A     -0.505879    33A     -0.496042
      34A     -0.454819    35A     -0.441851    36A     -0.372033

  @DF-RHF Final Energy:  -439.13576653899611

   => Energetics <=

    Nuclear Repulsion Energy =            492.8758932364243037
    One-Electron Energy =               -1576.3098615312208040
    Two-Electron Energy =                 644.2982017558005055
    Total Energy =                       -439.1357665389961085
  Basis Set: (AUG-CC-PVTZ AUX)
    Blend: AUG-CC-PVTZ-RI
    Molecular point group: c1

    Geometry (in Angstrom), charge = 0, multiplicity = 1:

       Center              X                  Y                   Z               Mass
    ------------   -----------------  -----------------  -----------------  -----------------
         O            0.946135853994     0.171098692285    -0.179857016782    15.994914619570
         O            0.162705853994    -1.905531307715     0.373152983218    15.994914619570
         N           -1.261875046006    -0.208067907715    -0.237888016782    14.003074004430
         C           -1.442396146006     1.192862692285    -0.607191016782    12.000000000000
         C           -1.512950146006     2.039167692285     0.659886983218    12.000000000000
         C           -2.445962146006    -1.024890307715    -0.053282016782    12.000000000000
         C           -0.044272146006    -0.757252307715    -0.006656016782    12.000000000000
         C            2.272173853994    -0.334709307715     0.093443983218    12.000000000000
         C            3.221385853994     0.823703692285    -0.114833016782    12.000000000000
         H           -0.624382146006     1.529425692285    -1.245338016782     1.007825032230
         H           -2.369370146006     1.285264692285    -1.183347016782     1.007825032230
         H           -2.324539146006     1.705120692285     1.312094983218     1.007825032230
         H           -0.570700146006     1.966282692285     1.206960983218     1.007825032230
         H           -1.688667146006     3.090304692285     0.410139983218     1.007825032230
         H           -2.950109146006    -0.690338307715     0.861293983218     1.007825032230
         H           -2.140809146006    -2.062246307715     0.070923983218     1.007825032230
         H           -3.145592146006    -0.945662307715    -0.890346016782     1.007825032230
         H            2.305457853994    -0.717424307715     1.116711983218     1.007825032230
         H            2.483825853994    -1.167799307715    -0.582230016782     1.007825032230
         H            3.158146853994     1.192648692285    -1.140902016782     1.007825032230
         H            2.981061853994     1.643601692285     0.565699983218     1.007825032230
         H            4.249208853994     0.502556692285     0.076794983218     1.007825032230

  Basis Set: AUG-CC-PVTZ
    Blend: AUG-CC-PVTZ
  Basis Set: (AUG-CC-PVTZ AUX)
    Blend: AUG-CC-PVTZ-JKFIT
	 Reference Energy          =    -439.1357665389961085 [Eh]
	 Singles Energy            =      -0.0000000000000000 [Eh]
	 Same-Spin Energy          =      -0.4416924537319872 [Eh]
	 Opposite-Spin Energy      =      -1.4589870835262415 [Eh]
	 Correlation Energy        =      -1.9006795372582288 [Eh]
	 Total Energy              =    -441.0364460762543217 [Eh]

	 ================> DF-SCS-MP2 Energies <==================
	-----------------------------------------------------------
	 SCS Same-Spin Scale       =       0.3333333333333333 [-]
	 SCS Opposite-Spin Scale   =       1.2000000000000000 [-]
	 SCS Same-Spin Energy      =      -0.1472308179106624 [Eh]
	 SCS Opposite-Spin Energy  =      -1.7507845002314897 [Eh]
	 SCS Correlation Energy    =      -1.8980153181421522 [Eh]
	 SCS Total Energy          =    -441.0337818571382513 [Eh]
	-----------------------------------------------------------

  Dipole Moment: [D]
     X:    -0.6780      Y:     2.4066      Z:    -0.6797     Total:     2.5910

*** Psi4 exiting successfully. Buy a developer a beer!
