                               Psi4 1.3.2 release

  ==> Input File <==

--------------------------------------------------------------------------
#psi4
#
memory 32 gb

molecule  {
0 1
  O        0.9318355     0.0770557    -0.1639818
  O        0.1670080    -1.9538060     0.3788190
  N       -1.2573980    -0.2788160    -0.3316190
  C       -1.4380940     1.1445880    -0.6015250
  C       -1.5086480     1.9908930     0.6655530
  C       -2.4416600    -1.0731650    -0.0476160
  C       -0.0399700    -0.8055270    -0.0009900
  C        2.2764760    -0.3829840     0.0991100
  C        3.2256880     0.7754290    -0.1091670
  H       -0.6200800     1.4811510    -1.2396720
  H       -2.3650680     1.2369900    -1.1776810
  H       -2.3202370     1.6568460     1.3177610
  H       -0.5663980     1.9180080     1.2126270
  H       -1.6843650     3.0420300     0.4158060
  H       -2.9458070    -0.7386130     0.8669600
  H       -2.1365070    -2.1105210     0.0765900
  H       -3.1412900    -0.9939370    -0.8846800
  H        2.3097600    -0.7656990     1.1223780
  H        2.4881280    -1.2160740    -0.5765640
  H        3.1624490     1.1443740    -1.1352360
  H        2.9853640     1.5953270     0.5713660
  H        4.2535110     0.4542820     0.0824610
units angstrom
no_reorient  #important for SAPT in psi4, default
symmetry c1  #important for SAPT in psi4, default
}

set PROPERTIES_ORIGIN ["COM"]
properties('MP2/aug-cc-pvtz', properties = ['dipole'])
--------------------------------------------------------------------------

    Molecular point group: c1
  Charge       = 0
  Multiplicity = 1
  Basis Set: AUG-CC-PVTZ
    Blend: AUG-CC-PVTZ
  Basis Set: (AUG-CC-PVTZ AUX)
    Blend: AUG-CC-PVTZ-JKFIT

    Orbital Energies [Eh]
    ---------------------

    Doubly Occupied:

       1A    -20.593823     2A    -20.509798     3A    -15.579918
       4A    -11.388018     5A    -11.287242     6A    -11.265112
       7A    -11.252338     8A    -11.225869     9A    -11.220537
      10A     -1.463076    11A     -1.336554    12A     -1.246114
      13A     -1.042894    14A     -1.024515    15A     -0.946573
      16A     -0.879675    17A     -0.846184    18A     -0.766214
      19A     -0.714237    20A     -0.688167    21A     -0.672832
      22A     -0.634290    23A     -0.613243    24A     -0.595222
      25A     -0.580581    26A     -0.570136    27A     -0.559345
      28A     -0.545498    29A     -0.535689    30A     -0.520919
      31A     -0.507773    32A     -0.506872    33A     -0.495653
      34A     -0.453629    35A     -0.439895    36A     -0.372377

  @DF-RHF Final Energy:  -439.13947893431066

   => Energetics <=

    Nuclear Repulsion Energy =            493.2671845938773458
    One-Electron Energy =               -1577.0517068509823275
    Two-Electron Energy =                 644.6450433227943222
    Total Energy =                       -439.1394789343106595
  Basis Set: (AUG-CC-PVTZ AUX)
    Blend: AUG-CC-PVTZ-RI
    Molecular point group: c1

    Geometry (in Angstrom), charge = 0, multiplicity = 1:

       Center              X                  Y                   Z               Mass
    ------------   -----------------  -----------------  -----------------  -----------------
         O            0.929784371176     0.133315133878    -0.160276202727    15.994914619570
         O            0.164956871176    -1.897546566122     0.382524597273    15.994914619570
         N           -1.259449128824    -0.222556566122    -0.327913402727    14.003074004430
         C           -1.440145128824     1.200847433878    -0.597819402727    12.000000000000
         C           -1.510699128824     2.047152433878     0.669258597273    12.000000000000
         C           -2.443711128824    -1.016905566122    -0.043910402727    12.000000000000
         C           -0.042021128824    -0.749267566122     0.002715597273    12.000000000000
         C            2.274424871176    -0.326724566122     0.102815597273    12.000000000000
         C            3.223636871176     0.831688433878    -0.105461402727    12.000000000000
         H           -0.622131128824     1.537410433878    -1.235966402727     1.007825032230
         H           -2.367119128824     1.293249433878    -1.173975402727     1.007825032230
         H           -2.322288128824     1.713105433878     1.321466597273     1.007825032230
         H           -0.568449128824     1.974267433878     1.216332597273     1.007825032230
         H           -1.686416128824     3.098289433878     0.419511597273     1.007825032230
         H           -2.947858128824    -0.682353566122     0.870665597273     1.007825032230
         H           -2.138558128824    -2.054261566122     0.080295597273     1.007825032230
         H           -3.143341128824    -0.937677566122    -0.880974402727     1.007825032230
         H            2.307708871176    -0.709439566122     1.126083597273     1.007825032230
         H            2.486076871176    -1.159814566122    -0.572858402727     1.007825032230
         H            3.160397871176     1.200633433878    -1.131530402727     1.007825032230
         H            2.983312871176     1.651586433878     0.575071597273     1.007825032230
         H            4.251459871176     0.510541433878     0.086166597273     1.007825032230

  Basis Set: AUG-CC-PVTZ
    Blend: AUG-CC-PVTZ
  Basis Set: (AUG-CC-PVTZ AUX)
    Blend: AUG-CC-PVTZ-JKFIT
	 Reference Energy          =    -439.1394789343106595 [Eh]
	 Singles Energy            =      -0.0000000000000000 [Eh]
	 Same-Spin Energy          =      -0.4407572817720394 [Eh]
	 Opposite-Spin Energy      =      -1.4567144908982192 [Eh]
	 Correlation Energy        =      -1.8974717726702586 [Eh]
	 Total Energy              =    -441.0369507069809174 [Eh]

	 ================> DF-SCS-MP2 Energies <==================
	-----------------------------------------------------------
	 SCS Same-Spin Scale       =       0.3333333333333333 [-]
	 SCS Opposite-Spin Scale   =       1.2000000000000000 [-]
	 SCS Same-Spin Energy      =      -0.1469190939240131 [Eh]
	 SCS Opposite-Spin Energy  =      -1.7480573890778630 [Eh]
	 SCS Correlation Energy    =      -1.8949764830018760 [Eh]
	 SCS Total Energy          =    -441.0344554173125289 [Eh]
	-----------------------------------------------------------

  Dipole Moment: [D]
     X:    -0.3153      Y:     2.5992      Z:    -0.5329     Total:     2.6719

*** Psi4 exiting successfully. Buy a developer a beer!
