                               Psi4 1.3.2 release

  ==> Input File <==

--------------------------------------------------------------------------
#psi4
#
memory 32 gb

molecule  {
0 1
  O        0.9504380     0.1228240    -0.1741910
  O        0.1670080    -1.9538060     0.3788190
  N       -1.2581035    -0.2943547    -0.4323309
  C       -1.4380940     1.1445880    -0.6015250
  C       -1.5086480     1.9908930     0.6655530
  C       -2.4416600    -1.0731650    -0.0476160
  C       -0.0399700    -0.8055270    -0.0009900
  C        2.2764760    -0.3829840     0.0991100
  C        3.2256880     0.7754290    -0.1091670
  H       -0.6200800     1.4811510    -1.2396720
  H       -2.3650680     1.2369900    -1.1776810
  H       -2.3202370     1.6568460     1.3177610
  H       -0.5663980     1.9180080     1.2126270
  H       -1.6843650     3.0420300     0.4158060
  H       -2.9458070    -0.7386130     0.8669600
  H       -2.1365070    -2.1105210     0.0765900
  H       -3.1412900    -0.9939370    -0.8846800
  H        2.3097600    -0.7656990     1.1223780
  H        2.4881280    -1.2160740    -0.5765640
  H        3.1624490     1.1443740    -1.1352360
  H        2.9853640     1.5953270     0.5713660
  H        4.2535110     0.4542820     0.0824610
units angstrom
no_reorient  #important for SAPT in psi4, default
symmetry c1  #important for SAPT in psi4, default
}

set PROPERTIES_ORIGIN ["COM"]
properties('MP2/aug-cc-pvtz', properties = ['dipole'])
--------------------------------------------------------------------------

    Molecular point group: c1
  Charge       = 0
  Multiplicity = 1
  Basis Set: AUG-CC-PVTZ
    Blend: AUG-CC-PVTZ
  Basis Set: (AUG-CC-PVTZ AUX)
    Blend: AUG-CC-PVTZ-JKFIT

    Orbital Energies [Eh]
    ---------------------

    Doubly Occupied:

       1A    -20.595582     2A    -20.523615     3A    -15.584676
       4A    -11.397172     5A    -11.284624     6A    -11.263479
       7A    -11.253478     8A    -11.223096     9A    -11.221951
      10A     -1.449426    11A     -1.342448    12A     -1.242871
      13A     -1.036797    14A     -1.023065    15A     -0.942737
      16A     -0.878903    17A     -0.842189    18A     -0.762794
      19A     -0.707511    20A     -0.682838    21A     -0.673984
      22A     -0.635230    23A     -0.612835    24A     -0.592383
      25A     -0.582783    26A     -0.564324    27A     -0.558782
      28A     -0.545006    29A     -0.534009    30A     -0.518203
      31A     -0.509645    32A     -0.506867    33A     -0.495362
      34A     -0.457114    35A     -0.445756    36A     -0.379033

  @DF-RHF Final Energy:  -439.13291793040918

   => Energetics <=

    Nuclear Repulsion Energy =            491.3773698011321471
    One-Electron Energy =               -1573.2794380210511918
    Two-Electron Energy =                 642.7691502895099802
    Total Energy =                       -439.1329179304091213
  Basis Set: (AUG-CC-PVTZ AUX)
    Blend: AUG-CC-PVTZ-RI
    Molecular point group: c1

    Geometry (in Angstrom), charge = 0, multiplicity = 1:

       Center              X                  Y                   Z               Mass
    ------------   -----------------  -----------------  -----------------  -----------------
         O            0.946192530848     0.175159013099    -0.158482077441    15.994914619570
         O            0.162762530848    -1.901470986901     0.394527922559    15.994914619570
         N           -1.262348969152    -0.242019686901    -0.416621977441    14.003074004430
         C           -1.442339469152     1.196923013099    -0.585816077441    12.000000000000
         C           -1.512893469152     2.043228013099     0.681261922559    12.000000000000
         C           -2.445905469152    -1.020829986901    -0.031907077441    12.000000000000
         C           -0.044215469152    -0.753191986901     0.014718922559    12.000000000000
         C            2.272230530848    -0.330648986901     0.114818922559    12.000000000000
         C            3.221442530848     0.827764013099    -0.093458077441    12.000000000000
         H           -0.624325469152     1.533486013099    -1.223963077441     1.007825032230
         H           -2.369313469152     1.289325013099    -1.161972077441     1.007825032230
         H           -2.324482469152     1.709181013099     1.333469922559     1.007825032230
         H           -0.570643469152     1.970343013099     1.228335922559     1.007825032230
         H           -1.688610469152     3.094365013099     0.431514922559     1.007825032230
         H           -2.950052469152    -0.686277986901     0.882668922559     1.007825032230
         H           -2.140752469152    -2.058185986901     0.092298922559     1.007825032230
         H           -3.145535469152    -0.941601986901    -0.868971077441     1.007825032230
         H            2.305514530848    -0.713363986901     1.138086922559     1.007825032230
         H            2.483882530848    -1.163738986901    -0.560855077441     1.007825032230
         H            3.158203530848     1.196709013099    -1.119527077441     1.007825032230
         H            2.981118530848     1.647662013099     0.587074922559     1.007825032230
         H            4.249265530848     0.506617013099     0.098169922559     1.007825032230

  Basis Set: AUG-CC-PVTZ
    Blend: AUG-CC-PVTZ
  Basis Set: (AUG-CC-PVTZ AUX)
    Blend: AUG-CC-PVTZ-JKFIT
	 Reference Energy          =    -439.1329179304091781 [Eh]
	 Singles Energy            =      -0.0000000000000000 [Eh]
	 Same-Spin Energy          =      -0.4418249460578524 [Eh]
	 Opposite-Spin Energy      =      -1.4599264674609267 [Eh]
	 Correlation Energy        =      -1.9017514135187792 [Eh]
	 Total Energy              =    -441.0346693439279306 [Eh]

	 ================> DF-SCS-MP2 Energies <==================
	-----------------------------------------------------------
	 SCS Same-Spin Scale       =       0.3333333333333333 [-]
	 SCS Opposite-Spin Scale   =       1.2000000000000000 [-]
	 SCS Same-Spin Energy      =      -0.1472749820192841 [Eh]
	 SCS Opposite-Spin Energy  =      -1.7519117609531121 [Eh]
	 SCS Correlation Energy    =      -1.8991867429723963 [Eh]
	 SCS Total Energy          =    -441.0321046733815820 [Eh]
	-----------------------------------------------------------

  Dipole Moment: [D]
     X:    -0.4208      Y:     2.3642      Z:    -0.2896     Total:     2.4187

*** Psi4 exiting successfully. Buy a developer a beer!
