                               Psi4 1.3.2 release

  ==> Input File <==

--------------------------------------------------------------------------
#psi4
#
memory 32 gb

molecule  {
0 1
  O        0.9504380     0.1228240    -0.1741910
  O        0.1670080    -1.9538060     0.3788190
  N       -1.2573753    -0.2684401    -0.2817257
  C       -1.4380940     1.1445880    -0.6015250
  C       -1.5086480     1.9908930     0.6655530
  C       -2.4416600    -1.0731650    -0.0476160
  C       -0.0399700    -0.8055270    -0.0009900
  C        2.2764760    -0.3829840     0.0991100
  C        3.2256880     0.7754290    -0.1091670
  H       -0.6200800     1.4811510    -1.2396720
  H       -2.3650680     1.2369900    -1.1776810
  H       -2.3202370     1.6568460     1.3177610
  H       -0.5663980     1.9180080     1.2126270
  H       -1.6843650     3.0420300     0.4158060
  H       -2.9458070    -0.7386130     0.8669600
  H       -2.1365070    -2.1105210     0.0765900
  H       -3.1412900    -0.9939370    -0.8846800
  H        2.3097600    -0.7656990     1.1223780
  H        2.4881280    -1.2160740    -0.5765640
  H        3.1624490     1.1443740    -1.1352360
  H        2.9853640     1.5953270     0.5713660
  H        4.2535110     0.4542820     0.0824610
units angstrom
no_reorient  #important for SAPT in psi4, default
symmetry c1  #important for SAPT in psi4, default
}

set PROPERTIES_ORIGIN ["COM"]
properties('MP2/aug-cc-pvtz', properties = ['dipole'])
--------------------------------------------------------------------------

    Molecular point group: c1
  Charge       = 0
  Multiplicity = 1
  Basis Set: AUG-CC-PVTZ
    Blend: AUG-CC-PVTZ
  Basis Set: (AUG-CC-PVTZ AUX)
    Blend: AUG-CC-PVTZ-JKFIT

    Orbital Energies [Eh]
    ---------------------

    Doubly Occupied:

       1A    -20.592795     2A    -20.515680     3A    -15.583080
       4A    -11.392700     5A    -11.283091     6A    -11.266434
       7A    -11.254755     8A    -11.222130     9A    -11.220006
      10A     -1.447907    11A     -1.338859    12A     -1.249636
      13A     -1.036334    14A     -1.025933    15A     -0.948236
      16A     -0.876926    17A     -0.843046    18A     -0.761622
      19A     -0.715189    20A     -0.682745    21A     -0.672898
      22A     -0.634608    23A     -0.613927    24A     -0.595737
      25A     -0.579087    26A     -0.569491    27A     -0.560366
      28A     -0.539272    29A     -0.535403    30A     -0.521938
      31A     -0.508502    32A     -0.506481    33A     -0.496300
      34A     -0.455170    35A     -0.442395    36A     -0.372924

  @DF-RHF Final Energy:  -439.13710008823568

   => Energetics <=

    Nuclear Repulsion Energy =            492.6188948347216296
    One-Electron Energy =               -1575.7887857291959790
    Two-Electron Energy =                 644.0327908062386086
    Total Energy =                       -439.1371000882356839
  Basis Set: (AUG-CC-PVTZ AUX)
    Blend: AUG-CC-PVTZ-RI
    Molecular point group: c1

    Geometry (in Angstrom), charge = 0, multiplicity = 1:

       Center              X                  Y                   Z               Mass
    ------------   -----------------  -----------------  -----------------  -----------------
         O            0.946114747047     0.172390905318    -0.174569203073    15.994914619570
         O            0.162684747047    -1.904239094682     0.378440796927    15.994914619570
         N           -1.261698552953    -0.218873194682    -0.282103903073    14.003074004430
         C           -1.442417252953     1.194154905318    -0.601903203073    12.000000000000
         C           -1.512971252953     2.040459905318     0.665174796927    12.000000000000
         C           -2.445983252953    -1.023598094682    -0.047994203073    12.000000000000
         C           -0.044293252953    -0.755960094682    -0.001368203073    12.000000000000
         C            2.272152747047    -0.333417094682     0.098731796927    12.000000000000
         C            3.221364747047     0.824995905318    -0.109545203073    12.000000000000
         H           -0.624403252953     1.530717905318    -1.240050203073     1.007825032230
         H           -2.369391252953     1.286556905318    -1.178059203073     1.007825032230
         H           -2.324560252953     1.706412905318     1.317382796927     1.007825032230
         H           -0.570721252953     1.967574905318     1.212248796927     1.007825032230
         H           -1.688688252953     3.091596905318     0.415427796927     1.007825032230
         H           -2.950130252953    -0.689046094682     0.866581796927     1.007825032230
         H           -2.140830252953    -2.060954094682     0.076211796927     1.007825032230
         H           -3.145613252953    -0.944370094682    -0.885058203073     1.007825032230
         H            2.305436747047    -0.716132094682     1.121999796927     1.007825032230
         H            2.483804747047    -1.166507094682    -0.576942203073     1.007825032230
         H            3.158125747047     1.193940905318    -1.135614203073     1.007825032230
         H            2.981040747047     1.644893905318     0.570987796927     1.007825032230
         H            4.249187747047     0.503848905318     0.082082796927     1.007825032230

  Basis Set: AUG-CC-PVTZ
    Blend: AUG-CC-PVTZ
  Basis Set: (AUG-CC-PVTZ AUX)
    Blend: AUG-CC-PVTZ-JKFIT
	 Reference Energy          =    -439.1371000882356839 [Eh]
	 Singles Energy            =      -0.0000000000000000 [Eh]
	 Same-Spin Energy          =      -0.4416371793508024 [Eh]
	 Opposite-Spin Energy      =      -1.4589202669522421 [Eh]
	 Correlation Energy        =      -1.9005574463030446 [Eh]
	 Total Energy              =    -441.0376575345387096 [Eh]

	 ================> DF-SCS-MP2 Energies <==================
	-----------------------------------------------------------
	 SCS Same-Spin Scale       =       0.3333333333333333 [-]
	 SCS Opposite-Spin Scale   =       1.2000000000000000 [-]
	 SCS Same-Spin Energy      =      -0.1472123931169341 [Eh]
	 SCS Opposite-Spin Energy  =      -1.7507043203426904 [Eh]
	 SCS Correlation Energy    =      -1.8979167134596246 [Eh]
	 SCS Total Energy          =    -441.0350168016952921 [Eh]
	-----------------------------------------------------------

  Dipole Moment: [D]
     X:    -0.6425      Y:     2.4182      Z:    -0.5943     Total:     2.5717

*** Psi4 exiting successfully. Buy a developer a beer!
