                               Psi4 1.3.2 release

  ==> Input File <==

--------------------------------------------------------------------------
#psi4
#
memory 32 gb

molecule  {
0 1
  O        0.9504380     0.1228240    -0.1741910
  O        0.1670080    -1.9538060     0.3788190
  N       -1.2573980    -0.2788160    -0.3316190
  C       -1.4632191     1.1417731    -0.5983465
  C       -1.5086480     1.9908930     0.6655530
  C       -2.4416600    -1.0731650    -0.0476160
  C       -0.0399700    -0.8055270    -0.0009900
  C        2.2764760    -0.3829840     0.0991100
  C        3.2256880     0.7754290    -0.1091670
  H       -0.6200800     1.4811510    -1.2396720
  H       -2.3650680     1.2369900    -1.1776810
  H       -2.3202370     1.6568460     1.3177610
  H       -0.5663980     1.9180080     1.2126270
  H       -1.6843650     3.0420300     0.4158060
  H       -2.9458070    -0.7386130     0.8669600
  H       -2.1365070    -2.1105210     0.0765900
  H       -3.1412900    -0.9939370    -0.8846800
  H        2.3097600    -0.7656990     1.1223780
  H        2.4881280    -1.2160740    -0.5765640
  H        3.1624490     1.1443740    -1.1352360
  H        2.9853640     1.5953270     0.5713660
  H        4.2535110     0.4542820     0.0824610
units angstrom
no_reorient  #important for SAPT in psi4, default
symmetry c1  #important for SAPT in psi4, default
}

set PROPERTIES_ORIGIN ["COM"]
properties('MP2/aug-cc-pvtz', properties = ['dipole'])
--------------------------------------------------------------------------

    Molecular point group: c1
  Charge       = 0
  Multiplicity = 1
  Basis Set: AUG-CC-PVTZ
    Blend: AUG-CC-PVTZ
  Basis Set: (AUG-CC-PVTZ AUX)
    Blend: AUG-CC-PVTZ-JKFIT

    Orbital Energies [Eh]
    ---------------------

    Doubly Occupied:

       1A    -20.593446     2A    -20.517946     3A    -15.583327
       4A    -11.394431     5A    -11.283410     6A    -11.265806
       7A    -11.253914     8A    -11.222291     9A    -11.220827
      10A     -1.448181    11A     -1.339870    12A     -1.248109
      13A     -1.036561    14A     -1.025450    15A     -0.946654
      16A     -0.878568    17A     -0.842863    18A     -0.761804
      19A     -0.711190    20A     -0.682759    21A     -0.674067
      22A     -0.635450    23A     -0.615534    24A     -0.593749
      25A     -0.580123    26A     -0.567874    27A     -0.559979
      28A     -0.540331    29A     -0.535505    30A     -0.521977
      31A     -0.509648    32A     -0.507331    33A     -0.492986
      34A     -0.455631    35A     -0.443754    36A     -0.374349

  @DF-RHF Final Energy:  -439.13623936850877

   => Energetics <=

    Nuclear Repulsion Energy =            492.1657712818225150
    One-Electron Energy =               -1574.8726327290064546
    Two-Electron Energy =                 643.5706220786751146
    Total Energy =                       -439.1362393685087682
  Basis Set: (AUG-CC-PVTZ AUX)
    Blend: AUG-CC-PVTZ-RI
    Molecular point group: c1

    Geometry (in Angstrom), charge = 0, multiplicity = 1:

       Center              X                  Y                   Z               Mass
    ------------   -----------------  -----------------  -----------------  -----------------
         O            0.948417046331     0.173756890312    -0.169530723778    15.994914619570
         O            0.164987046331    -1.902873109688     0.383479276222    15.994914619570
         N           -1.259418953669    -0.227883109688    -0.326958723778    14.003074004430
         C           -1.465240053669     1.192705990312    -0.593686223778    12.000000000000
         C           -1.510668953669     2.041825890312     0.670213276222    12.000000000000
         C           -2.443680953669    -1.022232109688    -0.042955723778    12.000000000000
         C           -0.041990953669    -0.754594109688     0.003670276222    12.000000000000
         C            2.274455046331    -0.332051109688     0.103770276222    12.000000000000
         C            3.223667046331     0.826361890312    -0.104506723778    12.000000000000
         H           -0.622100953669     1.532083890312    -1.235011723778     1.007825032230
         H           -2.367088953669     1.287922890312    -1.173020723778     1.007825032230
         H           -2.322257953669     1.707778890312     1.322421276222     1.007825032230
         H           -0.568418953669     1.968940890312     1.217287276222     1.007825032230
         H           -1.686385953669     3.092962890312     0.420466276222     1.007825032230
         H           -2.947827953669    -0.687680109688     0.871620276222     1.007825032230
         H           -2.138527953669    -2.059588109688     0.081250276222     1.007825032230
         H           -3.143310953669    -0.943004109688    -0.880019723778     1.007825032230
         H            2.307739046331    -0.714766109688     1.127038276222     1.007825032230
         H            2.486107046331    -1.165141109688    -0.571903723778     1.007825032230
         H            3.160428046331     1.195306890312    -1.130575723778     1.007825032230
         H            2.983343046331     1.646259890312     0.576026276222     1.007825032230
         H            4.251490046331     0.505214890312     0.087121276222     1.007825032230

  Basis Set: AUG-CC-PVTZ
    Blend: AUG-CC-PVTZ
  Basis Set: (AUG-CC-PVTZ AUX)
    Blend: AUG-CC-PVTZ-JKFIT
	 Reference Energy          =    -439.1362393685087682 [Eh]
	 Singles Energy            =      -0.0000000000000000 [Eh]
	 Same-Spin Energy          =      -0.4416896830877809 [Eh]
	 Opposite-Spin Energy      =      -1.4591453542805579 [Eh]
	 Correlation Energy        =      -1.9008350373683389 [Eh]
	 Total Energy              =    -441.0370744058770924 [Eh]

	 ================> DF-SCS-MP2 Energies <==================
	-----------------------------------------------------------
	 SCS Same-Spin Scale       =       0.3333333333333333 [-]
	 SCS Opposite-Spin Scale   =       1.2000000000000000 [-]
	 SCS Same-Spin Energy      =      -0.1472298943625936 [Eh]
	 SCS Opposite-Spin Energy  =      -1.7509744251366695 [Eh]
	 SCS Correlation Energy    =      -1.8982043194992630 [Eh]
	 SCS Total Energy          =    -441.0344436880080252 [Eh]
	-----------------------------------------------------------

  Dipole Moment: [D]
     X:    -0.6000      Y:     2.4174      Z:    -0.4979     Total:     2.5401

*** Psi4 exiting successfully. Buy a developer a beer!
