                               Psi4 1.3.2 release

  ==> Input File <==

--------------------------------------------------------------------------
#psi4
#
memory 32 gb

molecule  {
0 1
  O        0.9504380     0.1228240    -0.1741910
  O        0.1670080    -1.9538060     0.3788190
  N       -1.2579903    -0.2425384    -0.1831683
  C       -1.4380940     1.1445880    -0.6015250
  C       -1.5086480     1.9908930     0.6655530
  C       -2.4416600    -1.0731650    -0.0476160
  C       -0.0399700    -0.8055270    -0.0009900
  C        2.2764760    -0.3829840     0.0991100
  C        3.2256880     0.7754290    -0.1091670
  H       -0.6200800     1.4811510    -1.2396720
  H       -2.3650680     1.2369900    -1.1776810
  H       -2.3202370     1.6568460     1.3177610
  H       -0.5663980     1.9180080     1.2126270
  H       -1.6843650     3.0420300     0.4158060
  H       -2.9458070    -0.7386130     0.8669600
  H       -2.1365070    -2.1105210     0.0765900
  H       -3.1412900    -0.9939370    -0.8846800
  H        2.3097600    -0.7656990     1.1223780
  H        2.4881280    -1.2160740    -0.5765640
  H        3.1624490     1.1443740    -1.1352360
  H        2.9853640     1.5953270     0.5713660
  H        4.2535110     0.4542820     0.0824610
units angstrom
no_reorient  #important for SAPT in psi4, default
symmetry c1  #important for SAPT in psi4, default
}

set PROPERTIES_ORIGIN ["COM"]
properties('MP2/aug-cc-pvtz', properties = ['dipole'])
--------------------------------------------------------------------------

    Molecular point group: c1
  Charge       = 0
  Multiplicity = 1
  Basis Set: AUG-CC-PVTZ
    Blend: AUG-CC-PVTZ
  Basis Set: (AUG-CC-PVTZ AUX)
    Blend: AUG-CC-PVTZ-JKFIT

    Orbital Energies [Eh]
    ---------------------

    Doubly Occupied:

       1A    -20.592051     2A    -20.514154     3A    -15.582987
       4A    -11.391526     5A    -11.282688     6A    -11.266963
       7A    -11.255351     8A    -11.221873     9A    -11.218186
      10A     -1.447633    11A     -1.338116    12A     -1.250824
      13A     -1.036258    14A     -1.026164    15A     -0.949001
      16A     -0.874201    17A     -0.843216    18A     -0.761846
      19A     -0.718897    20A     -0.682304    21A     -0.672935
      22A     -0.632597    23A     -0.614945    24A     -0.596732
      25A     -0.578228    26A     -0.571022    27A     -0.560382
      28A     -0.537902    29A     -0.532653    30A     -0.522460
      31A     -0.508244    32A     -0.505162    33A     -0.495472
      34A     -0.454648    35A     -0.441729    36A     -0.371724

  @DF-RHF Final Energy:  -439.13315342307874

   => Energetics <=

    Nuclear Repulsion Energy =            493.0512286302616758
    One-Electron Energy =               -1576.6666151339529733
    Two-Electron Energy =                 644.4822330806125592
    Total Energy =                       -439.1331534230787383
  Basis Set: (AUG-CC-PVTZ AUX)
    Blend: AUG-CC-PVTZ-RI
    Molecular point group: c1

    Geometry (in Angstrom), charge = 0, multiplicity = 1:

       Center              X                  Y                   Z               Mass
    ------------   -----------------  -----------------  -----------------  -----------------
         O            0.946180439216     0.169624175471    -0.185096763050    15.994914619570
         O            0.162750439216    -1.907005824529     0.367913236950    15.994914619570
         N           -1.262247860784    -0.195738224529    -0.194074063050    14.003074004430
         C           -1.442351560784     1.191388175471    -0.612430763050    12.000000000000
         C           -1.512905560784     2.037693175471     0.654647236950    12.000000000000
         C           -2.445917560784    -1.026364824529    -0.058521763050    12.000000000000
         C           -0.044227560784    -0.758726824529    -0.011895763050    12.000000000000
         C            2.272218439216    -0.336183824529     0.088204236950    12.000000000000
         C            3.221430439216     0.822229175471    -0.120072763050    12.000000000000
         H           -0.624337560784     1.527951175471    -1.250577763050     1.007825032230
         H           -2.369325560784     1.283790175471    -1.188586763050     1.007825032230
         H           -2.324494560784     1.703646175471     1.306855236950     1.007825032230
         H           -0.570655560784     1.964808175471     1.201721236950     1.007825032230
         H           -1.688622560784     3.088830175471     0.404900236950     1.007825032230
         H           -2.950064560784    -0.691812824529     0.856054236950     1.007825032230
         H           -2.140764560784    -2.063720824529     0.065684236950     1.007825032230
         H           -3.145547560784    -0.947136824529    -0.895585763050     1.007825032230
         H            2.305502439216    -0.718898824529     1.111472236950     1.007825032230
         H            2.483870439216    -1.169273824529    -0.587469763050     1.007825032230
         H            3.158191439216     1.191174175471    -1.146141763050     1.007825032230
         H            2.981106439216     1.642127175471     0.560460236950     1.007825032230
         H            4.249253439216     0.501082175471     0.071555236950     1.007825032230

  Basis Set: AUG-CC-PVTZ
    Blend: AUG-CC-PVTZ
  Basis Set: (AUG-CC-PVTZ AUX)
    Blend: AUG-CC-PVTZ-JKFIT
	 Reference Energy          =    -439.1331534230787383 [Eh]
	 Singles Energy            =      -0.0000000000000000 [Eh]
	 Same-Spin Energy          =      -0.4418105380950003 [Eh]
	 Opposite-Spin Energy      =      -1.4592518746964342 [Eh]
	 Correlation Energy        =      -1.9010624127914344 [Eh]
	 Total Energy              =    -441.0342158358701568 [Eh]

	 ================> DF-SCS-MP2 Energies <==================
	-----------------------------------------------------------
	 SCS Same-Spin Scale       =       0.3333333333333333 [-]
	 SCS Opposite-Spin Scale   =       1.2000000000000000 [-]
	 SCS Same-Spin Energy      =      -0.1472701793650001 [Eh]
	 SCS Opposite-Spin Energy  =      -1.7511022496357211 [Eh]
	 SCS Correlation Energy    =      -1.8983724290007213 [Eh]
	 SCS Total Energy          =    -441.0315258520794828 [Eh]
	-----------------------------------------------------------

  Dipole Moment: [D]
     X:    -0.6909      Y:     2.3778      Z:    -0.7570     Total:     2.5893

*** Psi4 exiting successfully. Buy a developer a beer!
