                               Psi4 1.3.2 release

  ==> Input File <==

--------------------------------------------------------------------------
#psi4
#
memory 32 gb

molecule  {
0 1
  O        0.9504380     0.1228240    -0.1741910
  O        0.1670080    -1.9538060     0.3788190
  N       -1.2573980    -0.2788160    -0.3316190
  C       -1.3371198     1.1515052    -0.6134077
  C       -1.5086480     1.9908930     0.6655530
  C       -2.4416600    -1.0731650    -0.0476160
  C       -0.0399700    -0.8055270    -0.0009900
  C        2.2764760    -0.3829840     0.0991100
  C        3.2256880     0.7754290    -0.1091670
  H       -0.6200800     1.4811510    -1.2396720
  H       -2.3650680     1.2369900    -1.1776810
  H       -2.3202370     1.6568460     1.3177610
  H       -0.5663980     1.9180080     1.2126270
  H       -1.6843650     3.0420300     0.4158060
  H       -2.9458070    -0.7386130     0.8669600
  H       -2.1365070    -2.1105210     0.0765900
  H       -3.1412900    -0.9939370    -0.8846800
  H        2.3097600    -0.7656990     1.1223780
  H        2.4881280    -1.2160740    -0.5765640
  H        3.1624490     1.1443740    -1.1352360
  H        2.9853640     1.5953270     0.5713660
  H        4.2535110     0.4542820     0.0824610
units angstrom
no_reorient  #important for SAPT in psi4, default
symmetry c1  #important for SAPT in psi4, default
}

set PROPERTIES_ORIGIN ["COM"]
properties('MP2/aug-cc-pvtz', properties = ['dipole'])
--------------------------------------------------------------------------

    Molecular point group: c1
  Charge       = 0
  Multiplicity = 1
  Basis Set: AUG-CC-PVTZ
    Blend: AUG-CC-PVTZ
  Basis Set: (AUG-CC-PVTZ AUX)
    Blend: AUG-CC-PVTZ-JKFIT

    Orbital Energies [Eh]
    ---------------------

    Doubly Occupied:

       1A    -20.594294     2A    -20.516878     3A    -15.584356
       4A    -11.392180     5A    -11.284095     6A    -11.267152
       7A    -11.256539     8A    -11.222922     9A    -11.221556
      10A     -1.449168    11A     -1.339665    12A     -1.248418
      13A     -1.036474    14A     -1.024551    15A     -0.948295
      16A     -0.876437    17A     -0.844093    18A     -0.763118
      19A     -0.722943    20A     -0.683484    21A     -0.670341
      22A     -0.635013    23A     -0.605578    24A     -0.597079
      25A     -0.580895    26A     -0.568447    27A     -0.561678
      28A     -0.545126    29A     -0.538105    30A     -0.524866
      31A     -0.508272    32A     -0.505692    33A     -0.489449
      34A     -0.456164    35A     -0.440644    36A     -0.373600

  @DF-RHF Final Energy:  -439.12445171031567

   => Energetics <=

    Nuclear Repulsion Energy =            492.7700849348549923
    One-Electron Energy =               -1576.0339422962426852
    Two-Electron Energy =                 644.1394056510720247
    Total Energy =                       -439.1244517103156113
  Basis Set: (AUG-CC-PVTZ AUX)
    Blend: AUG-CC-PVTZ-RI
    Molecular point group: c1

    Geometry (in Angstrom), charge = 0, multiplicity = 1:

       Center              X                  Y                   Z               Mass
    ------------   -----------------  -----------------  -----------------  -----------------
         O            0.936874303387     0.172866043745    -0.168152067750    15.994914619570
         O            0.153444303387    -1.903763956255     0.384857932250    15.994914619570
         N           -1.270961696613    -0.228773956255    -0.325580067750    14.003074004430
         C           -1.350683496613     1.201547243745    -0.607368767750    12.000000000000
         C           -1.522211696613     2.040935043745     0.671591932250    12.000000000000
         C           -2.455223696613    -1.023122956255    -0.041577067750    12.000000000000
         C           -0.053533696613    -0.755484956255     0.005048932250    12.000000000000
         C            2.262912303387    -0.332941956255     0.105148932250    12.000000000000
         C            3.212124303387     0.825471043745    -0.103128067750    12.000000000000
         H           -0.633643696613     1.531193043745    -1.233633067750     1.007825032230
         H           -2.378631696613     1.287032043745    -1.171642067750     1.007825032230
         H           -2.333800696613     1.706888043745     1.323799932250     1.007825032230
         H           -0.579961696613     1.968050043745     1.218665932250     1.007825032230
         H           -1.697928696613     3.092072043745     0.421844932250     1.007825032230
         H           -2.959370696613    -0.688570956255     0.872998932250     1.007825032230
         H           -2.150070696613    -2.060478956255     0.082628932250     1.007825032230
         H           -3.154853696613    -0.943894956255    -0.878641067750     1.007825032230
         H            2.296196303387    -0.715656956255     1.128416932250     1.007825032230
         H            2.474564303387    -1.166031956255    -0.570525067750     1.007825032230
         H            3.148885303387     1.194416043745    -1.129197067750     1.007825032230
         H            2.971800303387     1.645369043745     0.577404932250     1.007825032230
         H            4.239947303387     0.504324043745     0.088499932250     1.007825032230

  Basis Set: AUG-CC-PVTZ
    Blend: AUG-CC-PVTZ
  Basis Set: (AUG-CC-PVTZ AUX)
    Blend: AUG-CC-PVTZ-JKFIT
	 Reference Energy          =    -439.1244517103156682 [Eh]
	 Singles Energy            =      -0.0000000000000000 [Eh]
	 Same-Spin Energy          =      -0.4417565552471140 [Eh]
	 Opposite-Spin Energy      =      -1.4596102772485557 [Eh]
	 Correlation Energy        =      -1.9013668324956696 [Eh]
	 Total Energy              =    -441.0258185428113507 [Eh]

	 ================> DF-SCS-MP2 Energies <==================
	-----------------------------------------------------------
	 SCS Same-Spin Scale       =       0.3333333333333333 [-]
	 SCS Opposite-Spin Scale   =       1.2000000000000000 [-]
	 SCS Same-Spin Energy      =      -0.1472521850823713 [Eh]
	 SCS Opposite-Spin Energy  =      -1.7515323326982668 [Eh]
	 SCS Correlation Energy    =      -1.8987845177806382 [Eh]
	 SCS Total Energy          =    -441.0232362280963230 [Eh]
	-----------------------------------------------------------

  Dipole Moment: [D]
     X:    -0.5170      Y:     2.3743      Z:    -0.4873     Total:     2.4783

*** Psi4 exiting successfully. Buy a developer a beer!
