                               Psi4 1.3.2 release

  ==> Input File <==

--------------------------------------------------------------------------
#psi4
#
memory 32 gb

molecule  {
0 1
  O        0.9504380     0.1228240    -0.1741910
  O        0.1670080    -1.9538060     0.3788190
  N       -1.2675124    -0.2721105    -0.3539062
  C       -1.4380940     1.1445880    -0.6015250
  C       -1.5086480     1.9908930     0.6655530
  C       -2.4416600    -1.0731650    -0.0476160
  C       -0.0399700    -0.8055270    -0.0009900
  C        2.2764760    -0.3829840     0.0991100
  C        3.2256880     0.7754290    -0.1091670
  H       -0.6200800     1.4811510    -1.2396720
  H       -2.3650680     1.2369900    -1.1776810
  H       -2.3202370     1.6568460     1.3177610
  H       -0.5663980     1.9180080     1.2126270
  H       -1.6843650     3.0420300     0.4158060
  H       -2.9458070    -0.7386130     0.8669600
  H       -2.1365070    -2.1105210     0.0765900
  H       -3.1412900    -0.9939370    -0.8846800
  H        2.3097600    -0.7656990     1.1223780
  H        2.4881280    -1.2160740    -0.5765640
  H        3.1624490     1.1443740    -1.1352360
  H        2.9853640     1.5953270     0.5713660
  H        4.2535110     0.4542820     0.0824610
units angstrom
no_reorient  #important for SAPT in psi4, default
symmetry c1  #important for SAPT in psi4, default
}

set PROPERTIES_ORIGIN ["COM"]
properties('MP2/aug-cc-pvtz', properties = ['dipole'])
--------------------------------------------------------------------------

    Molecular point group: c1
  Charge       = 0
  Multiplicity = 1
  Basis Set: AUG-CC-PVTZ
    Blend: AUG-CC-PVTZ
  Basis Set: (AUG-CC-PVTZ AUX)
    Blend: AUG-CC-PVTZ-JKFIT

    Orbital Energies [Eh]
    ---------------------

    Doubly Occupied:

       1A    -20.594847     2A    -20.521105     3A    -15.583003
       4A    -11.396595     5A    -11.284262     6A    -11.263840
       7A    -11.253583     8A    -11.222862     9A    -11.220100
      10A     -1.448837    11A     -1.341283    12A     -1.247396
      13A     -1.036806    14A     -1.024355    15A     -0.944408
      16A     -0.878835    17A     -0.842255    18A     -0.762509
      19A     -0.712014    20A     -0.683081    21A     -0.673803
      22A     -0.635713    23A     -0.613671    24A     -0.593524
      25A     -0.581204    26A     -0.567215    27A     -0.559616
      28A     -0.542529    29A     -0.534765    30A     -0.520754
      31A     -0.509087    32A     -0.507071    33A     -0.496925
      34A     -0.456578    35A     -0.444714    36A     -0.373711

  @DF-RHF Final Energy:  -439.13588932206738

   => Energetics <=

    Nuclear Repulsion Energy =            492.0158493442091299
    One-Electron Energy =               -1574.5577687820461961
    Two-Electron Energy =                 643.4060301157697950
    Total Energy =                       -439.1358893220673281
  Basis Set: (AUG-CC-PVTZ AUX)
    Blend: AUG-CC-PVTZ-RI
    Molecular point group: c1

    Geometry (in Angstrom), charge = 0, multiplicity = 1:

       Center              X                  Y                   Z               Mass
    ------------   -----------------  -----------------  -----------------  -----------------
         O            0.947197556945     0.172782964729    -0.166859132161    15.994914619570
         O            0.163767556945    -1.903847035271     0.386150867839    15.994914619570
         N           -1.270752843055    -0.222151535271    -0.346574332161    14.003074004430
         C           -1.441334443055     1.194546964729    -0.594193132161    12.000000000000
         C           -1.511888443055     2.040851964729     0.672884867839    12.000000000000
         C           -2.444900443055    -1.023206035271    -0.040284132161    12.000000000000
         C           -0.043210443055    -0.755568035271     0.006341867839    12.000000000000
         C            2.273235556945    -0.333025035271     0.106441867839    12.000000000000
         C            3.222447556945     0.825387964729    -0.101835132161    12.000000000000
         H           -0.623320443055     1.531109964729    -1.232340132161     1.007825032230
         H           -2.368308443055     1.286948964729    -1.170349132161     1.007825032230
         H           -2.323477443055     1.706804964729     1.325092867839     1.007825032230
         H           -0.569638443055     1.967966964729     1.219958867839     1.007825032230
         H           -1.687605443055     3.091988964729     0.423137867839     1.007825032230
         H           -2.949047443055    -0.688654035271     0.874291867839     1.007825032230
         H           -2.139747443055    -2.060562035271     0.083921867839     1.007825032230
         H           -3.144530443055    -0.943978035271    -0.877348132161     1.007825032230
         H            2.306519556945    -0.715740035271     1.129709867839     1.007825032230
         H            2.484887556945    -1.166115035271    -0.569232132161     1.007825032230
         H            3.159208556945     1.194332964729    -1.127904132161     1.007825032230
         H            2.982123556945     1.645285964729     0.578697867839     1.007825032230
         H            4.250270556945     0.504240964729     0.089792867839     1.007825032230

  Basis Set: AUG-CC-PVTZ
    Blend: AUG-CC-PVTZ
  Basis Set: (AUG-CC-PVTZ AUX)
    Blend: AUG-CC-PVTZ-JKFIT
	 Reference Energy          =    -439.1358893220673849 [Eh]
	 Singles Energy            =      -0.0000000000000000 [Eh]
	 Same-Spin Energy          =      -0.4418270580725460 [Eh]
	 Opposite-Spin Energy      =      -1.4594281312492645 [Eh]
	 Correlation Energy        =      -1.9012551893218106 [Eh]
	 Total Energy              =    -441.0371445113892150 [Eh]

	 ================> DF-SCS-MP2 Energies <==================
	-----------------------------------------------------------
	 SCS Same-Spin Scale       =       0.3333333333333333 [-]
	 SCS Opposite-Spin Scale   =       1.2000000000000000 [-]
	 SCS Same-Spin Energy      =      -0.1472756860241820 [Eh]
	 SCS Opposite-Spin Energy  =      -1.7513137574991173 [Eh]
	 SCS Correlation Energy    =      -1.8985894435232993 [Eh]
	 SCS Total Energy          =    -441.0344787655906771 [Eh]
	-----------------------------------------------------------

  Dipole Moment: [D]
     X:    -0.4832      Y:     2.3508      Z:    -0.4487     Total:     2.4415

*** Psi4 exiting successfully. Buy a developer a beer!
