                               Psi4 1.3.2 release

  ==> Input File <==

--------------------------------------------------------------------------
#psi4
#
memory 32 gb

molecule  {
0 1
  O        0.9504380     0.1228240    -0.1741910
  O        0.1670080    -1.9538060     0.3788190
  N       -1.2576408    -0.2874577    -0.3818411
  C       -1.4380940     1.1445880    -0.6015250
  C       -1.5086480     1.9908930     0.6655530
  C       -2.4416600    -1.0731650    -0.0476160
  C       -0.0399700    -0.8055270    -0.0009900
  C        2.2764760    -0.3829840     0.0991100
  C        3.2256880     0.7754290    -0.1091670
  H       -0.6200800     1.4811510    -1.2396720
  H       -2.3650680     1.2369900    -1.1776810
  H       -2.3202370     1.6568460     1.3177610
  H       -0.5663980     1.9180080     1.2126270
  H       -1.6843650     3.0420300     0.4158060
  H       -2.9458070    -0.7386130     0.8669600
  H       -2.1365070    -2.1105210     0.0765900
  H       -3.1412900    -0.9939370    -0.8846800
  H        2.3097600    -0.7656990     1.1223780
  H        2.4881280    -1.2160740    -0.5765640
  H        3.1624490     1.1443740    -1.1352360
  H        2.9853640     1.5953270     0.5713660
  H        4.2535110     0.4542820     0.0824610
units angstrom
no_reorient  #important for SAPT in psi4, default
symmetry c1  #important for SAPT in psi4, default
}

set PROPERTIES_ORIGIN ["COM"]
properties('MP2/aug-cc-pvtz', properties = ['dipole'])
--------------------------------------------------------------------------

    Molecular point group: c1
  Charge       = 0
  Multiplicity = 1
  Basis Set: AUG-CC-PVTZ
    Blend: AUG-CC-PVTZ
  Basis Set: (AUG-CC-PVTZ AUX)
    Blend: AUG-CC-PVTZ-JKFIT

    Orbital Energies [Eh]
    ---------------------

    Doubly Occupied:

       1A    -20.594486     2A    -20.520359     3A    -15.583860
       4A    -11.395417     5A    -11.284020     6A    -11.264702
       7A    -11.253918     8A    -11.222717     9A    -11.221376
      10A     -1.448805    11A     -1.340975    12A     -1.245774
      13A     -1.036598    14A     -1.024311    15A     -0.945025
      16A     -0.878499    17A     -0.842608    18A     -0.762240
      19A     -0.710250    20A     -0.682877    21A     -0.673456
      22A     -0.635368    23A     -0.613182    24A     -0.593594
      25A     -0.581464    26A     -0.566015    27A     -0.559647
      28A     -0.542931    29A     -0.535092    30A     -0.519619
      31A     -0.509177    32A     -0.507027    33A     -0.495987
      34A     -0.456346    35A     -0.444461    36A     -0.376441

  @DF-RHF Final Energy:  -439.13575588341115

   => Energetics <=

    Nuclear Repulsion Energy =            491.8663786162941847
    One-Electron Energy =               -1574.2670223500226712
    Two-Electron Energy =                 643.2648878503173364
    Total Energy =                       -439.1357558834110932
  Basis Set: (AUG-CC-PVTZ AUX)
    Blend: AUG-CC-PVTZ-RI
    Molecular point group: c1

    Geometry (in Angstrom), charge = 0, multiplicity = 1:

       Center              X                  Y                   Z               Mass
    ------------   -----------------  -----------------  -----------------  -----------------
         O            0.946143106837     0.174422299456    -0.163875222935    15.994914619570
         O            0.162713106837    -1.902207700544     0.389134777065    15.994914619570
         N           -1.261935693163    -0.235859400544    -0.371525322935    14.003074004430
         C           -1.442388893163     1.196186299456    -0.591209222935    12.000000000000
         C           -1.512942893163     2.042491299456     0.675868777065    12.000000000000
         C           -2.445954893163    -1.021566700544    -0.037300222935    12.000000000000
         C           -0.044264893163    -0.753928700544     0.009325777065    12.000000000000
         C            2.272181106837    -0.331385700544     0.109425777065    12.000000000000
         C            3.221393106837     0.827027299456    -0.098851222935    12.000000000000
         H           -0.624374893163     1.532749299456    -1.229356222935     1.007825032230
         H           -2.369362893163     1.288588299456    -1.167365222935     1.007825032230
         H           -2.324531893163     1.708444299456     1.328076777065     1.007825032230
         H           -0.570692893163     1.969606299456     1.222942777065     1.007825032230
         H           -1.688659893163     3.093628299456     0.426121777065     1.007825032230
         H           -2.950101893163    -0.687014700544     0.877275777065     1.007825032230
         H           -2.140801893163    -2.058922700544     0.086905777065     1.007825032230
         H           -3.145584893163    -0.942338700544    -0.874364222935     1.007825032230
         H            2.305465106837    -0.714100700544     1.132693777065     1.007825032230
         H            2.483833106837    -1.164475700544    -0.566248222935     1.007825032230
         H            3.158154106837     1.195972299456    -1.124920222935     1.007825032230
         H            2.981069106837     1.646925299456     0.581681777065     1.007825032230
         H            4.249216106837     0.505880299456     0.092776777065     1.007825032230

  Basis Set: AUG-CC-PVTZ
    Blend: AUG-CC-PVTZ
  Basis Set: (AUG-CC-PVTZ AUX)
    Blend: AUG-CC-PVTZ-JKFIT
	 Reference Energy          =    -439.1357558834111501 [Eh]
	 Singles Energy            =      -0.0000000000000000 [Eh]
	 Same-Spin Energy          =      -0.4417043571956408 [Eh]
	 Opposite-Spin Energy      =      -1.4593839698150743 [Eh]
	 Correlation Energy        =      -1.9010883270107151 [Eh]
	 Total Energy              =    -441.0368442104218616 [Eh]

	 ================> DF-SCS-MP2 Energies <==================
	-----------------------------------------------------------
	 SCS Same-Spin Scale       =       0.3333333333333333 [-]
	 SCS Opposite-Spin Scale   =       1.2000000000000000 [-]
	 SCS Same-Spin Energy      =      -0.1472347857318803 [Eh]
	 SCS Opposite-Spin Energy  =      -1.7512607637780893 [Eh]
	 SCS Correlation Energy    =      -1.8984955495099696 [Eh]
	 SCS Total Energy          =    -441.0342514329211099 [Eh]
	-----------------------------------------------------------

  Dipole Moment: [D]
     X:    -0.5112      Y:     2.3949      Z:    -0.3988     Total:     2.4811

*** Psi4 exiting successfully. Buy a developer a beer!
