                               Psi4 1.3.2 release

  ==> Input File <==

--------------------------------------------------------------------------
#psi4
#
memory 32 gb

molecule  {
0 1
  O        0.8995658    -0.0161059    -0.1426147
  O        0.1670080    -1.9538060     0.3788190
  N       -1.2573980    -0.2788160    -0.3316190
  C       -1.4380940     1.1445880    -0.6015250
  C       -1.5086480     1.9908930     0.6655530
  C       -2.4416600    -1.0731650    -0.0476160
  C       -0.0399700    -0.8055270    -0.0009900
  C        2.2764760    -0.3829840     0.0991100
  C        3.2256880     0.7754290    -0.1091670
  H       -0.6200800     1.4811510    -1.2396720
  H       -2.3650680     1.2369900    -1.1776810
  H       -2.3202370     1.6568460     1.3177610
  H       -0.5663980     1.9180080     1.2126270
  H       -1.6843650     3.0420300     0.4158060
  H       -2.9458070    -0.7386130     0.8669600
  H       -2.1365070    -2.1105210     0.0765900
  H       -3.1412900    -0.9939370    -0.8846800
  H        2.3097600    -0.7656990     1.1223780
  H        2.4881280    -1.2160740    -0.5765640
  H        3.1624490     1.1443740    -1.1352360
  H        2.9853640     1.5953270     0.5713660
  H        4.2535110     0.4542820     0.0824610
units angstrom
no_reorient  #important for SAPT in psi4, default
symmetry c1  #important for SAPT in psi4, default
}

set PROPERTIES_ORIGIN ["COM"]
properties('MP2/aug-cc-pvtz', properties = ['dipole'])
--------------------------------------------------------------------------

    Molecular point group: c1
  Charge       = 0
  Multiplicity = 1
  Basis Set: AUG-CC-PVTZ
    Blend: AUG-CC-PVTZ
  Basis Set: (AUG-CC-PVTZ AUX)
    Blend: AUG-CC-PVTZ-JKFIT

    Orbital Energies [Eh]
    ---------------------

    Doubly Occupied:

       1A    -20.593608     2A    -20.492348     3A    -15.572991
       4A    -11.375172     5A    -11.295826     6A    -11.264020
       7A    -11.248143     8A    -11.233183     9A    -11.220224
      10A     -1.498803    11A     -1.327048    12A     -1.242346
      13A     -1.056754    14A     -1.022990    15A     -0.947281
      16A     -0.886590    17A     -0.851763    18A     -0.774217
      19A     -0.717130    20A     -0.701477    21A     -0.672047
      22A     -0.632851    23A     -0.614476    24A     -0.596082
      25A     -0.584515    26A     -0.570764    27A     -0.561020
      28A     -0.553333    29A     -0.534545    30A     -0.520615
      31A     -0.509081    32A     -0.502009    33A     -0.494213
      34A     -0.446313    35A     -0.430179    36A     -0.368364

  @DF-RHF Final Energy:  -439.12986313640727

   => Energetics <=

    Nuclear Repulsion Energy =            495.2919148660741939
    One-Electron Energy =               -1581.0189150925318700
    Two-Electron Energy =                 646.5971370900504098
    Total Energy =                       -439.1298631364072662
  Basis Set: (AUG-CC-PVTZ AUX)
    Blend: AUG-CC-PVTZ-RI
    Molecular point group: c1

    Geometry (in Angstrom), charge = 0, multiplicity = 1:

       Center              X                  Y                   Z               Mass
    ------------   -----------------  -----------------  -----------------  -----------------
         O            0.901451911790     0.051520222605    -0.141516112211    15.994914619570
         O            0.168894111790    -1.886179877395     0.379917587789    15.994914619570
         N           -1.255511888210    -0.211189877395    -0.330520412211    14.003074004430
         C           -1.436207888210     1.212214122605    -0.600426412211    12.000000000000
         C           -1.506761888210     2.058519122605     0.666651587789    12.000000000000
         C           -2.439773888210    -1.005538877395    -0.046517412211    12.000000000000
         C           -0.038083888210    -0.737900877395     0.000108587789    12.000000000000
         C            2.278362111790    -0.315357877395     0.100208587789    12.000000000000
         C            3.227574111790     0.843055122605    -0.108068412211    12.000000000000
         H           -0.618193888210     1.548777122605    -1.238573412211     1.007825032230
         H           -2.363181888210     1.304616122605    -1.176582412211     1.007825032230
         H           -2.318350888210     1.724472122605     1.318859587789     1.007825032230
         H           -0.564511888210     1.985634122605     1.213725587789     1.007825032230
         H           -1.682478888210     3.109656122605     0.416904587789     1.007825032230
         H           -2.943920888210    -0.670986877395     0.868058587789     1.007825032230
         H           -2.134620888210    -2.042894877395     0.077688587789     1.007825032230
         H           -3.139403888210    -0.926310877395    -0.883581412211     1.007825032230
         H            2.311646111790    -0.698072877395     1.123476587789     1.007825032230
         H            2.490014111790    -1.148447877395    -0.575465412211     1.007825032230
         H            3.164335111790     1.212000122605    -1.134137412211     1.007825032230
         H            2.987250111790     1.662953122605     0.572464587789     1.007825032230
         H            4.255397111790     0.521908122605     0.083559587789     1.007825032230

  Basis Set: AUG-CC-PVTZ
    Blend: AUG-CC-PVTZ
  Basis Set: (AUG-CC-PVTZ AUX)
    Blend: AUG-CC-PVTZ-JKFIT
	 Reference Energy          =    -439.1298631364072662 [Eh]
	 Singles Energy            =      -0.0000000000000000 [Eh]
	 Same-Spin Energy          =      -0.4393055976864508 [Eh]
	 Opposite-Spin Energy      =      -1.4527338535479506 [Eh]
	 Correlation Energy        =      -1.8920394512344014 [Eh]
	 Total Energy              =    -441.0219025876416481 [Eh]

	 ================> DF-SCS-MP2 Energies <==================
	-----------------------------------------------------------
	 SCS Same-Spin Scale       =       0.3333333333333333 [-]
	 SCS Opposite-Spin Scale   =       1.2000000000000000 [-]
	 SCS Same-Spin Energy      =      -0.1464351992288169 [Eh]
	 SCS Opposite-Spin Energy  =      -1.7432806242575407 [Eh]
	 SCS Correlation Energy    =      -1.8897158234863576 [Eh]
	 SCS Total Energy          =    -441.0195789598936358 [Eh]
	-----------------------------------------------------------

  Dipole Moment: [D]
     X:     0.2356      Y:     2.9918      Z:    -0.6023     Total:     3.0609

*** Psi4 exiting successfully. Buy a developer a beer!
