                               Psi4 1.3.2 release

  ==> Input File <==

--------------------------------------------------------------------------
#psi4
#
memory 32 gb

molecule  {
0 1
  O        0.9504380     0.1228240    -0.1741910
  O        0.1670080    -1.9538060     0.3788190
  N       -1.2043871    -0.3240536    -0.1963186
  C       -1.4380940     1.1445880    -0.6015250
  C       -1.5086480     1.9908930     0.6655530
  C       -2.4416600    -1.0731650    -0.0476160
  C       -0.0399700    -0.8055270    -0.0009900
  C        2.2764760    -0.3829840     0.0991100
  C        3.2256880     0.7754290    -0.1091670
  H       -0.6200800     1.4811510    -1.2396720
  H       -2.3650680     1.2369900    -1.1776810
  H       -2.3202370     1.6568460     1.3177610
  H       -0.5663980     1.9180080     1.2126270
  H       -1.6843650     3.0420300     0.4158060
  H       -2.9458070    -0.7386130     0.8669600
  H       -2.1365070    -2.1105210     0.0765900
  H       -3.1412900    -0.9939370    -0.8846800
  H        2.3097600    -0.7656990     1.1223780
  H        2.4881280    -1.2160740    -0.5765640
  H        3.1624490     1.1443740    -1.1352360
  H        2.9853640     1.5953270     0.5713660
  H        4.2535110     0.4542820     0.0824610
units angstrom
no_reorient  #important for SAPT in psi4, default
symmetry c1  #important for SAPT in psi4, default
}

set PROPERTIES_ORIGIN ["COM"]
properties('MP2/aug-cc-pvtz', properties = ['dipole'])
--------------------------------------------------------------------------

    Molecular point group: c1
  Charge       = 0
  Multiplicity = 1
  Basis Set: AUG-CC-PVTZ
    Blend: AUG-CC-PVTZ
  Basis Set: (AUG-CC-PVTZ AUX)
    Blend: AUG-CC-PVTZ-JKFIT

    Orbital Energies [Eh]
    ---------------------

    Doubly Occupied:

       1A    -20.586592     2A    -20.497543     3A    -15.585484
       4A    -11.376529     5A    -11.279262     6A    -11.276857
       7A    -11.259231     8A    -11.224513     9A    -11.219787
      10A     -1.446426    11A     -1.333018    12A     -1.251496
      13A     -1.035656    14A     -1.029566    15A     -0.962703
      16A     -0.870332    17A     -0.844556    18A     -0.758267
      19A     -0.717701    20A     -0.682257    21A     -0.669030
      22A     -0.632827    23A     -0.612363    24A     -0.605779
      25A     -0.574487    26A     -0.569810    27A     -0.563129
      28A     -0.538675    29A     -0.533968    30A     -0.518353
      31A     -0.508111    32A     -0.504737    33A     -0.488921
      34A     -0.451083    35A     -0.432054    36A     -0.378507

  @DF-RHF Final Energy:  -439.12532466304640

   => Energetics <=

    Nuclear Repulsion Energy =            493.6532173208645418
    One-Electron Energy =               -1577.9178630755861832
    Two-Electron Energy =                 645.1393210916752423
    Total Energy =                       -439.1253246630463991
  Basis Set: (AUG-CC-PVTZ AUX)
    Blend: AUG-CC-PVTZ-RI
    Molecular point group: c1

    Geometry (in Angstrom), charge = 0, multiplicity = 1:

       Center              X                  Y                   Z               Mass
    ------------   -----------------  -----------------  -----------------  -----------------
         O            0.940454731121     0.178331346693    -0.183692093568    15.994914619570
         O            0.157024731121    -1.898298653307     0.369317906432    15.994914619570
         N           -1.214370368879    -0.268546253307    -0.205819693568    14.003074004430
         C           -1.448077268879     1.200095346693    -0.611026093568    12.000000000000
         C           -1.518631268879     2.046400346693     0.656051906432    12.000000000000
         C           -2.451643268879    -1.017657653307    -0.057117093568    12.000000000000
         C           -0.049953268879    -0.750019653307    -0.010491093568    12.000000000000
         C            2.266492731121    -0.327476653307     0.089608906432    12.000000000000
         C            3.215704731121     0.830936346693    -0.118668093568    12.000000000000
         H           -0.630063268879     1.536658346693    -1.249173093568     1.007825032230
         H           -2.375051268879     1.292497346693    -1.187182093568     1.007825032230
         H           -2.330220268879     1.712353346693     1.308259906432     1.007825032230
         H           -0.576381268879     1.973515346693     1.203125906432     1.007825032230
         H           -1.694348268879     3.097537346693     0.406304906432     1.007825032230
         H           -2.955790268879    -0.683105653307     0.857458906432     1.007825032230
         H           -2.146490268879    -2.055013653307     0.067088906432     1.007825032230
         H           -3.151273268879    -0.938429653307    -0.894181093568     1.007825032230
         H            2.299776731121    -0.710191653307     1.112876906432     1.007825032230
         H            2.478144731121    -1.160566653307    -0.586065093568     1.007825032230
         H            3.152465731121     1.199881346693    -1.144737093568     1.007825032230
         H            2.975380731121     1.650834346693     0.561864906432     1.007825032230
         H            4.243527731121     0.509789346693     0.072959906432     1.007825032230

  Basis Set: AUG-CC-PVTZ
    Blend: AUG-CC-PVTZ
  Basis Set: (AUG-CC-PVTZ AUX)
    Blend: AUG-CC-PVTZ-JKFIT
	 Reference Energy          =    -439.1253246630463991 [Eh]
	 Singles Energy            =      -0.0000000000000000 [Eh]
	 Same-Spin Energy          =      -0.4409710859791237 [Eh]
	 Opposite-Spin Energy      =      -1.4580439053670875 [Eh]
	 Correlation Energy        =      -1.8990149913462111 [Eh]
	 Total Energy              =    -441.0243396543926337 [Eh]

	 ================> DF-SCS-MP2 Energies <==================
	-----------------------------------------------------------
	 SCS Same-Spin Scale       =       0.3333333333333333 [-]
	 SCS Opposite-Spin Scale   =       1.2000000000000000 [-]
	 SCS Same-Spin Energy      =      -0.1469903619930412 [Eh]
	 SCS Opposite-Spin Energy  =      -1.7496526864405049 [Eh]
	 SCS Correlation Energy    =      -1.8966430484335461 [Eh]
	 SCS Total Energy          =    -441.0219677114799310 [Eh]
	-----------------------------------------------------------

  Dipole Moment: [D]
     X:    -1.1363      Y:     2.7664      Z:    -0.7820     Total:     3.0912

*** Psi4 exiting successfully. Buy a developer a beer!
