                               Psi4 1.3.2 release

  ==> Input File <==

--------------------------------------------------------------------------
#psi4
#
memory 32 gb

molecule  {
0 1
  O        0.9504380     0.1228240    -0.1741910
  O        0.1670080    -1.9538060     0.3788190
  N       -1.2573980    -0.2788160    -0.3316190
  C       -1.5381879     1.1307361    -0.5883273
  C       -1.5086480     1.9908930     0.6655530
  C       -2.4416600    -1.0731650    -0.0476160
  C       -0.0399700    -0.8055270    -0.0009900
  C        2.2764760    -0.3829840     0.0991100
  C        3.2256880     0.7754290    -0.1091670
  H       -0.6200800     1.4811510    -1.2396720
  H       -2.3650680     1.2369900    -1.1776810
  H       -2.3202370     1.6568460     1.3177610
  H       -0.5663980     1.9180080     1.2126270
  H       -1.6843650     3.0420300     0.4158060
  H       -2.9458070    -0.7386130     0.8669600
  H       -2.1365070    -2.1105210     0.0765900
  H       -3.1412900    -0.9939370    -0.8846800
  H        2.3097600    -0.7656990     1.1223780
  H        2.4881280    -1.2160740    -0.5765640
  H        3.1624490     1.1443740    -1.1352360
  H        2.9853640     1.5953270     0.5713660
  H        4.2535110     0.4542820     0.0824610
units angstrom
no_reorient  #important for SAPT in psi4, default
symmetry c1  #important for SAPT in psi4, default
}

set PROPERTIES_ORIGIN ["COM"]
properties('MP2/aug-cc-pvtz', properties = ['dipole'])
--------------------------------------------------------------------------

    Molecular point group: c1
  Charge       = 0
  Multiplicity = 1
  Basis Set: AUG-CC-PVTZ
    Blend: AUG-CC-PVTZ
  Basis Set: (AUG-CC-PVTZ AUX)
    Blend: AUG-CC-PVTZ-JKFIT

    Orbital Energies [Eh]
    ---------------------

    Doubly Occupied:

       1A    -20.593356     2A    -20.518941     3A    -15.583768
       4A    -11.396259     5A    -11.283259     6A    -11.267243
       7A    -11.252873     8A    -11.222066     9A    -11.221822
      10A     -1.448096    11A     -1.340375    12A     -1.248726
      13A     -1.037177    14A     -1.025871    15A     -0.946239
      16A     -0.881510    17A     -0.843340    18A     -0.762329
      19A     -0.709945    20A     -0.682341    21A     -0.676754
      22A     -0.636990    23A     -0.619878    24A     -0.590900
      25A     -0.580261    26A     -0.568192    27A     -0.560045
      28A     -0.539686    29A     -0.538026    30A     -0.526856
      31A     -0.509768    32A     -0.507412    33A     -0.479036
      34A     -0.455587    35A     -0.444556    36A     -0.373547

  @DF-RHF Final Energy:  -439.12430203851659

   => Energetics <=

    Nuclear Repulsion Energy =            491.8311431537331373
    One-Electron Energy =               -1574.1648309118054385
    Two-Electron Energy =                 643.2093857195557121
    Total Energy =                       -439.1243020385165892
  Basis Set: (AUG-CC-PVTZ AUX)
    Blend: AUG-CC-PVTZ-RI
    Molecular point group: c1

    Geometry (in Angstrom), charge = 0, multiplicity = 1:

       Center              X                  Y                   Z               Mass
    ------------   -----------------  -----------------  -----------------  -----------------
         O            0.955279460216     0.174767183422    -0.170447850599    15.994914619570
         O            0.171849460216    -1.901862816578     0.382562149401    15.994914619570
         N           -1.252556539784    -0.226872816578    -0.327875850599    14.003074004430
         C           -1.533346439784     1.182679283422    -0.584584150599    12.000000000000
         C           -1.503806539784     2.042836183422     0.669296149401    12.000000000000
         C           -2.436818539784    -1.021221816578    -0.043872850599    12.000000000000
         C           -0.035128539784    -0.753583816578     0.002753149401    12.000000000000
         C            2.281317460216    -0.331040816578     0.102853149401    12.000000000000
         C            3.230529460216     0.827372183422    -0.105423850599    12.000000000000
         H           -0.615238539784     1.533094183422    -1.235928850599     1.007825032230
         H           -2.360226539784     1.288933183422    -1.173937850599     1.007825032230
         H           -2.315395539784     1.708789183422     1.321504149401     1.007825032230
         H           -0.561556539784     1.969951183422     1.216370149401     1.007825032230
         H           -1.679523539784     3.093973183422     0.419549149401     1.007825032230
         H           -2.940965539784    -0.686669816578     0.870703149401     1.007825032230
         H           -2.131665539784    -2.058577816578     0.080333149401     1.007825032230
         H           -3.136448539784    -0.941993816578    -0.880936850599     1.007825032230
         H            2.314601460216    -0.713755816578     1.126121149401     1.007825032230
         H            2.492969460216    -1.164130816578    -0.572820850599     1.007825032230
         H            3.167290460216     1.196317183422    -1.131492850599     1.007825032230
         H            2.990205460216     1.647270183422     0.575109149401     1.007825032230
         H            4.258352460216     0.506225183422     0.086204149401     1.007825032230

  Basis Set: AUG-CC-PVTZ
    Blend: AUG-CC-PVTZ
  Basis Set: (AUG-CC-PVTZ AUX)
    Blend: AUG-CC-PVTZ-JKFIT
	 Reference Energy          =    -439.1243020385165892 [Eh]
	 Singles Energy            =      -0.0000000000000000 [Eh]
	 Same-Spin Energy          =      -0.4420132560630997 [Eh]
	 Opposite-Spin Energy      =      -1.4599829194745648 [Eh]
	 Correlation Energy        =      -1.9019961755376644 [Eh]
	 Total Energy              =    -441.0262982140542363 [Eh]

	 ================> DF-SCS-MP2 Energies <==================
	-----------------------------------------------------------
	 SCS Same-Spin Scale       =       0.3333333333333333 [-]
	 SCS Opposite-Spin Scale   =       1.2000000000000000 [-]
	 SCS Same-Spin Energy      =      -0.1473377520210332 [Eh]
	 SCS Opposite-Spin Energy  =      -1.7519795033694778 [Eh]
	 SCS Correlation Energy    =      -1.8993172553905111 [Eh]
	 SCS Total Energy          =    -441.0236192939070747 [Eh]
	-----------------------------------------------------------

  Dipole Moment: [D]
     X:    -0.6341      Y:     2.4149      Z:    -0.4759     Total:     2.5417

*** Psi4 exiting successfully. Buy a developer a beer!
