                               Psi4 1.3.2 release

  ==> Input File <==

--------------------------------------------------------------------------
#psi4
#
memory 32 gb

molecule  {
0 1
  O        0.9603466     0.1454805    -0.1791715
  O        0.1670080    -1.9538060     0.3788190
  N       -1.2573980    -0.2788160    -0.3316190
  C       -1.4380940     1.1445880    -0.6015250
  C       -1.5086480     1.9908930     0.6655530
  C       -2.4416600    -1.0731650    -0.0476160
  C       -0.0399700    -0.8055270    -0.0009900
  C        2.2764760    -0.3829840     0.0991100
  C        3.2256880     0.7754290    -0.1091670
  H       -0.6200800     1.4811510    -1.2396720
  H       -2.3650680     1.2369900    -1.1776810
  H       -2.3202370     1.6568460     1.3177610
  H       -0.5663980     1.9180080     1.2126270
  H       -1.6843650     3.0420300     0.4158060
  H       -2.9458070    -0.7386130     0.8669600
  H       -2.1365070    -2.1105210     0.0765900
  H       -3.1412900    -0.9939370    -0.8846800
  H        2.3097600    -0.7656990     1.1223780
  H        2.4881280    -1.2160740    -0.5765640
  H        3.1624490     1.1443740    -1.1352360
  H        2.9853640     1.5953270     0.5713660
  H        4.2535110     0.4542820     0.0824610
units angstrom
no_reorient  #important for SAPT in psi4, default
symmetry c1  #important for SAPT in psi4, default
}

set PROPERTIES_ORIGIN ["COM"]
properties('MP2/aug-cc-pvtz', properties = ['dipole'])
--------------------------------------------------------------------------

    Molecular point group: c1
  Charge       = 0
  Multiplicity = 1
  Basis Set: AUG-CC-PVTZ
    Blend: AUG-CC-PVTZ
  Basis Set: (AUG-CC-PVTZ AUX)
    Blend: AUG-CC-PVTZ-JKFIT

    Orbital Energies [Eh]
    ---------------------

    Doubly Occupied:

       1A    -20.593313     2A    -20.521404     3A    -15.585058
       4A    -11.396679     5A    -11.281767     6A    -11.266005
       7A    -11.255339     8A    -11.220847     9A    -11.220699
      10A     -1.441806    11A     -1.340890    12A     -1.249004
      13A     -1.033376    14A     -1.025628    15A     -0.947181
      16A     -0.877284    17A     -0.841218    18A     -0.759694
      19A     -0.712027    20A     -0.680675    21A     -0.673074
      22A     -0.635577    23A     -0.613808    24A     -0.594593
      25A     -0.580212    26A     -0.566480    27A     -0.560574
      28A     -0.539611    29A     -0.534762    30A     -0.520898
      31A     -0.508815    32A     -0.506992    33A     -0.496605
      34A     -0.456347    35A     -0.444598    36A     -0.375411

  @DF-RHF Final Energy:  -439.13450114122423

   => Energetics <=

    Nuclear Repulsion Energy =            491.7964347443212318
    One-Electron Energy =               -1574.1453707284567827
    Two-Electron Energy =                 643.2144348429113734
    Total Energy =                       -439.1345011412241774
  Basis Set: (AUG-CC-PVTZ AUX)
    Blend: AUG-CC-PVTZ-RI
    Molecular point group: c1

    Geometry (in Angstrom), charge = 0, multiplicity = 1:

       Center              X                  Y                   Z               Mass
    ------------   -----------------  -----------------  -----------------  -----------------
         O            0.954816819038     0.193391393247    -0.173612600597    15.994914619570
         O            0.161478219038    -1.905895106753     0.384377899403    15.994914619570
         N           -1.262927780962    -0.230905106753    -0.326060100597    14.003074004430
         C           -1.443623780962     1.192498893247    -0.595966100597    12.000000000000
         C           -1.514177780962     2.038803893247     0.671111899403    12.000000000000
         C           -2.447189780962    -1.025254106753    -0.042057100597    12.000000000000
         C           -0.045499780962    -0.757616106753     0.004568899403    12.000000000000
         C            2.270946219038    -0.335073106753     0.104668899403    12.000000000000
         C            3.220158219038     0.823339893247    -0.103608100597    12.000000000000
         H           -0.625609780962     1.529061893247    -1.234113100597     1.007825032230
         H           -2.370597780962     1.284900893247    -1.172122100597     1.007825032230
         H           -2.325766780962     1.704756893247     1.323319899403     1.007825032230
         H           -0.571927780962     1.965918893247     1.218185899403     1.007825032230
         H           -1.689894780962     3.089940893247     0.421364899403     1.007825032230
         H           -2.951336780962    -0.690702106753     0.872518899403     1.007825032230
         H           -2.142036780962    -2.062610106753     0.082148899403     1.007825032230
         H           -3.146819780962    -0.946026106753    -0.879121100597     1.007825032230
         H            2.304230219038    -0.717788106753     1.127936899403     1.007825032230
         H            2.482598219038    -1.168163106753    -0.571005100597     1.007825032230
         H            3.156919219038     1.192284893247    -1.129677100597     1.007825032230
         H            2.979834219038     1.643237893247     0.576924899403     1.007825032230
         H            4.247981219038     0.502192893247     0.088019899403     1.007825032230

  Basis Set: AUG-CC-PVTZ
    Blend: AUG-CC-PVTZ
  Basis Set: (AUG-CC-PVTZ AUX)
    Blend: AUG-CC-PVTZ-JKFIT
	 Reference Energy          =    -439.1345011412242343 [Eh]
	 Singles Energy            =      -0.0000000000000000 [Eh]
	 Same-Spin Energy          =      -0.4421233693488831 [Eh]
	 Opposite-Spin Energy      =      -1.4603028524609307 [Eh]
	 Correlation Energy        =      -1.9024262218098138 [Eh]
	 Total Energy              =    -441.0369273630340672 [Eh]

	 ================> DF-SCS-MP2 Energies <==================
	-----------------------------------------------------------
	 SCS Same-Spin Scale       =       0.3333333333333333 [-]
	 SCS Opposite-Spin Scale   =       1.2000000000000000 [-]
	 SCS Same-Spin Energy      =      -0.1473744564496277 [Eh]
	 SCS Opposite-Spin Energy  =      -1.7523634229531169 [Eh]
	 SCS Correlation Energy    =      -1.8997378794027446 [Eh]
	 SCS Total Energy          =    -441.0342390206269556 [Eh]
	-----------------------------------------------------------

  Dipole Moment: [D]
     X:    -0.7202      Y:     2.3232      Z:    -0.4850     Total:     2.4802

*** Psi4 exiting successfully. Buy a developer a beer!
