                               Psi4 1.3.2 release

  ==> Input File <==

--------------------------------------------------------------------------
#psi4
#
memory 32 gb

molecule  {
0 1
  O        0.9924651     0.2124568    -0.1935984
  O        0.1670080    -1.9538060     0.3788190
  N       -1.2573980    -0.2788160    -0.3316190
  C       -1.4380940     1.1445880    -0.6015250
  C       -1.5086480     1.9908930     0.6655530
  C       -2.4416600    -1.0731650    -0.0476160
  C       -0.0399700    -0.8055270    -0.0009900
  C        2.2764760    -0.3829840     0.0991100
  C        3.2256880     0.7754290    -0.1091670
  H       -0.6200800     1.4811510    -1.2396720
  H       -2.3650680     1.2369900    -1.1776810
  H       -2.3202370     1.6568460     1.3177610
  H       -0.5663980     1.9180080     1.2126270
  H       -1.6843650     3.0420300     0.4158060
  H       -2.9458070    -0.7386130     0.8669600
  H       -2.1365070    -2.1105210     0.0765900
  H       -3.1412900    -0.9939370    -0.8846800
  H        2.3097600    -0.7656990     1.1223780
  H        2.4881280    -1.2160740    -0.5765640
  H        3.1624490     1.1443740    -1.1352360
  H        2.9853640     1.5953270     0.5713660
  H        4.2535110     0.4542820     0.0824610
units angstrom
no_reorient  #important for SAPT in psi4, default
symmetry c1  #important for SAPT in psi4, default
}

set PROPERTIES_ORIGIN ["COM"]
properties('MP2/aug-cc-pvtz', properties = ['dipole'])
--------------------------------------------------------------------------

    Molecular point group: c1
  Charge       = 0
  Multiplicity = 1
  Basis Set: AUG-CC-PVTZ
    Blend: AUG-CC-PVTZ
  Basis Set: (AUG-CC-PVTZ AUX)
    Blend: AUG-CC-PVTZ-JKFIT

    Orbital Energies [Eh]
    ---------------------

    Doubly Occupied:

       1A    -20.592328     2A    -20.531849     3A    -15.590087
       4A    -11.404365     5A    -11.277093     6A    -11.266942
       7A    -11.258208     8A    -11.221207     9A    -11.215840
      10A     -1.426365    11A     -1.342101    12A     -1.251923
      13A     -1.027630    14A     -1.023686    15A     -0.948399
      16A     -0.876586    17A     -0.836606    18A     -0.753975
      19A     -0.708894    20A     -0.677447    21A     -0.670982
      22A     -0.636717    23A     -0.614726    24A     -0.594970
      25A     -0.579957    26A     -0.562484    27A     -0.562049
      28A     -0.539246    29A     -0.530220    30A     -0.520901
      31A     -0.507830    32A     -0.506293    33A     -0.497430
      34A     -0.457123    35A     -0.446666    36A     -0.378467

  @DF-RHF Final Energy:  -439.12194908970770

   => Energetics <=

    Nuclear Repulsion Energy =            490.3748734550040922
    One-Electron Energy =               -1571.3184606359884583
    Two-Electron Energy =                 641.8216380912767818
    Total Energy =                       -439.1219490897076412
  Basis Set: (AUG-CC-PVTZ AUX)
    Blend: AUG-CC-PVTZ-RI
    Molecular point group: c1

    Geometry (in Angstrom), charge = 0, multiplicity = 1:

       Center              X                  Y                   Z               Mass
    ------------   -----------------  -----------------  -----------------  -----------------
         O            0.983016526404     0.252195884753    -0.186279268037    15.994914619570
         O            0.157559426404    -1.914066915247     0.386138131963    15.994914619570
         N           -1.266846573596    -0.239076915247    -0.324299868037    14.003074004430
         C           -1.447542573596     1.184327084753    -0.594205868037    12.000000000000
         C           -1.518096573596     2.030632084753     0.672872131963    12.000000000000
         C           -2.451108573596    -1.033425915247    -0.040296868037    12.000000000000
         C           -0.049418573596    -0.765787915247     0.006329131963    12.000000000000
         C            2.267027426404    -0.343244915247     0.106429131963    12.000000000000
         C            3.216239426404     0.815168084753    -0.101847868037    12.000000000000
         H           -0.629528573596     1.520890084753    -1.232352868037     1.007825032230
         H           -2.374516573596     1.276729084753    -1.170361868037     1.007825032230
         H           -2.329685573596     1.696585084753     1.325080131963     1.007825032230
         H           -0.575846573596     1.957747084753     1.219946131963     1.007825032230
         H           -1.693813573596     3.081769084753     0.423125131963     1.007825032230
         H           -2.955255573596    -0.698873915247     0.874279131963     1.007825032230
         H           -2.145955573596    -2.070781915247     0.083909131963     1.007825032230
         H           -3.150738573596    -0.954197915247    -0.877360868037     1.007825032230
         H            2.300311426404    -0.725959915247     1.129697131963     1.007825032230
         H            2.478679426404    -1.176334915247    -0.569244868037     1.007825032230
         H            3.153000426404     1.184113084753    -1.127916868037     1.007825032230
         H            2.975915426404     1.635066084753     0.578685131963     1.007825032230
         H            4.244062426404     0.494021084753     0.089780131963     1.007825032230

  Basis Set: AUG-CC-PVTZ
    Blend: AUG-CC-PVTZ
  Basis Set: (AUG-CC-PVTZ AUX)
    Blend: AUG-CC-PVTZ-JKFIT
	 Reference Energy          =    -439.1219490897076980 [Eh]
	 Singles Energy            =      -0.0000000000000000 [Eh]
	 Same-Spin Energy          =      -0.4437223646379445 [Eh]
	 Opposite-Spin Energy      =      -1.4643789234756377 [Eh]
	 Correlation Energy        =      -1.9081012881135822 [Eh]
	 Total Energy              =    -441.0300503778212828 [Eh]

	 ================> DF-SCS-MP2 Energies <==================
	-----------------------------------------------------------
	 SCS Same-Spin Scale       =       0.3333333333333333 [-]
	 SCS Opposite-Spin Scale   =       1.2000000000000000 [-]
	 SCS Same-Spin Energy      =      -0.1479074548793148 [Eh]
	 SCS Opposite-Spin Energy  =      -1.7572547081707652 [Eh]
	 SCS Correlation Energy    =      -1.9051621630500801 [Eh]
	 SCS Total Energy          =    -441.0271112527577770 [Eh]
	-----------------------------------------------------------

  Dipole Moment: [D]
     X:    -1.1164      Y:     2.0605      Z:    -0.4399     Total:     2.3845

*** Psi4 exiting successfully. Buy a developer a beer!
