                               Psi4 1.3.2 release

  ==> Input File <==

--------------------------------------------------------------------------
#psi4
#
memory 32 gb

molecule  {
0 1
  O        0.9706561     0.1679760    -0.1840672
  O        0.1670080    -1.9538060     0.3788190
  N       -1.2573980    -0.2788160    -0.3316190
  C       -1.4380940     1.1445880    -0.6015250
  C       -1.5086480     1.9908930     0.6655530
  C       -2.4416600    -1.0731650    -0.0476160
  C       -0.0399700    -0.8055270    -0.0009900
  C        2.2764760    -0.3829840     0.0991100
  C        3.2256880     0.7754290    -0.1091670
  H       -0.6200800     1.4811510    -1.2396720
  H       -2.3650680     1.2369900    -1.1776810
  H       -2.3202370     1.6568460     1.3177610
  H       -0.5663980     1.9180080     1.2126270
  H       -1.6843650     3.0420300     0.4158060
  H       -2.9458070    -0.7386130     0.8669600
  H       -2.1365070    -2.1105210     0.0765900
  H       -3.1412900    -0.9939370    -0.8846800
  H        2.3097600    -0.7656990     1.1223780
  H        2.4881280    -1.2160740    -0.5765640
  H        3.1624490     1.1443740    -1.1352360
  H        2.9853640     1.5953270     0.5713660
  H        4.2535110     0.4542820     0.0824610
units angstrom
no_reorient  #important for SAPT in psi4, default
symmetry c1  #important for SAPT in psi4, default
}

set PROPERTIES_ORIGIN ["COM"]
properties('MP2/aug-cc-pvtz', properties = ['dipole'])
--------------------------------------------------------------------------

    Molecular point group: c1
  Charge       = 0
  Multiplicity = 1
  Basis Set: AUG-CC-PVTZ
    Blend: AUG-CC-PVTZ
  Basis Set: (AUG-CC-PVTZ AUX)
    Blend: AUG-CC-PVTZ-JKFIT

    Orbital Energies [Eh]
    ---------------------

    Doubly Occupied:

       1A    -20.593033     2A    -20.525007     3A    -15.586749
       4A    -11.399351     5A    -11.280123     6A    -11.266314
       7A    -11.256310     8A    -11.220962     9A    -11.219044
      10A     -1.435976    11A     -1.341669    12A     -1.249975
      13A     -1.030494    14A     -1.025869    15A     -0.947532
      16A     -0.876904    17A     -0.839603    18A     -0.757641
      19A     -0.711109    20A     -0.678970    21A     -0.672796
      22A     -0.635983    23A     -0.614116    24A     -0.594553
      25A     -0.580226    26A     -0.565067    27A     -0.561058
      28A     -0.539151    29A     -0.533290    30A     -0.520877
      31A     -0.508477    32A     -0.507143    33A     -0.496916
      34A     -0.456789    35A     -0.445609    36A     -0.376427

  @DF-RHF Final Energy:  -439.13104602818373

   => Energetics <=

    Nuclear Repulsion Energy =            491.3168446239709510
    One-Electron Energy =               -1573.1935528367650932
    Two-Electron Energy =                 642.7456621846105236
    Total Energy =                       -439.1310460281837322
  Basis Set: (AUG-CC-PVTZ AUX)
    Blend: AUG-CC-PVTZ-RI
    Molecular point group: c1

    Geometry (in Angstrom), charge = 0, multiplicity = 1:

       Center              X                  Y                   Z               Mass
    ------------   -----------------  -----------------  -----------------  -----------------
         O            0.963868452305     0.213142207172    -0.177910974037    15.994914619570
         O            0.160220352305    -1.908639792828     0.384975225963    15.994914619570
         N           -1.264185647695    -0.233649792828    -0.325462774037    14.003074004430
         C           -1.444881647695     1.189754207172    -0.595368774037    12.000000000000
         C           -1.515435647695     2.036059207172     0.671709225963    12.000000000000
         C           -2.448447647695    -1.027998792828    -0.041459774037    12.000000000000
         C           -0.046757647695    -0.760360792828     0.005166225963    12.000000000000
         C            2.269688352305    -0.337817792828     0.105266225963    12.000000000000
         C            3.218900352305     0.820595207172    -0.103010774037    12.000000000000
         H           -0.626867647695     1.526317207172    -1.233515774037     1.007825032230
         H           -2.371855647695     1.282156207172    -1.171524774037     1.007825032230
         H           -2.327024647695     1.702012207172     1.323917225963     1.007825032230
         H           -0.573185647695     1.963174207172     1.218783225963     1.007825032230
         H           -1.691152647695     3.087196207172     0.421962225963     1.007825032230
         H           -2.952594647695    -0.693446792828     0.873116225963     1.007825032230
         H           -2.143294647695    -2.065354792828     0.082746225963     1.007825032230
         H           -3.148077647695    -0.948770792828    -0.878523774037     1.007825032230
         H            2.302972352305    -0.720532792828     1.128534225963     1.007825032230
         H            2.481340352305    -1.170907792828    -0.570407774037     1.007825032230
         H            3.155661352305     1.189540207172    -1.129079774037     1.007825032230
         H            2.978576352305     1.640493207172     0.577522225963     1.007825032230
         H            4.246723352305     0.499448207172     0.088617225963     1.007825032230

  Basis Set: AUG-CC-PVTZ
    Blend: AUG-CC-PVTZ
  Basis Set: (AUG-CC-PVTZ AUX)
    Blend: AUG-CC-PVTZ-JKFIT
	 Reference Energy          =    -439.1310460281837322 [Eh]
	 Singles Energy            =      -0.0000000000000000 [Eh]
	 Same-Spin Energy          =      -0.4426308595927284 [Eh]
	 Opposite-Spin Energy      =      -1.4616085870039233 [Eh]
	 Correlation Energy        =      -1.9042394465966517 [Eh]
	 Total Energy              =    -441.0352854747803804 [Eh]

	 ================> DF-SCS-MP2 Energies <==================
	-----------------------------------------------------------
	 SCS Same-Spin Scale       =       0.3333333333333333 [-]
	 SCS Opposite-Spin Scale   =       1.2000000000000000 [-]
	 SCS Same-Spin Energy      =      -0.1475436198642428 [Eh]
	 SCS Opposite-Spin Energy  =      -1.7539303044047079 [Eh]
	 SCS Correlation Energy    =      -1.9014739242689507 [Eh]
	 SCS Total Energy          =    -441.0325199524526738 [Eh]
	-----------------------------------------------------------

  Dipole Moment: [D]
     X:    -0.8533      Y:     2.2343      Z:    -0.4697     Total:     2.4374

*** Psi4 exiting successfully. Buy a developer a beer!
