                               Psi4 1.3.2 release

  ==> Input File <==

--------------------------------------------------------------------------
#psi4
#
memory 32 gb

molecule  {
0 1
  O        0.9504380     0.1228240    -0.1741910
  O        0.1670080    -1.9538060     0.3788190
  N       -1.2573591    -0.2738441    -0.3066274
  C       -1.4380940     1.1445880    -0.6015250
  C       -1.5086480     1.9908930     0.6655530
  C       -2.4416600    -1.0731650    -0.0476160
  C       -0.0399700    -0.8055270    -0.0009900
  C        2.2764760    -0.3829840     0.0991100
  C        3.2256880     0.7754290    -0.1091670
  H       -0.6200800     1.4811510    -1.2396720
  H       -2.3650680     1.2369900    -1.1776810
  H       -2.3202370     1.6568460     1.3177610
  H       -0.5663980     1.9180080     1.2126270
  H       -1.6843650     3.0420300     0.4158060
  H       -2.9458070    -0.7386130     0.8669600
  H       -2.1365070    -2.1105210     0.0765900
  H       -3.1412900    -0.9939370    -0.8846800
  H        2.3097600    -0.7656990     1.1223780
  H        2.4881280    -1.2160740    -0.5765640
  H        3.1624490     1.1443740    -1.1352360
  H        2.9853640     1.5953270     0.5713660
  H        4.2535110     0.4542820     0.0824610
units angstrom
no_reorient  #important for SAPT in psi4, default
symmetry c1  #important for SAPT in psi4, default
}

set PROPERTIES_ORIGIN ["COM"]
properties('MP2/aug-cc-pvtz', properties = ['dipole'])
--------------------------------------------------------------------------

    Molecular point group: c1
  Charge       = 0
  Multiplicity = 1
  Basis Set: AUG-CC-PVTZ
    Blend: AUG-CC-PVTZ
  Basis Set: (AUG-CC-PVTZ AUX)
    Blend: AUG-CC-PVTZ-JKFIT

    Orbital Energies [Eh]
    ---------------------

    Doubly Occupied:

       1A    -20.593140     2A    -20.516581     3A    -15.583193
       4A    -11.393254     5A    -11.283280     6A    -11.266104
       7A    -11.254561     8A    -11.222250     9A    -11.220385
      10A     -1.448079    11A     -1.339269    12A     -1.248920
      13A     -1.036383    14A     -1.025649    15A     -0.947639
      16A     -0.877424    17A     -0.842971    18A     -0.761705
      19A     -0.714049    20A     -0.682809    21A     -0.672978
      22A     -0.634921    23A     -0.613725    24A     -0.595273
      25A     -0.579606    26A     -0.568729    27A     -0.560261
      28A     -0.540019    29A     -0.535619    30A     -0.521475
      31A     -0.508621    32A     -0.506716    33A     -0.496325
      34A     -0.455409    35A     -0.442807    36A     -0.373588

  @DF-RHF Final Energy:  -439.13727731274503

   => Energetics <=

    Nuclear Repulsion Energy =            492.4601164188339908
    One-Electron Energy =               -1575.4673550580091614
    Two-Electron Energy =                 643.8699613264302570
    Total Energy =                       -439.1372773127450273
  Basis Set: (AUG-CC-PVTZ AUX)
    Blend: AUG-CC-PVTZ-RI
    Molecular point group: c1

    Geometry (in Angstrom), charge = 0, multiplicity = 1:

       Center              X                  Y                   Z               Mass
    ------------   -----------------  -----------------  -----------------  -----------------
         O            0.946113016619     0.172968141874    -0.171909289761    15.994914619570
         O            0.162683016619    -1.903661858126     0.381100710239    15.994914619570
         N           -1.261684083381    -0.223699958126    -0.304345689761    14.003074004430
         C           -1.442418983381     1.194732141874    -0.599243289761    12.000000000000
         C           -1.512972983381     2.041037141874     0.667834710239    12.000000000000
         C           -2.445984983381    -1.023020858126    -0.045334289761    12.000000000000
         C           -0.044294983381    -0.755382858126     0.001291710239    12.000000000000
         C            2.272151016619    -0.332839858126     0.101391710239    12.000000000000
         C            3.221363016619     0.825573141874    -0.106885289761    12.000000000000
         H           -0.624404983381     1.531295141874    -1.237390289761     1.007825032230
         H           -2.369392983381     1.287134141874    -1.175399289761     1.007825032230
         H           -2.324561983381     1.706990141874     1.320042710239     1.007825032230
         H           -0.570722983381     1.968152141874     1.214908710239     1.007825032230
         H           -1.688689983381     3.092174141874     0.418087710239     1.007825032230
         H           -2.950131983381    -0.688468858126     0.869241710239     1.007825032230
         H           -2.140831983381    -2.060376858126     0.078871710239     1.007825032230
         H           -3.145614983381    -0.943792858126    -0.882398289761     1.007825032230
         H            2.305435016619    -0.715554858126     1.124659710239     1.007825032230
         H            2.483803016619    -1.165929858126    -0.574282289761     1.007825032230
         H            3.158124016619     1.194518141874    -1.132954289761     1.007825032230
         H            2.981039016619     1.645471141874     0.573647710239     1.007825032230
         H            4.249186016619     0.504426141874     0.084742710239     1.007825032230

  Basis Set: AUG-CC-PVTZ
    Blend: AUG-CC-PVTZ
  Basis Set: (AUG-CC-PVTZ AUX)
    Blend: AUG-CC-PVTZ-JKFIT
	 Reference Energy          =    -439.1372773127450273 [Eh]
	 Singles Energy            =      -0.0000000000000000 [Eh]
	 Same-Spin Energy          =      -0.4416321592973443 [Eh]
	 Opposite-Spin Energy      =      -1.4589608916593364 [Eh]
	 Correlation Energy        =      -1.9005930509566809 [Eh]
	 Total Energy              =    -441.0378703637016997 [Eh]

	 ================> DF-SCS-MP2 Energies <==================
	-----------------------------------------------------------
	 SCS Same-Spin Scale       =       0.3333333333333333 [-]
	 SCS Opposite-Spin Scale   =       1.2000000000000000 [-]
	 SCS Same-Spin Energy      =      -0.1472107197657814 [Eh]
	 SCS Opposite-Spin Energy  =      -1.7507530699912037 [Eh]
	 SCS Correlation Energy    =      -1.8979637897569852 [Eh]
	 SCS Total Energy          =    -441.0352411025020274 [Eh]
	-----------------------------------------------------------

  Dipole Moment: [D]
     X:    -0.6168      Y:     2.4178      Z:    -0.5485     Total:     2.5548

*** Psi4 exiting successfully. Buy a developer a beer!
