                               Psi4 1.3.2 release

  ==> Input File <==

--------------------------------------------------------------------------
#psi4
#
memory 32 gb

molecule  {
0 1
  O        0.9504380     0.1228240    -0.1741910
  O        0.1670080    -1.9538060     0.3788190
  N       -1.2205769    -0.3080361    -0.2416735
  C       -1.4380940     1.1445880    -0.6015250
  C       -1.5086480     1.9908930     0.6655530
  C       -2.4416600    -1.0731650    -0.0476160
  C       -0.0399700    -0.8055270    -0.0009900
  C        2.2764760    -0.3829840     0.0991100
  C        3.2256880     0.7754290    -0.1091670
  H       -0.6200800     1.4811510    -1.2396720
  H       -2.3650680     1.2369900    -1.1776810
  H       -2.3202370     1.6568460     1.3177610
  H       -0.5663980     1.9180080     1.2126270
  H       -1.6843650     3.0420300     0.4158060
  H       -2.9458070    -0.7386130     0.8669600
  H       -2.1365070    -2.1105210     0.0765900
  H       -3.1412900    -0.9939370    -0.8846800
  H        2.3097600    -0.7656990     1.1223780
  H        2.4881280    -1.2160740    -0.5765640
  H        3.1624490     1.1443740    -1.1352360
  H        2.9853640     1.5953270     0.5713660
  H        4.2535110     0.4542820     0.0824610
units angstrom
no_reorient  #important for SAPT in psi4, default
symmetry c1  #important for SAPT in psi4, default
}

set PROPERTIES_ORIGIN ["COM"]
properties('MP2/aug-cc-pvtz', properties = ['dipole'])
--------------------------------------------------------------------------

    Molecular point group: c1
  Charge       = 0
  Multiplicity = 1
  Basis Set: AUG-CC-PVTZ
    Blend: AUG-CC-PVTZ
  Basis Set: (AUG-CC-PVTZ AUX)
    Blend: AUG-CC-PVTZ-JKFIT

    Orbital Energies [Eh]
    ---------------------

    Doubly Occupied:

       1A    -20.588662     2A    -20.504000     3A    -15.584871
       4A    -11.382344     5A    -11.280568     6A    -11.273230
       7A    -11.257586     8A    -11.223320     9A    -11.220583
      10A     -1.446712    11A     -1.334633    12A     -1.250579
      13A     -1.035567    14A     -1.028517    15A     -0.957492
      16A     -0.873050    17A     -0.844291    18A     -0.759321
      19A     -0.716183    20A     -0.682272    21A     -0.670345
      22A     -0.633420    23A     -0.612434    24A     -0.601964
      25A     -0.576180    26A     -0.569696    27A     -0.562171
      28A     -0.538476    29A     -0.534830    30A     -0.519982
      31A     -0.508376    32A     -0.505305    33A     -0.492317
      34A     -0.452413    35A     -0.436123    36A     -0.377230

  @DF-RHF Final Energy:  -439.13301129685721

   => Energetics <=

    Nuclear Repulsion Energy =            493.2413647189349035
    One-Electron Energy =               -1577.0786656799236880
    Two-Electron Energy =                 644.7042896641316929
    Total Energy =                       -439.1330112968571484
  Basis Set: (AUG-CC-PVTZ AUX)
    Blend: AUG-CC-PVTZ-RI
    Molecular point group: c1

    Geometry (in Angstrom), charge = 0, multiplicity = 1:

       Center              X                  Y                   Z               Mass
    ------------   -----------------  -----------------  -----------------  -----------------
         O            0.942184069461     0.176620412842    -0.178847440300    15.994914619570
         O            0.158754069461    -1.900009587158     0.374162559700    15.994914619570
         N           -1.228830830539    -0.254239687158    -0.246329940300    14.003074004430
         C           -1.446347930539     1.198384412842    -0.606181440300    12.000000000000
         C           -1.516901930539     2.044689412842     0.660896559700    12.000000000000
         C           -2.449913930539    -1.019368587158    -0.052272440300    12.000000000000
         C           -0.048223930539    -0.751730587158    -0.005646440300    12.000000000000
         C            2.268222069461    -0.329187587158     0.094453559700    12.000000000000
         C            3.217434069461     0.829225412842    -0.113823440300    12.000000000000
         H           -0.628333930539     1.534947412842    -1.244328440300     1.007825032230
         H           -2.373321930539     1.290786412842    -1.182337440300     1.007825032230
         H           -2.328490930539     1.710642412842     1.313104559700     1.007825032230
         H           -0.574651930539     1.971804412842     1.207970559700     1.007825032230
         H           -1.692618930539     3.095826412842     0.411149559700     1.007825032230
         H           -2.954060930539    -0.684816587158     0.862303559700     1.007825032230
         H           -2.144760930539    -2.056724587158     0.071933559700     1.007825032230
         H           -3.149543930539    -0.940140587158    -0.889336440300     1.007825032230
         H            2.301506069461    -0.711902587158     1.117721559700     1.007825032230
         H            2.479874069461    -1.162277587158    -0.581220440300     1.007825032230
         H            3.154195069461     1.198170412842    -1.139892440300     1.007825032230
         H            2.977110069461     1.649123412842     0.566709559700     1.007825032230
         H            4.245257069461     0.508078412842     0.077804559700     1.007825032230

  Basis Set: AUG-CC-PVTZ
    Blend: AUG-CC-PVTZ
  Basis Set: (AUG-CC-PVTZ AUX)
    Blend: AUG-CC-PVTZ-JKFIT
	 Reference Energy          =    -439.1330112968572053 [Eh]
	 Singles Energy            =      -0.0000000000000000 [Eh]
	 Same-Spin Energy          =      -0.4410927936975011 [Eh]
	 Opposite-Spin Energy      =      -1.4581175119133309 [Eh]
	 Correlation Energy        =      -1.8992103056108320 [Eh]
	 Total Energy              =    -441.0322216024680415 [Eh]

	 ================> DF-SCS-MP2 Energies <==================
	-----------------------------------------------------------
	 SCS Same-Spin Scale       =       0.3333333333333333 [-]
	 SCS Opposite-Spin Scale   =       1.2000000000000000 [-]
	 SCS Same-Spin Energy      =      -0.1470309312325004 [Eh]
	 SCS Opposite-Spin Energy  =      -1.7497410142959970 [Eh]
	 SCS Correlation Energy    =      -1.8967719455284975 [Eh]
	 SCS Total Energy          =    -441.0297832423856903 [Eh]
	-----------------------------------------------------------

  Dipole Moment: [D]
     X:    -0.9698      Y:     2.6568      Z:    -0.6950     Total:     2.9124

*** Psi4 exiting successfully. Buy a developer a beer!
