                               Psi4 1.3.2 release

  ==> Input File <==

--------------------------------------------------------------------------
#psi4
#
memory 32 gb

molecule  {
0 1
  O        0.9504380     0.1228240    -0.1741910
  O        0.1670080    -1.9538060     0.3788190
  N       -1.2476443    -0.2857635    -0.3092453
  C       -1.4380940     1.1445880    -0.6015250
  C       -1.5086480     1.9908930     0.6655530
  C       -2.4416600    -1.0731650    -0.0476160
  C       -0.0399700    -0.8055270    -0.0009900
  C        2.2764760    -0.3829840     0.0991100
  C        3.2256880     0.7754290    -0.1091670
  H       -0.6200800     1.4811510    -1.2396720
  H       -2.3650680     1.2369900    -1.1776810
  H       -2.3202370     1.6568460     1.3177610
  H       -0.5663980     1.9180080     1.2126270
  H       -1.6843650     3.0420300     0.4158060
  H       -2.9458070    -0.7386130     0.8669600
  H       -2.1365070    -2.1105210     0.0765900
  H       -3.1412900    -0.9939370    -0.8846800
  H        2.3097600    -0.7656990     1.1223780
  H        2.4881280    -1.2160740    -0.5765640
  H        3.1624490     1.1443740    -1.1352360
  H        2.9853640     1.5953270     0.5713660
  H        4.2535110     0.4542820     0.0824610
units angstrom
no_reorient  #important for SAPT in psi4, default
symmetry c1  #important for SAPT in psi4, default
}

set PROPERTIES_ORIGIN ["COM"]
properties('MP2/aug-cc-pvtz', properties = ['dipole'])
--------------------------------------------------------------------------

    Molecular point group: c1
  Charge       = 0
  Multiplicity = 1
  Basis Set: AUG-CC-PVTZ
    Blend: AUG-CC-PVTZ
  Basis Set: (AUG-CC-PVTZ AUX)
    Blend: AUG-CC-PVTZ-JKFIT

    Orbital Energies [Eh]
    ---------------------

    Doubly Occupied:

       1A    -20.592256     2A    -20.514218     3A    -15.583735
       4A    -11.391093     5A    -11.282743     6A    -11.267586
       7A    -11.255144     8A    -11.221920     9A    -11.221388
      10A     -1.447789    11A     -1.338307    12A     -1.248699
      13A     -1.036123    14A     -1.026182    15A     -0.949487
      16A     -0.876766    17A     -0.843377    18A     -0.761174
      19A     -0.713681    20A     -0.682649    21A     -0.672395
      22A     -0.634643    23A     -0.613320    24A     -0.596249
      25A     -0.579164    26A     -0.568482    27A     -0.560627
      28A     -0.539518    29A     -0.536131    30A     -0.520975
      31A     -0.508603    32A     -0.506547    33A     -0.495541
      34A     -0.454814    35A     -0.441696    36A     -0.375107

  @DF-RHF Final Energy:  -439.13747055772058

   => Energetics <=

    Nuclear Repulsion Energy =            492.5372879626495433
    One-Electron Energy =               -1575.6332604370534227
    Two-Electron Energy =                 643.9585019166833035
    Total Energy =                       -439.1374705577205759
  Basis Set: (AUG-CC-PVTZ AUX)
    Blend: AUG-CC-PVTZ-RI
    Molecular point group: c1

    Geometry (in Angstrom), charge = 0, multiplicity = 1:

       Center              X                  Y                   Z               Mass
    ------------   -----------------  -----------------  -----------------  -----------------
         O            0.945075315344     0.174241330882    -0.171629654754    15.994914619570
         O            0.161645315344    -1.902388669118     0.381380345246    15.994914619570
         N           -1.253006984656    -0.234346169118    -0.306683954754    14.003074004430
         C           -1.443456684656     1.196005330882    -0.598963654754    12.000000000000
         C           -1.514010684656     2.042310330882     0.668114345246    12.000000000000
         C           -2.447022684656    -1.021747669118    -0.045054654754    12.000000000000
         C           -0.045332684656    -0.754109669118     0.001571345246    12.000000000000
         C            2.271113315344    -0.331566669118     0.101671345246    12.000000000000
         C            3.220325315344     0.826846330882    -0.106605654754    12.000000000000
         H           -0.625442684656     1.532568330882    -1.237110654754     1.007825032230
         H           -2.370430684656     1.288407330882    -1.175119654754     1.007825032230
         H           -2.325599684656     1.708263330882     1.320322345246     1.007825032230
         H           -0.571760684656     1.969425330882     1.215188345246     1.007825032230
         H           -1.689727684656     3.093447330882     0.418367345246     1.007825032230
         H           -2.951169684656    -0.687195669118     0.869521345246     1.007825032230
         H           -2.141869684656    -2.059103669118     0.079151345246     1.007825032230
         H           -3.146652684656    -0.942519669118    -0.882118654754     1.007825032230
         H            2.304397315344    -0.714281669118     1.124939345246     1.007825032230
         H            2.482765315344    -1.164656669118    -0.574002654754     1.007825032230
         H            3.157086315344     1.195791330882    -1.132674654754     1.007825032230
         H            2.980001315344     1.646744330882     0.573927345246     1.007825032230
         H            4.248148315344     0.505699330882     0.085022345246     1.007825032230

  Basis Set: AUG-CC-PVTZ
    Blend: AUG-CC-PVTZ
  Basis Set: (AUG-CC-PVTZ AUX)
    Blend: AUG-CC-PVTZ-JKFIT
	 Reference Energy          =    -439.1374705577205759 [Eh]
	 Singles Energy            =      -0.0000000000000000 [Eh]
	 Same-Spin Energy          =      -0.4414732874276431 [Eh]
	 Opposite-Spin Energy      =      -1.4587283969324234 [Eh]
	 Correlation Energy        =      -1.9002016843600664 [Eh]
	 Total Energy              =    -441.0376722420806459 [Eh]

	 ================> DF-SCS-MP2 Energies <==================
	-----------------------------------------------------------
	 SCS Same-Spin Scale       =       0.3333333333333333 [-]
	 SCS Opposite-Spin Scale   =       1.2000000000000000 [-]
	 SCS Same-Spin Energy      =      -0.1471577624758810 [Eh]
	 SCS Opposite-Spin Energy  =      -1.7504740763189079 [Eh]
	 SCS Correlation Energy    =      -1.8976318387947890 [Eh]
	 SCS Total Energy          =    -441.0351023965153558 [Eh]
	-----------------------------------------------------------

  Dipole Moment: [D]
     X:    -0.6869      Y:     2.4762      Z:    -0.5514     Total:     2.6282

*** Psi4 exiting successfully. Buy a developer a beer!
