                               Psi4 1.3.2 release

  ==> Input File <==

--------------------------------------------------------------------------
#psi4
#
memory 32 gb

molecule  {
0 1
  O        0.9504380     0.1228240    -0.1741910
  O        0.1670080    -1.9538060     0.3788190
  N       -1.2573980    -0.2788160    -0.3316190
  C       -1.3876863     1.1489163    -0.6076345
  C       -1.5086480     1.9908930     0.6655530
  C       -2.4416600    -1.0731650    -0.0476160
  C       -0.0399700    -0.8055270    -0.0009900
  C        2.2764760    -0.3829840     0.0991100
  C        3.2256880     0.7754290    -0.1091670
  H       -0.6200800     1.4811510    -1.2396720
  H       -2.3650680     1.2369900    -1.1776810
  H       -2.3202370     1.6568460     1.3177610
  H       -0.5663980     1.9180080     1.2126270
  H       -1.6843650     3.0420300     0.4158060
  H       -2.9458070    -0.7386130     0.8669600
  H       -2.1365070    -2.1105210     0.0765900
  H       -3.1412900    -0.9939370    -0.8846800
  H        2.3097600    -0.7656990     1.1223780
  H        2.4881280    -1.2160740    -0.5765640
  H        3.1624490     1.1443740    -1.1352360
  H        2.9853640     1.5953270     0.5713660
  H        4.2535110     0.4542820     0.0824610
units angstrom
no_reorient  #important for SAPT in psi4, default
symmetry c1  #important for SAPT in psi4, default
}

set PROPERTIES_ORIGIN ["COM"]
properties('MP2/aug-cc-pvtz', properties = ['dipole'])
--------------------------------------------------------------------------

    Molecular point group: c1
  Charge       = 0
  Multiplicity = 1
  Basis Set: AUG-CC-PVTZ
    Blend: AUG-CC-PVTZ
  Basis Set: (AUG-CC-PVTZ AUX)
    Blend: AUG-CC-PVTZ-JKFIT

    Orbital Energies [Eh]
    ---------------------

    Doubly Occupied:

       1A    -20.593838     2A    -20.517211     3A    -15.583678
       4A    -11.392953     5A    -11.283749     6A    -11.266054
       7A    -11.255365     8A    -11.222626     9A    -11.220916
      10A     -1.448633    11A     -1.339644    12A     -1.248095
      13A     -1.036354    14A     -1.024917    15A     -0.947519
      16A     -0.876841    17A     -0.843233    18A     -0.762236
      19A     -0.717376    20A     -0.683094    21A     -0.671423
      22A     -0.634892    23A     -0.609100    24A     -0.596609
      25A     -0.580460    26A     -0.568029    27A     -0.560664
      28A     -0.542563    29A     -0.536635    30A     -0.522209
      31A     -0.508116    32A     -0.504497    33A     -0.497337
      34A     -0.455873    35A     -0.442159    36A     -0.374199

  @DF-RHF Final Energy:  -439.13406312453503

   => Energetics <=

    Nuclear Repulsion Energy =            492.5203468083196867
    One-Electron Energy =               -1575.5706282572566579
    Two-Electron Energy =                 643.9162183244018252
    Total Energy =                       -439.1340631245350323
  Basis Set: (AUG-CC-PVTZ AUX)
    Blend: AUG-CC-PVTZ-RI
    Molecular point group: c1

    Geometry (in Angstrom), charge = 0, multiplicity = 1:

       Center              X                  Y                   Z               Mass
    ------------   -----------------  -----------------  -----------------  -----------------
         O            0.941503005617     0.173103023706    -0.168680528761    15.994914619570
         O            0.158073005617    -1.903526976294     0.384329471239    15.994914619570
         N           -1.266332994383    -0.228536976294    -0.326108528761    14.003074004430
         C           -1.396621294383     1.199195323706    -0.602124028761    12.000000000000
         C           -1.517582994383     2.041172023706     0.671063471239    12.000000000000
         C           -2.450594994383    -1.022885976294    -0.042105528761    12.000000000000
         C           -0.048904994383    -0.755247976294     0.004520471239    12.000000000000
         C            2.267541005617    -0.332704976294     0.104620471239    12.000000000000
         C            3.216753005617     0.825708023706    -0.103656528761    12.000000000000
         H           -0.629014994383     1.531430023706    -1.234161528761     1.007825032230
         H           -2.374002994383     1.287269023706    -1.172170528761     1.007825032230
         H           -2.329171994383     1.707125023706     1.323271471239     1.007825032230
         H           -0.575332994383     1.968287023706     1.218137471239     1.007825032230
         H           -1.693299994383     3.092309023706     0.421316471239     1.007825032230
         H           -2.954741994383    -0.688333976294     0.872470471239     1.007825032230
         H           -2.145441994383    -2.060241976294     0.082100471239     1.007825032230
         H           -3.150224994383    -0.943657976294    -0.879169528761     1.007825032230
         H            2.300825005617    -0.715419976294     1.127888471239     1.007825032230
         H            2.479193005617    -1.165794976294    -0.571053528761     1.007825032230
         H            3.153514005617     1.194653023706    -1.129725528761     1.007825032230
         H            2.976429005617     1.645606023706     0.576876471239     1.007825032230
         H            4.244576005617     0.504561023706     0.087971471239     1.007825032230

  Basis Set: AUG-CC-PVTZ
    Blend: AUG-CC-PVTZ
  Basis Set: (AUG-CC-PVTZ AUX)
    Blend: AUG-CC-PVTZ-JKFIT
	 Reference Energy          =    -439.1340631245350323 [Eh]
	 Singles Energy            =      -0.0000000000000000 [Eh]
	 Same-Spin Energy          =      -0.4416372060805910 [Eh]
	 Opposite-Spin Energy      =      -1.4591441911014860 [Eh]
	 Correlation Energy        =      -1.9007813971820768 [Eh]
	 Total Energy              =    -441.0348445217171047 [Eh]

	 ================> DF-SCS-MP2 Energies <==================
	-----------------------------------------------------------
	 SCS Same-Spin Scale       =       0.3333333333333333 [-]
	 SCS Opposite-Spin Scale   =       1.2000000000000000 [-]
	 SCS Same-Spin Energy      =      -0.1472124020268636 [Eh]
	 SCS Opposite-Spin Energy  =      -1.7509730293217831 [Eh]
	 SCS Correlation Energy    =      -1.8981854313486468 [Eh]
	 SCS Total Energy          =    -441.0322485558836547 [Eh]
	-----------------------------------------------------------

  Dipole Moment: [D]
     X:    -0.5544      Y:     2.3988      Z:    -0.4987     Total:     2.5121

*** Psi4 exiting successfully. Buy a developer a beer!
