                               Psi4 1.3.2 release

  ==> Input File <==

--------------------------------------------------------------------------
#psi4
#
memory 32 gb

molecule  {
0 1
  O        0.9504380     0.1228240    -0.1741910
  O        0.1670080    -1.9538060     0.3788190
  N       -1.2382544    -0.2929508    -0.2867919
  C       -1.4380940     1.1445880    -0.6015250
  C       -1.5086480     1.9908930     0.6655530
  C       -2.4416600    -1.0731650    -0.0476160
  C       -0.0399700    -0.8055270    -0.0009900
  C        2.2764760    -0.3829840     0.0991100
  C        3.2256880     0.7754290    -0.1091670
  H       -0.6200800     1.4811510    -1.2396720
  H       -2.3650680     1.2369900    -1.1776810
  H       -2.3202370     1.6568460     1.3177610
  H       -0.5663980     1.9180080     1.2126270
  H       -1.6843650     3.0420300     0.4158060
  H       -2.9458070    -0.7386130     0.8669600
  H       -2.1365070    -2.1105210     0.0765900
  H       -3.1412900    -0.9939370    -0.8846800
  H        2.3097600    -0.7656990     1.1223780
  H        2.4881280    -1.2160740    -0.5765640
  H        3.1624490     1.1443740    -1.1352360
  H        2.9853640     1.5953270     0.5713660
  H        4.2535110     0.4542820     0.0824610
units angstrom
no_reorient  #important for SAPT in psi4, default
symmetry c1  #important for SAPT in psi4, default
}

set PROPERTIES_ORIGIN ["COM"]
properties('MP2/aug-cc-pvtz', properties = ['dipole'])
--------------------------------------------------------------------------

    Molecular point group: c1
  Charge       = 0
  Multiplicity = 1
  Basis Set: AUG-CC-PVTZ
    Blend: AUG-CC-PVTZ
  Basis Set: (AUG-CC-PVTZ AUX)
    Blend: AUG-CC-PVTZ-JKFIT

    Orbital Energies [Eh]
    ---------------------

    Doubly Occupied:

       1A    -20.591006     2A    -20.510772     3A    -15.584125
       4A    -11.388213     5A    -11.281997     6A    -11.269477
       7A    -11.255949     8A    -11.222041     9A    -11.221460
      10A     -1.447353    11A     -1.336949    12A     -1.249359
      13A     -1.035860    14A     -1.027037    15A     -0.952140
      16A     -0.875595    17A     -0.843769    18A     -0.760528
      19A     -0.714528    20A     -0.682481    21A     -0.671702
      22A     -0.634184    23A     -0.613042    24A     -0.597990
      25A     -0.578144    26A     -0.569006    27A     -0.561146
      28A     -0.538628    29A     -0.536124    30A     -0.520862
      31A     -0.508515    32A     -0.506122    33A     -0.494660
      34A     -0.453970    35A     -0.439944    36A     -0.375826

  @DF-RHF Final Energy:  -439.13691635313614

   => Energetics <=

    Nuclear Repulsion Energy =            492.7828115362701737
    One-Electron Energy =               -1576.1384428352087070
    Two-Electron Energy =                 644.2187149458023896
    Total Energy =                       -439.1369163531361437
  Basis Set: (AUG-CC-PVTZ AUX)
    Blend: AUG-CC-PVTZ-RI
    Molecular point group: c1

    Geometry (in Angstrom), charge = 0, multiplicity = 1:

       Center              X                  Y                   Z               Mass
    ------------   -----------------  -----------------  -----------------  -----------------
         O            0.944072318761     0.175009053365    -0.174028049143    15.994914619570
         O            0.160642318761    -1.901620946635     0.378981950857    15.994914619570
         N           -1.244620081239    -0.240765746635    -0.286628949143    14.003074004430
         C           -1.444459681239     1.196773053365    -0.601362049143    12.000000000000
         C           -1.515013681239     2.043078053365     0.665715950857    12.000000000000
         C           -2.448025681239    -1.020979946635    -0.047453049143    12.000000000000
         C           -0.046335681239    -0.753341946635    -0.000827049143    12.000000000000
         C            2.270110318761    -0.330798946635     0.099272950857    12.000000000000
         C            3.219322318761     0.827614053365    -0.109004049143    12.000000000000
         H           -0.626445681239     1.533336053365    -1.239509049143     1.007825032230
         H           -2.371433681239     1.289175053365    -1.177518049143     1.007825032230
         H           -2.326602681239     1.709031053365     1.317923950857     1.007825032230
         H           -0.572763681239     1.970193053365     1.212789950857     1.007825032230
         H           -1.690730681239     3.094215053365     0.415968950857     1.007825032230
         H           -2.952172681239    -0.686427946635     0.867122950857     1.007825032230
         H           -2.142872681239    -2.058335946635     0.076752950857     1.007825032230
         H           -3.147655681239    -0.941751946635    -0.884517049143     1.007825032230
         H            2.303394318761    -0.713513946635     1.122540950857     1.007825032230
         H            2.481762318761    -1.163888946635    -0.576401049143     1.007825032230
         H            3.156083318761     1.196559053365    -1.135073049143     1.007825032230
         H            2.978998318761     1.647512053365     0.571528950857     1.007825032230
         H            4.247145318761     0.506467053365     0.082623950857     1.007825032230

  Basis Set: AUG-CC-PVTZ
    Blend: AUG-CC-PVTZ
  Basis Set: (AUG-CC-PVTZ AUX)
    Blend: AUG-CC-PVTZ-JKFIT
	 Reference Energy          =    -439.1369163531361437 [Eh]
	 Singles Energy            =      -0.0000000000000000 [Eh]
	 Same-Spin Energy          =      -0.4413238525797424 [Eh]
	 Opposite-Spin Energy      =      -1.4584628157844830 [Eh]
	 Correlation Energy        =      -1.8997866683642255 [Eh]
	 Total Energy              =    -441.0367030215003865 [Eh]

	 ================> DF-SCS-MP2 Energies <==================
	-----------------------------------------------------------
	 SCS Same-Spin Scale       =       0.3333333333333333 [-]
	 SCS Opposite-Spin Scale   =       1.2000000000000000 [-]
	 SCS Same-Spin Energy      =      -0.1471079508599141 [Eh]
	 SCS Opposite-Spin Energy  =      -1.7501553789413795 [Eh]
	 SCS Correlation Energy    =      -1.8972633298012935 [Eh]
	 SCS Total Energy          =    -441.0341796829374630 [Eh]
	-----------------------------------------------------------

  Dipole Moment: [D]
     X:    -0.7848      Y:     2.5379      Z:    -0.6008     Total:     2.7236

*** Psi4 exiting successfully. Buy a developer a beer!
