                               Psi4 1.3.2 release

  ==> Input File <==

--------------------------------------------------------------------------
#psi4
#
memory 32 gb

molecule  {
0 1
  O        0.9504380     0.1228240    -0.1741910
  O        0.1670080    -1.9538060     0.3788190
  N       -1.2574919    -0.2833543    -0.3566928
  C       -1.4380940     1.1445880    -0.6015250
  C       -1.5086480     1.9908930     0.6655530
  C       -2.4416600    -1.0731650    -0.0476160
  C       -0.0399700    -0.8055270    -0.0009900
  C        2.2764760    -0.3829840     0.0991100
  C        3.2256880     0.7754290    -0.1091670
  H       -0.6200800     1.4811510    -1.2396720
  H       -2.3650680     1.2369900    -1.1776810
  H       -2.3202370     1.6568460     1.3177610
  H       -0.5663980     1.9180080     1.2126270
  H       -1.6843650     3.0420300     0.4158060
  H       -2.9458070    -0.7386130     0.8669600
  H       -2.1365070    -2.1105210     0.0765900
  H       -3.1412900    -0.9939370    -0.8846800
  H        2.3097600    -0.7656990     1.1223780
  H        2.4881280    -1.2160740    -0.5765640
  H        3.1624490     1.1443740    -1.1352360
  H        2.9853640     1.5953270     0.5713660
  H        4.2535110     0.4542820     0.0824610
units angstrom
no_reorient  #important for SAPT in psi4, default
symmetry c1  #important for SAPT in psi4, default
}

set PROPERTIES_ORIGIN ["COM"]
properties('MP2/aug-cc-pvtz', properties = ['dipole'])
--------------------------------------------------------------------------

    Molecular point group: c1
  Charge       = 0
  Multiplicity = 1
  Basis Set: AUG-CC-PVTZ
    Blend: AUG-CC-PVTZ
  Basis Set: (AUG-CC-PVTZ AUX)
    Blend: AUG-CC-PVTZ-JKFIT

    Orbital Energies [Eh]
    ---------------------

    Doubly Occupied:

       1A    -20.593991     2A    -20.518935     3A    -15.583574
       4A    -11.394622     5A    -11.283748     6A    -11.265233
       7A    -11.254138     8A    -11.222545     9A    -11.221067
      10A     -1.448531    11A     -1.340332    12A     -1.246987
      13A     -1.036515    14A     -1.024833    15A     -0.946021
      16A     -0.878208    17A     -0.842758    18A     -0.762018
      19A     -0.711568    20A     -0.682873    21A     -0.673256
      22A     -0.635304    23A     -0.613356    24A     -0.594186
      25A     -0.580814    26A     -0.566951    27A     -0.559916
      28A     -0.541902    29A     -0.535428    30A     -0.520295
      31A     -0.508960    32A     -0.506996    33A     -0.496172
      34A     -0.456000    35A     -0.443854    36A     -0.375348

  @DF-RHF Final Energy:  -439.13661536789601

   => Energetics <=

    Nuclear Repulsion Energy =            492.0834469909633526
    One-Electron Energy =               -1574.7056457804471847
    Two-Electron Energy =                 643.4855834215877621
    Total Energy =                       -439.1366153678959563
  Basis Set: (AUG-CC-PVTZ AUX)
    Blend: AUG-CC-PVTZ-RI
    Molecular point group: c1

    Geometry (in Angstrom), charge = 0, multiplicity = 1:

       Center              X                  Y                   Z               Mass
    ------------   -----------------  -----------------  -----------------  -----------------
         O            0.946127201855     0.173983988486    -0.166561477204    15.994914619570
         O            0.162697201855    -1.902646011514     0.386448522796    15.994914619570
         N           -1.261802698145    -0.232194311514    -0.349063277204    14.003074004430
         C           -1.442404798145     1.195747988486    -0.593895477204    12.000000000000
         C           -1.512958798145     2.042052988486     0.673182522796    12.000000000000
         C           -2.445970798145    -1.022005011514    -0.039986477204    12.000000000000
         C           -0.044280798145    -0.754367011514     0.006639522796    12.000000000000
         C            2.272165201855    -0.331824011514     0.106739522796    12.000000000000
         C            3.221377201855     0.826588988486    -0.101537477204    12.000000000000
         H           -0.624390798145     1.532310988486    -1.232042477204     1.007825032230
         H           -2.369378798145     1.288149988486    -1.170051477204     1.007825032230
         H           -2.324547798145     1.708005988486     1.325390522796     1.007825032230
         H           -0.570708798145     1.969167988486     1.220256522796     1.007825032230
         H           -1.688675798145     3.093189988486     0.423435522796     1.007825032230
         H           -2.950117798145    -0.687453011514     0.874589522796     1.007825032230
         H           -2.140817798145    -2.059361011514     0.084219522796     1.007825032230
         H           -3.145600798145    -0.942777011514    -0.877050477204     1.007825032230
         H            2.305449201855    -0.714539011514     1.130007522796     1.007825032230
         H            2.483817201855    -1.164914011514    -0.568934477204     1.007825032230
         H            3.158138201855     1.195533988486    -1.127606477204     1.007825032230
         H            2.981053201855     1.646486988486     0.578995522796     1.007825032230
         H            4.249200201855     0.505441988486     0.090090522796     1.007825032230

  Basis Set: AUG-CC-PVTZ
    Blend: AUG-CC-PVTZ
  Basis Set: (AUG-CC-PVTZ AUX)
    Blend: AUG-CC-PVTZ-JKFIT
	 Reference Energy          =    -439.1366153678960131 [Eh]
	 Singles Energy            =      -0.0000000000000000 [Eh]
	 Same-Spin Energy          =      -0.4416658943915956 [Eh]
	 Opposite-Spin Energy      =      -1.4591919943857581 [Eh]
	 Correlation Energy        =      -1.9008578887773537 [Eh]
	 Total Energy              =    -441.0374732566733655 [Eh]

	 ================> DF-SCS-MP2 Energies <==================
	-----------------------------------------------------------
	 SCS Same-Spin Scale       =       0.3333333333333333 [-]
	 SCS Opposite-Spin Scale   =       1.2000000000000000 [-]
	 SCS Same-Spin Energy      =      -0.1472219647971985 [Eh]
	 SCS Opposite-Spin Energy  =      -1.7510303932629097 [Eh]
	 SCS Correlation Energy    =      -1.8982523580601083 [Eh]
	 SCS Total Energy          =    -441.0348677259561327 [Eh]
	-----------------------------------------------------------

  Dipole Moment: [D]
     X:    -0.5508      Y:     2.4059      Z:    -0.4507     Total:     2.5090

*** Psi4 exiting successfully. Buy a developer a beer!
