                               Psi4 1.3.2 release

  ==> Input File <==

--------------------------------------------------------------------------
#psi4
#
memory 32 gb

molecule  {
0 1
  O        0.9504380     0.1228240    -0.1741910
  O        0.1670080    -1.9538060     0.3788190
  N       -1.3233839    -0.2422814    -0.4638078
  C       -1.4380940     1.1445880    -0.6015250
  C       -1.5086480     1.9908930     0.6655530
  C       -2.4416600    -1.0731650    -0.0476160
  C       -0.0399700    -0.8055270    -0.0009900
  C        2.2764760    -0.3829840     0.0991100
  C        3.2256880     0.7754290    -0.1091670
  H       -0.6200800     1.4811510    -1.2396720
  H       -2.3650680     1.2369900    -1.1776810
  H       -2.3202370     1.6568460     1.3177610
  H       -0.5663980     1.9180080     1.2126270
  H       -1.6843650     3.0420300     0.4158060
  H       -2.9458070    -0.7386130     0.8669600
  H       -2.1365070    -2.1105210     0.0765900
  H       -3.1412900    -0.9939370    -0.8846800
  H        2.3097600    -0.7656990     1.1223780
  H        2.4881280    -1.2160740    -0.5765640
  H        3.1624490     1.1443740    -1.1352360
  H        2.9853640     1.5953270     0.5713660
  H        4.2535110     0.4542820     0.0824610
units angstrom
no_reorient  #important for SAPT in psi4, default
symmetry c1  #important for SAPT in psi4, default
}

set PROPERTIES_ORIGIN ["COM"]
properties('MP2/aug-cc-pvtz', properties = ['dipole'])
--------------------------------------------------------------------------

    Molecular point group: c1
  Charge       = 0
  Multiplicity = 1
  Basis Set: AUG-CC-PVTZ
    Blend: AUG-CC-PVTZ
  Basis Set: (AUG-CC-PVTZ AUX)
    Blend: AUG-CC-PVTZ-JKFIT

    Orbital Energies [Eh]
    ---------------------

    Doubly Occupied:

       1A    -20.601199     2A    -20.537059     3A    -15.582360
       4A    -11.407475     5A    -11.287851     6A    -11.255367
       7A    -11.250204     8A    -11.225106     9A    -11.217471
      10A     -1.451809    11A     -1.348900    12A     -1.245075
      13A     -1.038842    14A     -1.019989    15A     -0.934729
      16A     -0.881899    17A     -0.836880    18A     -0.765584
      19A     -0.708596    20A     -0.684336    21A     -0.677225
      22A     -0.638918    23A     -0.613064    24A     -0.591106
      25A     -0.585766    26A     -0.565405    27A     -0.557617
      28A     -0.549983    29A     -0.527178    30A     -0.519717
      31A     -0.511581    32A     -0.505933    33A     -0.499492
      34A     -0.460797    35A     -0.447595    36A     -0.371201

  @DF-RHF Final Energy:  -439.11789652450580

   => Energetics <=

    Nuclear Repulsion Energy =            490.5492241500335240
    One-Electron Energy =               -1571.5276146346009227
    Two-Electron Energy =                 641.8604939600616035
    Total Energy =                       -439.1178965245057952
  Basis Set: (AUG-CC-PVTZ AUX)
    Blend: AUG-CC-PVTZ-RI
    Molecular point group: c1

    Geometry (in Angstrom), charge = 0, multiplicity = 1:

       Center              X                  Y                   Z               Mass
    ------------   -----------------  -----------------  -----------------  -----------------
         O            0.953165556986     0.169596723621    -0.155119824047    15.994914619570
         O            0.169735556986    -1.907033276379     0.397890175953    15.994914619570
         N           -1.320656343014    -0.195508676379    -0.444736624047    14.003074004430
         C           -1.435366443014     1.191360723621    -0.582453824047    12.000000000000
         C           -1.505920443014     2.037665723621     0.684624175953    12.000000000000
         C           -2.438932443014    -1.026392276379    -0.028544824047    12.000000000000
         C           -0.037242443014    -0.758754276379     0.018081175953    12.000000000000
         C            2.279203556986    -0.336211276379     0.118181175953    12.000000000000
         C            3.228415556986     0.822201723621    -0.090095824047    12.000000000000
         H           -0.617352443014     1.527923723621    -1.220600824047     1.007825032230
         H           -2.362340443014     1.283762723621    -1.158609824047     1.007825032230
         H           -2.317509443014     1.703618723621     1.336832175953     1.007825032230
         H           -0.563670443014     1.964780723621     1.231698175953     1.007825032230
         H           -1.681637443014     3.088802723621     0.434877175953     1.007825032230
         H           -2.943079443014    -0.691840276379     0.886031175953     1.007825032230
         H           -2.133779443014    -2.063748276379     0.095661175953     1.007825032230
         H           -3.138562443014    -0.947164276379    -0.865608824047     1.007825032230
         H            2.312487556986    -0.718926276379     1.141449175953     1.007825032230
         H            2.490855556986    -1.169301276379    -0.557492824047     1.007825032230
         H            3.165176556986     1.191146723621    -1.116164824047     1.007825032230
         H            2.988091556986     1.642099723621     0.590437175953     1.007825032230
         H            4.256238556986     0.501054723621     0.101532175953     1.007825032230

  Basis Set: AUG-CC-PVTZ
    Blend: AUG-CC-PVTZ
  Basis Set: (AUG-CC-PVTZ AUX)
    Blend: AUG-CC-PVTZ-JKFIT
	 Reference Energy          =    -439.1178965245057952 [Eh]
	 Singles Energy            =      -0.0000000000000000 [Eh]
	 Same-Spin Energy          =      -0.4429499612163550 [Eh]
	 Opposite-Spin Energy      =      -1.4620382832195937 [Eh]
	 Correlation Energy        =      -1.9049882444359487 [Eh]
	 Total Energy              =    -441.0228847689417648 [Eh]

	 ================> DF-SCS-MP2 Energies <==================
	-----------------------------------------------------------
	 SCS Same-Spin Scale       =       0.3333333333333333 [-]
	 SCS Opposite-Spin Scale   =       1.2000000000000000 [-]
	 SCS Same-Spin Energy      =      -0.1476499870721183 [Eh]
	 SCS Opposite-Spin Energy  =      -1.7544459398635124 [Eh]
	 SCS Correlation Energy    =      -1.9020959269356308 [Eh]
	 SCS Total Energy          =    -441.0199924514414533 [Eh]
	-----------------------------------------------------------

  Dipole Moment: [D]
     X:     0.0379      Y:     2.0512      Z:    -0.1784     Total:     2.0593

*** Psi4 exiting successfully. Buy a developer a beer!
