                               Psi4 1.3.2 release

  ==> Input File <==

--------------------------------------------------------------------------
#psi4
#
memory 32 gb

molecule  {
0 1
  O        0.9504380     0.1228240    -0.1741910
  O        0.1670080    -1.9538060     0.3788190
  N       -1.2587854    -0.2994985    -0.4830268
  C       -1.4380940     1.1445880    -0.6015250
  C       -1.5086480     1.9908930     0.6655530
  C       -2.4416600    -1.0731650    -0.0476160
  C       -0.0399700    -0.8055270    -0.0009900
  C        2.2764760    -0.3829840     0.0991100
  C        3.2256880     0.7754290    -0.1091670
  H       -0.6200800     1.4811510    -1.2396720
  H       -2.3650680     1.2369900    -1.1776810
  H       -2.3202370     1.6568460     1.3177610
  H       -0.5663980     1.9180080     1.2126270
  H       -1.6843650     3.0420300     0.4158060
  H       -2.9458070    -0.7386130     0.8669600
  H       -2.1365070    -2.1105210     0.0765900
  H       -3.1412900    -0.9939370    -0.8846800
  H        2.3097600    -0.7656990     1.1223780
  H        2.4881280    -1.2160740    -0.5765640
  H        3.1624490     1.1443740    -1.1352360
  H        2.9853640     1.5953270     0.5713660
  H        4.2535110     0.4542820     0.0824610
units angstrom
no_reorient  #important for SAPT in psi4, default
symmetry c1  #important for SAPT in psi4, default
}

set PROPERTIES_ORIGIN ["COM"]
properties('MP2/aug-cc-pvtz', properties = ['dipole'])
--------------------------------------------------------------------------

    Molecular point group: c1
  Charge       = 0
  Multiplicity = 1
  Basis Set: AUG-CC-PVTZ
    Blend: AUG-CC-PVTZ
  Basis Set: (AUG-CC-PVTZ AUX)
    Blend: AUG-CC-PVTZ-JKFIT

    Orbital Energies [Eh]
    ---------------------

    Doubly Occupied:

       1A    -20.596772     2A    -20.527286     3A    -15.585889
       4A    -11.399070     5A    -11.285279     6A    -11.262090
       7A    -11.253069     8A    -11.223507     9A    -11.222493
      10A     -1.450114    11A     -1.344116    12A     -1.239374
      13A     -1.037031    14A     -1.021590    15A     -0.940172
      16A     -0.879104    17A     -0.841569    18A     -0.763458
      19A     -0.704716    20A     -0.682752    21A     -0.674673
      22A     -0.634726    23A     -0.612479    24A     -0.591205
      25A     -0.584059    26A     -0.563242    27A     -0.557331
      28A     -0.547006    29A     -0.532395    30A     -0.516867
      31A     -0.510031    32A     -0.506433    33A     -0.494313
      34A     -0.457950    35A     -0.447029    36A     -0.382135

  @DF-RHF Final Energy:  -439.12849295975843

   => Energetics <=

    Nuclear Repulsion Energy =            490.8194042902476895
    One-Electron Energy =               -1572.1531484320537402
    Two-Electron Energy =                 642.2052511820477321
    Total Energy =                       -439.1284929597584323
  Basis Set: (AUG-CC-PVTZ AUX)
    Blend: AUG-CC-PVTZ-RI
    Molecular point group: c1

    Geometry (in Angstrom), charge = 0, multiplicity = 1:

       Center              X                  Y                   Z               Mass
    ------------   -----------------  -----------------  -----------------  -----------------
         O            0.946265369043     0.175708455992    -0.153066917059    15.994914619570
         O            0.162835369043    -1.900921544008     0.399943082941    15.994914619570
         N           -1.262958030957    -0.246614044008    -0.461902717059    14.003074004430
         C           -1.442266630957     1.197472455992    -0.580400917059    12.000000000000
         C           -1.512820630957     2.043777455992     0.686677082941    12.000000000000
         C           -2.445832630957    -1.020280544008    -0.026491917059    12.000000000000
         C           -0.044142630957    -0.752642544008     0.020134082941    12.000000000000
         C            2.272303369043    -0.330099544008     0.120234082941    12.000000000000
         C            3.221515369043     0.828313455992    -0.088042917059    12.000000000000
         H           -0.624252630957     1.534035455992    -1.218547917059     1.007825032230
         H           -2.369240630957     1.289874455992    -1.156556917059     1.007825032230
         H           -2.324409630957     1.709730455992     1.338885082941     1.007825032230
         H           -0.570570630957     1.970892455992     1.233751082941     1.007825032230
         H           -1.688537630957     3.094914455992     0.436930082941     1.007825032230
         H           -2.949979630957    -0.685728544008     0.888084082941     1.007825032230
         H           -2.140679630957    -2.057636544008     0.097714082941     1.007825032230
         H           -3.145462630957    -0.941052544008    -0.863555917059     1.007825032230
         H            2.305587369043    -0.712814544008     1.143502082941     1.007825032230
         H            2.483955369043    -1.163189544008    -0.555439917059     1.007825032230
         H            3.158276369043     1.197258455992    -1.114111917059     1.007825032230
         H            2.981191369043     1.648211455992     0.592490082941     1.007825032230
         H            4.249338369043     0.507166455992     0.103585082941     1.007825032230

  Basis Set: AUG-CC-PVTZ
    Blend: AUG-CC-PVTZ
  Basis Set: (AUG-CC-PVTZ AUX)
    Blend: AUG-CC-PVTZ-JKFIT
	 Reference Energy          =    -439.1284929597584323 [Eh]
	 Singles Energy            =      -0.0000000000000000 [Eh]
	 Same-Spin Energy          =      -0.4420069276210642 [Eh]
	 Opposite-Spin Energy      =      -1.4606909886230017 [Eh]
	 Correlation Energy        =      -1.9026979162440658 [Eh]
	 Total Energy              =    -441.0311908760024835 [Eh]

	 ================> DF-SCS-MP2 Energies <==================
	-----------------------------------------------------------
	 SCS Same-Spin Scale       =       0.3333333333333333 [-]
	 SCS Opposite-Spin Scale   =       1.2000000000000000 [-]
	 SCS Same-Spin Energy      =      -0.1473356425403547 [Eh]
	 SCS Opposite-Spin Energy  =      -1.7528291863476020 [Eh]
	 SCS Correlation Energy    =      -1.9001648288879567 [Eh]
	 SCS Total Energy          =    -441.0286577886463988 [Eh]
	-----------------------------------------------------------

  Dipole Moment: [D]
     X:    -0.3183      Y:     2.3242      Z:    -0.1744     Total:     2.3523

*** Psi4 exiting successfully. Buy a developer a beer!
