                               Psi4 1.3.2 release

  ==> Input File <==

--------------------------------------------------------------------------
#psi4
#
memory 32 gb

molecule  {
0 1
  O        0.9504380     0.1228240    -0.1741910
  O        0.1670080    -1.9538060     0.3788190
  N       -1.2573980    -0.2788160    -0.3316190
  C       -1.2864562     1.1523515    -0.6188376
  C       -1.5086480     1.9908930     0.6655530
  C       -2.4416600    -1.0731650    -0.0476160
  C       -0.0399700    -0.8055270    -0.0009900
  C        2.2764760    -0.3829840     0.0991100
  C        3.2256880     0.7754290    -0.1091670
  H       -0.6200800     1.4811510    -1.2396720
  H       -2.3650680     1.2369900    -1.1776810
  H       -2.3202370     1.6568460     1.3177610
  H       -0.5663980     1.9180080     1.2126270
  H       -1.6843650     3.0420300     0.4158060
  H       -2.9458070    -0.7386130     0.8669600
  H       -2.1365070    -2.1105210     0.0765900
  H       -3.1412900    -0.9939370    -0.8846800
  H        2.3097600    -0.7656990     1.1223780
  H        2.4881280    -1.2160740    -0.5765640
  H        3.1624490     1.1443740    -1.1352360
  H        2.9853640     1.5953270     0.5713660
  H        4.2535110     0.4542820     0.0824610
units angstrom
no_reorient  #important for SAPT in psi4, default
symmetry c1  #important for SAPT in psi4, default
}

set PROPERTIES_ORIGIN ["COM"]
properties('MP2/aug-cc-pvtz', properties = ['dipole'])
--------------------------------------------------------------------------

    Molecular point group: c1
  Charge       = 0
  Multiplicity = 1
  Basis Set: AUG-CC-PVTZ
    Blend: AUG-CC-PVTZ
  Basis Set: (AUG-CC-PVTZ AUX)
    Blend: AUG-CC-PVTZ-JKFIT

    Orbital Energies [Eh]
    ---------------------

    Doubly Occupied:

       1A    -20.594929     2A    -20.516675     3A    -15.585383
       4A    -11.391587     5A    -11.284549     6A    -11.268994
       7A    -11.257858     8A    -11.223284     9A    -11.222626
      10A     -1.449910    11A     -1.339835    12A     -1.248997
      13A     -1.036814    14A     -1.024237    15A     -0.949190
      16A     -0.876710    17A     -0.845506    18A     -0.764547
      19A     -0.728876    20A     -0.684051    21A     -0.669950
      22A     -0.635437    23A     -0.605781    24A     -0.593763
      25A     -0.581457    26A     -0.569225    27A     -0.563223
      28A     -0.548259    29A     -0.539372    30A     -0.526647
      31A     -0.508637    32A     -0.506933    33A     -0.480081
      34A     -0.456556    35A     -0.438532    36A     -0.372547

  @DF-RHF Final Energy:  -439.10818441675349

   => Energetics <=

    Nuclear Repulsion Energy =            493.0318663115257891
    One-Electron Energy =               -1576.4981777838443122
    Two-Electron Energy =                 644.3581270555649780
    Total Energy =                       -439.1081844167534882
  Basis Set: (AUG-CC-PVTZ AUX)
    Blend: AUG-CC-PVTZ-RI
    Molecular point group: c1

    Geometry (in Angstrom), charge = 0, multiplicity = 1:

       Center              X                  Y                   Z               Mass
    ------------   -----------------  -----------------  -----------------  -----------------
         O            0.932236712921     0.172788576040    -0.167655031368    15.994914619570
         O            0.148806712921    -1.903841423960     0.385354968632    15.994914619570
         N           -1.275599287079    -0.228851423960    -0.325083031368    14.003074004430
         C           -1.304657487079     1.202316076040    -0.612301631368    12.000000000000
         C           -1.526849287079     2.040857576040     0.672088968632    12.000000000000
         C           -2.459861287079    -1.023200423960    -0.041080031368    12.000000000000
         C           -0.058171287079    -0.755562423960     0.005545968632    12.000000000000
         C            2.258274712921    -0.333019423960     0.105645968632    12.000000000000
         C            3.207486712921     0.825393576040    -0.102631031368    12.000000000000
         H           -0.638281287079     1.531115576040    -1.233136031368     1.007825032230
         H           -2.383269287079     1.286954576040    -1.171145031368     1.007825032230
         H           -2.338438287079     1.706810576040     1.324296968632     1.007825032230
         H           -0.584599287079     1.967972576040     1.219162968632     1.007825032230
         H           -1.702566287079     3.091994576040     0.422341968632     1.007825032230
         H           -2.964008287079    -0.688648423960     0.873495968632     1.007825032230
         H           -2.154708287079    -2.060556423960     0.083125968632     1.007825032230
         H           -3.159491287079    -0.943972423960    -0.878144031368     1.007825032230
         H            2.291558712921    -0.715734423960     1.128913968632     1.007825032230
         H            2.469926712921    -1.166109423960    -0.570028031368     1.007825032230
         H            3.144247712921     1.194338576040    -1.128700031368     1.007825032230
         H            2.967162712921     1.645291576040     0.577901968632     1.007825032230
         H            4.235309712921     0.504246576040     0.088996968632     1.007825032230

  Basis Set: AUG-CC-PVTZ
    Blend: AUG-CC-PVTZ
  Basis Set: (AUG-CC-PVTZ AUX)
    Blend: AUG-CC-PVTZ-JKFIT
	 Reference Energy          =    -439.1081844167534882 [Eh]
	 Singles Energy            =      -0.0000000000000000 [Eh]
	 Same-Spin Energy          =      -0.4420039366936864 [Eh]
	 Opposite-Spin Energy      =      -1.4604453533658397 [Eh]
	 Correlation Energy        =      -1.9024492900595260 [Eh]
	 Total Energy              =    -441.0106337068129960 [Eh]

	 ================> DF-SCS-MP2 Energies <==================
	-----------------------------------------------------------
	 SCS Same-Spin Scale       =       0.3333333333333333 [-]
	 SCS Opposite-Spin Scale   =       1.2000000000000000 [-]
	 SCS Same-Spin Energy      =      -0.1473346455645621 [Eh]
	 SCS Opposite-Spin Energy  =      -1.7525344240390075 [Eh]
	 SCS Correlation Energy    =      -1.8998690696035696 [Eh]
	 SCS Total Energy          =    -441.0080534863570847 [Eh]
	-----------------------------------------------------------

  Dipole Moment: [D]
     X:    -0.4736      Y:     2.3401      Z:    -0.4670     Total:     2.4328

*** Psi4 exiting successfully. Buy a developer a beer!
