                               Psi4 1.3.2 release

  ==> Input File <==

--------------------------------------------------------------------------
#psi4
#
memory 32 gb

molecule  {
0 1
  O        0.9504380     0.1228240    -0.1741910
  O        0.1670080    -1.9538060     0.3788190
  N       -1.2573980    -0.2788160    -0.3316190
  C       -1.4882816     1.1385255    -0.5950867
  C       -1.5086480     1.9908930     0.6655530
  C       -2.4416600    -1.0731650    -0.0476160
  C       -0.0399700    -0.8055270    -0.0009900
  C        2.2764760    -0.3829840     0.0991100
  C        3.2256880     0.7754290    -0.1091670
  H       -0.6200800     1.4811510    -1.2396720
  H       -2.3650680     1.2369900    -1.1776810
  H       -2.3202370     1.6568460     1.3177610
  H       -0.5663980     1.9180080     1.2126270
  H       -1.6843650     3.0420300     0.4158060
  H       -2.9458070    -0.7386130     0.8669600
  H       -2.1365070    -2.1105210     0.0765900
  H       -3.1412900    -0.9939370    -0.8846800
  H        2.3097600    -0.7656990     1.1223780
  H        2.4881280    -1.2160740    -0.5765640
  H        3.1624490     1.1443740    -1.1352360
  H        2.9853640     1.5953270     0.5713660
  H        4.2535110     0.4542820     0.0824610
units angstrom
no_reorient  #important for SAPT in psi4, default
symmetry c1  #important for SAPT in psi4, default
}

set PROPERTIES_ORIGIN ["COM"]
properties('MP2/aug-cc-pvtz', properties = ['dipole'])
--------------------------------------------------------------------------

    Molecular point group: c1
  Charge       = 0
  Multiplicity = 1
  Basis Set: AUG-CC-PVTZ
    Blend: AUG-CC-PVTZ
  Basis Set: (AUG-CC-PVTZ AUX)
    Blend: AUG-CC-PVTZ-JKFIT

    Orbital Energies [Eh]
    ---------------------

    Doubly Occupied:

       1A    -20.593385     2A    -20.518251     3A    -15.583388
       4A    -11.395004     5A    -11.283340     6A    -11.266097
       7A    -11.253520     8A    -11.222205     9A    -11.221038
      10A     -1.448115    11A     -1.340009    12A     -1.248248
      13A     -1.036725    14A     -1.025606    15A     -0.946461
      16A     -0.879419    17A     -0.842944    18A     -0.761875
      19A     -0.710094    20A     -0.682661    21A     -0.675047
      22A     -0.635860    23A     -0.617275    24A     -0.592763
      25A     -0.580109    26A     -0.567929    27A     -0.559925
      28A     -0.539863    29A     -0.535834    30A     -0.523866
      31A     -0.509977    32A     -0.507415    33A     -0.488815
      34A     -0.455597    35A     -0.444131    36A     -0.374198

  @DF-RHF Final Energy:  -439.13378932658725

   => Energetics <=

    Nuclear Repulsion Energy =            492.0522531153653176
    One-Electron Energy =               -1574.6381082415789479
    Two-Electron Energy =                 643.4520657996263253
    Total Energy =                       -439.1337893265872481
  Basis Set: (AUG-CC-PVTZ AUX)
    Blend: AUG-CC-PVTZ-RI
    Molecular point group: c1

    Geometry (in Angstrom), charge = 0, multiplicity = 1:

       Center              X                  Y                   Z               Mass
    ------------   -----------------  -----------------  -----------------  -----------------
         O            0.950711190669     0.174054165650    -0.169829115866    15.994914619570
         O            0.167281190669    -1.902575834350     0.383180884134    15.994914619570
         N           -1.257124809331    -0.227585834350    -0.327257115866    14.003074004430
         C           -1.488008409331     1.189755665650    -0.590724815866    12.000000000000
         C           -1.508374809331     2.042123165650     0.669914884134    12.000000000000
         C           -2.441386809331    -1.021934834350    -0.043254115866    12.000000000000
         C           -0.039696809331    -0.754296834350     0.003371884134    12.000000000000
         C            2.276749190669    -0.331753834350     0.103471884134    12.000000000000
         C            3.225961190669     0.826659165650    -0.104805115866    12.000000000000
         H           -0.619806809331     1.532381165650    -1.235310115866     1.007825032230
         H           -2.364794809331     1.288220165650    -1.173319115866     1.007825032230
         H           -2.319963809331     1.708076165650     1.322122884134     1.007825032230
         H           -0.566124809331     1.969238165650     1.216988884134     1.007825032230
         H           -1.684091809331     3.093260165650     0.420167884134     1.007825032230
         H           -2.945533809331    -0.687382834350     0.871321884134     1.007825032230
         H           -2.136233809331    -2.059290834350     0.080951884134     1.007825032230
         H           -3.141016809331    -0.942706834350    -0.880318115866     1.007825032230
         H            2.310033190669    -0.714468834350     1.126739884134     1.007825032230
         H            2.488401190669    -1.164843834350    -0.572202115866     1.007825032230
         H            3.162722190669     1.195604165650    -1.130874115866     1.007825032230
         H            2.985637190669     1.646557165650     0.575727884134     1.007825032230
         H            4.253784190669     0.505512165650     0.086822884134     1.007825032230

  Basis Set: AUG-CC-PVTZ
    Blend: AUG-CC-PVTZ
  Basis Set: (AUG-CC-PVTZ AUX)
    Blend: AUG-CC-PVTZ-JKFIT
	 Reference Energy          =    -439.1337893265872481 [Eh]
	 Singles Energy            =      -0.0000000000000000 [Eh]
	 Same-Spin Energy          =      -0.4417676311761713 [Eh]
	 Opposite-Spin Energy      =      -1.4593326719812234 [Eh]
	 Correlation Energy        =      -1.9011003031573948 [Eh]
	 Total Energy              =    -441.0348896297446686 [Eh]

	 ================> DF-SCS-MP2 Energies <==================
	-----------------------------------------------------------
	 SCS Same-Spin Scale       =       0.3333333333333333 [-]
	 SCS Opposite-Spin Scale   =       1.2000000000000000 [-]
	 SCS Same-Spin Energy      =      -0.1472558770587238 [Eh]
	 SCS Opposite-Spin Energy  =      -1.7511992063774680 [Eh]
	 SCS Correlation Energy    =      -1.8984550834361917 [Eh]
	 SCS Total Energy          =    -441.0322444100234520 [Eh]
	-----------------------------------------------------------

  Dipole Moment: [D]
     X:    -0.6126      Y:     2.4189      Z:    -0.4929     Total:     2.5434

*** Psi4 exiting successfully. Buy a developer a beer!
