                               Psi4 1.3.2 release

  ==> Input File <==

--------------------------------------------------------------------------
#psi4
#
memory 32 gb

molecule  {
0 1
  O        0.9504380     0.1228240    -0.1741910
  O        0.1670080    -1.9538060     0.3788190
  N       -1.2573980    -0.2788160    -0.3316190
  C       -1.4129138     1.1469693    -0.6046213
  C       -1.5086480     1.9908930     0.6655530
  C       -2.4416600    -1.0731650    -0.0476160
  C       -0.0399700    -0.8055270    -0.0009900
  C        2.2764760    -0.3829840     0.0991100
  C        3.2256880     0.7754290    -0.1091670
  H       -0.6200800     1.4811510    -1.2396720
  H       -2.3650680     1.2369900    -1.1776810
  H       -2.3202370     1.6568460     1.3177610
  H       -0.5663980     1.9180080     1.2126270
  H       -1.6843650     3.0420300     0.4158060
  H       -2.9458070    -0.7386130     0.8669600
  H       -2.1365070    -2.1105210     0.0765900
  H       -3.1412900    -0.9939370    -0.8846800
  H        2.3097600    -0.7656990     1.1223780
  H        2.4881280    -1.2160740    -0.5765640
  H        3.1624490     1.1443740    -1.1352360
  H        2.9853640     1.5953270     0.5713660
  H        4.2535110     0.4542820     0.0824610
units angstrom
no_reorient  #important for SAPT in psi4, default
symmetry c1  #important for SAPT in psi4, default
}

set PROPERTIES_ORIGIN ["COM"]
properties('MP2/aug-cc-pvtz', properties = ['dipole'])
--------------------------------------------------------------------------

    Molecular point group: c1
  Charge       = 0
  Multiplicity = 1
  Basis Set: AUG-CC-PVTZ
    Blend: AUG-CC-PVTZ
  Basis Set: (AUG-CC-PVTZ AUX)
    Blend: AUG-CC-PVTZ-JKFIT

    Orbital Energies [Eh]
    ---------------------

    Doubly Occupied:

       1A    -20.593670     2A    -20.517426     3A    -15.583472
       4A    -11.393404     5A    -11.283613     6A    -11.265785
       7A    -11.254838     8A    -11.222501     9A    -11.220768
      10A     -1.448438    11A     -1.339686    12A     -1.248033
      13A     -1.036373    14A     -1.025102    15A     -0.947186
      16A     -0.877274    17A     -0.842997    18A     -0.761980
      19A     -0.714934    20A     -0.682958    21A     -0.672199
      22A     -0.634971    23A     -0.611350    24A     -0.595732
      25A     -0.580302    26A     -0.567921    27A     -0.560338
      28A     -0.541644    29A     -0.536021    30A     -0.521127
      31A     -0.508207    32A     -0.505432    33A     -0.498166
      34A     -0.455767    35A     -0.442768    36A     -0.374346

  @DF-RHF Final Energy:  -439.13640117110111

   => Energetics <=

    Nuclear Repulsion Energy =            492.3996451787270416
    One-Electron Energy =               -1575.3386362227322479
    Two-Electron Energy =                 643.8025898729041501
    Total Energy =                       -439.1364011711010562
  Basis Set: (AUG-CC-PVTZ AUX)
    Blend: AUG-CC-PVTZ-RI
    Molecular point group: c1

    Geometry (in Angstrom), charge = 0, multiplicity = 1:

       Center              X                  Y                   Z               Mass
    ------------   -----------------  -----------------  -----------------  -----------------
         O            0.943812253548     0.173281246111    -0.168956347842    15.994914619570
         O            0.160382253548    -1.903348753889     0.384053652158    15.994914619570
         N           -1.264023746452    -0.228358753889    -0.326384347842    14.003074004430
         C           -1.419539546452     1.197426546111    -0.599386647842    12.000000000000
         C           -1.515273746452     2.041350246111     0.670787652158    12.000000000000
         C           -2.448285746452    -1.022707753889    -0.042381347842    12.000000000000
         C           -0.046595746452    -0.755069753889     0.004244652158    12.000000000000
         C            2.269850253548    -0.332526753889     0.104344652158    12.000000000000
         C            3.219062253548     0.825886246111    -0.103932347842    12.000000000000
         H           -0.626705746452     1.531608246111    -1.234437347842     1.007825032230
         H           -2.371693746452     1.287447246111    -1.172446347842     1.007825032230
         H           -2.326862746452     1.707303246111     1.322995652158     1.007825032230
         H           -0.573023746452     1.968465246111     1.217861652158     1.007825032230
         H           -1.690990746452     3.092487246111     0.421040652158     1.007825032230
         H           -2.952432746452    -0.688155753889     0.872194652158     1.007825032230
         H           -2.143132746452    -2.060063753889     0.081824652158     1.007825032230
         H           -3.147915746452    -0.943479753889    -0.879445347842     1.007825032230
         H            2.303134253548    -0.715241753889     1.127612652158     1.007825032230
         H            2.481502253548    -1.165616753889    -0.571329347842     1.007825032230
         H            3.155823253548     1.194831246111    -1.130001347842     1.007825032230
         H            2.978738253548     1.645784246111     0.576600652158     1.007825032230
         H            4.246885253548     0.504739246111     0.087695652158     1.007825032230

  Basis Set: AUG-CC-PVTZ
    Blend: AUG-CC-PVTZ
  Basis Set: (AUG-CC-PVTZ AUX)
    Blend: AUG-CC-PVTZ-JKFIT
	 Reference Energy          =    -439.1364011711011131 [Eh]
	 Singles Energy            =      -0.0000000000000000 [Eh]
	 Same-Spin Energy          =      -0.4416242089715805 [Eh]
	 Opposite-Spin Energy      =      -1.4590508717974677 [Eh]
	 Correlation Energy        =      -1.9006750807690482 [Eh]
	 Total Energy              =    -441.0370762518701895 [Eh]

	 ================> DF-SCS-MP2 Energies <==================
	-----------------------------------------------------------
	 SCS Same-Spin Scale       =       0.3333333333333333 [-]
	 SCS Opposite-Spin Scale   =       1.2000000000000000 [-]
	 SCS Same-Spin Energy      =      -0.1472080696571935 [Eh]
	 SCS Opposite-Spin Energy  =      -1.7508610461569611 [Eh]
	 SCS Correlation Energy    =      -1.8980691158141547 [Eh]
	 SCS Total Energy          =    -441.0344702869152798 [Eh]
	-----------------------------------------------------------

  Dipole Moment: [D]
     X:    -0.5710      Y:     2.4074      Z:    -0.5009     Total:     2.5244

*** Psi4 exiting successfully. Buy a developer a beer!
