                               Psi4 1.3.2 release

  ==> Input File <==

--------------------------------------------------------------------------
#psi4
#
memory 32 gb

molecule  {
0 1
  O        0.9504380     0.1228240    -0.1741910
  O        0.1670080    -1.9538060     0.3788190
  N       -1.2999887    -0.2534659    -0.4201809
  C       -1.4380940     1.1445880    -0.6015250
  C       -1.5086480     1.9908930     0.6655530
  C       -2.4416600    -1.0731650    -0.0476160
  C       -0.0399700    -0.8055270    -0.0009900
  C        2.2764760    -0.3829840     0.0991100
  C        3.2256880     0.7754290    -0.1091670
  H       -0.6200800     1.4811510    -1.2396720
  H       -2.3650680     1.2369900    -1.1776810
  H       -2.3202370     1.6568460     1.3177610
  H       -0.5663980     1.9180080     1.2126270
  H       -1.6843650     3.0420300     0.4158060
  H       -2.9458070    -0.7386130     0.8669600
  H       -2.1365070    -2.1105210     0.0765900
  H       -3.1412900    -0.9939370    -0.8846800
  H        2.3097600    -0.7656990     1.1223780
  H        2.4881280    -1.2160740    -0.5765640
  H        3.1624490     1.1443740    -1.1352360
  H        2.9853640     1.5953270     0.5713660
  H        4.2535110     0.4542820     0.0824610
units angstrom
no_reorient  #important for SAPT in psi4, default
symmetry c1  #important for SAPT in psi4, default
}

set PROPERTIES_ORIGIN ["COM"]
properties('MP2/aug-cc-pvtz', properties = ['dipole'])
--------------------------------------------------------------------------

    Molecular point group: c1
  Charge       = 0
  Multiplicity = 1
  Basis Set: AUG-CC-PVTZ
    Blend: AUG-CC-PVTZ
  Basis Set: (AUG-CC-PVTZ AUX)
    Blend: AUG-CC-PVTZ-JKFIT

    Orbital Energies [Eh]
    ---------------------

    Doubly Occupied:

       1A    -20.598754     2A    -20.531024     3A    -15.582313
       4A    -11.403751     5A    -11.286491     6A    -11.258531
       7A    -11.251440     8A    -11.224253     9A    -11.218368
      10A     -1.450638    11A     -1.345958    12A     -1.245778
      13A     -1.038027    14A     -1.021619    15A     -0.937922
      16A     -0.881074    17A     -0.839516    18A     -0.764457
      19A     -0.709781    20A     -0.683852    21A     -0.675907
      22A     -0.637597    23A     -0.613546    24A     -0.591434
      25A     -0.584077    26A     -0.565586    27A     -0.558286
      28A     -0.547400    29A     -0.530749    30A     -0.520051
      31A     -0.510604    32A     -0.506663    33A     -0.498524
      34A     -0.459215    35A     -0.447444    36A     -0.371965

  @DF-RHF Final Energy:  -439.12729292192944

   => Energetics <=

    Nuclear Repulsion Energy =            491.1626141087507449
    One-Electron Energy =               -1572.7946215537451735
    Two-Electron Energy =                 642.5047145230651040
    Total Energy =                       -439.1272929219294383
  Basis Set: (AUG-CC-PVTZ AUX)
    Blend: AUG-CC-PVTZ-RI
    Molecular point group: c1

    Geometry (in Angstrom), charge = 0, multiplicity = 1:

       Center              X                  Y                   Z               Mass
    ------------   -----------------  -----------------  -----------------  -----------------
         O            0.950666562784     0.170791413158    -0.159779898342    15.994914619570
         O            0.167236562784    -1.905838586842     0.393230101658    15.994914619570
         N           -1.299760137216    -0.205498486842    -0.405769798342    14.003074004430
         C           -1.437865437216     1.192555413158    -0.587113898342    12.000000000000
         C           -1.508419437216     2.038860413158     0.679964101658    12.000000000000
         C           -2.441431437216    -1.025197586842    -0.033204898342    12.000000000000
         C           -0.039741437216    -0.757559586842     0.013421101658    12.000000000000
         C            2.276704562784    -0.335016586842     0.113521101658    12.000000000000
         C            3.225916562784     0.823396413158    -0.094755898342    12.000000000000
         H           -0.619851437216     1.529118413158    -1.225260898342     1.007825032230
         H           -2.364839437216     1.284957413158    -1.163269898342     1.007825032230
         H           -2.320008437216     1.704813413158     1.332172101658     1.007825032230
         H           -0.566169437216     1.965975413158     1.227038101658     1.007825032230
         H           -1.684136437216     3.089997413158     0.430217101658     1.007825032230
         H           -2.945578437216    -0.690645586842     0.881371101658     1.007825032230
         H           -2.136278437216    -2.062553586842     0.091001101658     1.007825032230
         H           -3.141061437216    -0.945969586842    -0.870268898342     1.007825032230
         H            2.309988562784    -0.717731586842     1.136789101658     1.007825032230
         H            2.488356562784    -1.168106586842    -0.562152898342     1.007825032230
         H            3.162677562784     1.192341413158    -1.120824898342     1.007825032230
         H            2.985592562784     1.643294413158     0.585777101658     1.007825032230
         H            4.253739562784     0.502249413158     0.096872101658     1.007825032230

  Basis Set: AUG-CC-PVTZ
    Blend: AUG-CC-PVTZ
  Basis Set: (AUG-CC-PVTZ AUX)
    Blend: AUG-CC-PVTZ-JKFIT
	 Reference Energy          =    -439.1272929219294383 [Eh]
	 Singles Energy            =      -0.0000000000000000 [Eh]
	 Same-Spin Energy          =      -0.4424654994462618 [Eh]
	 Opposite-Spin Energy      =      -1.4608558885564831 [Eh]
	 Correlation Energy        =      -1.9033213880027449 [Eh]
	 Total Energy              =    -441.0306143099321616 [Eh]

	 ================> DF-SCS-MP2 Energies <==================
	-----------------------------------------------------------
	 SCS Same-Spin Scale       =       0.3333333333333333 [-]
	 SCS Opposite-Spin Scale   =       1.2000000000000000 [-]
	 SCS Same-Spin Energy      =      -0.1474884998154206 [Eh]
	 SCS Opposite-Spin Energy  =      -1.7530270662677796 [Eh]
	 SCS Correlation Energy    =      -1.9005155660832003 [Eh]
	 SCS Total Energy          =    -441.0278084880126244 [Eh]
	-----------------------------------------------------------

  Dipole Moment: [D]
     X:    -0.1687      Y:     2.1659      Z:    -0.2878     Total:     2.1915

*** Psi4 exiting successfully. Buy a developer a beer!
