                               Psi4 1.3.2 release

  ==> Input File <==

--------------------------------------------------------------------------
#psi4
#
memory 32 gb

molecule  {
-1 1
  O       -2.9714190     0.8843310    -0.7445430
  O       -2.9714760    -0.8842960     0.7444570
  O       -0.5719940    -3.2988010     0.7833720
  O       -0.5719130     3.2988430    -0.7832930
  O       -1.5583320    -2.6751640    -1.0959160
  O       -1.5583470     2.6751420     1.0959240
  O        3.9378030    -1.0985810    -0.0520130
  O        3.9378150     1.0985380     0.0519920
  N       -0.8441900    -2.4722020    -0.1047670
  N       -0.8441610     2.4722110     0.1047990
  N        3.3563290    -0.0000180    -0.0000080
  C       -0.9300817     0.1288124     0.1530030
  C       -0.1699680    -1.1712100    -0.0217940
  C       -0.1699550     1.1712130     0.0218080
  C        1.8913620    -0.0000110     0.0000000
  C        1.2196430    -1.2181880    -0.0070480
  C        1.2196550     1.2181740     0.0070530
  C       -2.4885490     0.0000140    -0.0000270
  H        1.7571850    -2.1596840    -0.0048420
  H        1.7572080     2.1596640     0.0048470
units angstrom
no_reorient  #important for SAPT in psi4, default
symmetry c1  #important for SAPT in psi4, default
}

set PROPERTIES_ORIGIN ["COM"]
properties('MP2/aug-cc-pvtz', properties = ['dipole'])
--------------------------------------------------------------------------

    Molecular point group: c1
  Charge       = -1
  Multiplicity = 1
  Basis Set: AUG-CC-PVTZ
    Blend: AUG-CC-PVTZ
  Basis Set: (AUG-CC-PVTZ AUX)
    Blend: AUG-CC-PVTZ-JKFIT

    Orbital Energies [Eh]
    ---------------------

    Doubly Occupied:

       1A    -20.543163     2A    -20.541504     3A    -20.516861
       4A    -20.515215     5A    -20.513874     6A    -20.512474
       7A    -20.371089     8A    -20.370155     9A    -15.794137
      10A    -15.764830    11A    -15.759756    12A    -11.250858
      13A    -11.249345    14A    -11.231551    15A    -11.228937
      16A    -11.227098    17A    -11.217519    18A    -11.209064
      19A     -1.525735    20A     -1.497039    21A     -1.496250
      22A     -1.323605    23A     -1.296833    24A     -1.295904
      25A     -1.246608    26A     -1.153934    27A     -1.150288
      28A     -1.058274    29A     -1.034892    30A     -0.913526
      31A     -0.898868    32A     -0.887808    33A     -0.760427
      34A     -0.739496    35A     -0.712256    36A     -0.677707
      37A     -0.671271    38A     -0.660174    39A     -0.647669
      40A     -0.646248    41A     -0.633743    42A     -0.629120
      43A     -0.627714    44A     -0.604038    45A     -0.570337
      46A     -0.547927    47A     -0.520693    48A     -0.499525
      49A     -0.489054    50A     -0.465422    51A     -0.441207
      52A     -0.433913    53A     -0.427832    54A     -0.416866
      55A     -0.407540    56A     -0.403475    57A     -0.392407
      58A     -0.391584    59A     -0.358014    60A     -0.353605
      61A     -0.326038    62A     -0.301641    63A     -0.282003
      64A     -0.278618    65A     -0.264584

  @DF-RHF Final Energy: -1028.50245761503948

   => Energetics <=

    Nuclear Repulsion Energy =           1323.2856858288607782
    One-Electron Energy =               -4057.2180000462885801
    Two-Electron Energy =                1705.4298566023885542
    Total Energy =                      -1028.5024576150394751
  Basis Set: (AUG-CC-PVTZ AUX)
    Blend: AUG-CC-PVTZ-RI
    Molecular point group: c1

    Geometry (in Angstrom), charge = -1, multiplicity = 1:

       Center              X                  Y                   Z               Mass
    ------------   -----------------  -----------------  -----------------  -----------------
         O           -2.957863546697     0.878292742088    -0.751715166459    15.994914619570
         O           -2.957920546697    -0.890334257912     0.737284833541    15.994914619570
         O           -0.558438546697    -3.304839257912     0.776199833541    15.994914619570
         O           -0.558357546697     3.292804742088    -0.790465166459    15.994914619570
         O           -1.544776546697    -2.681202257912    -1.103088166459    15.994914619570
         O           -1.544791546697     2.669103742088     1.088751833541    15.994914619570
         O            3.951358453303    -1.104619257912    -0.059185166459    15.994914619570
         O            3.951370453303     1.092499742088     0.044819833541    15.994914619570
         N           -0.830634546697    -2.478240257912    -0.111939166459    14.003074004430
         N           -0.830605546697     2.466172742088     0.097626833541    14.003074004430
         N            3.369884453303    -0.006056257912    -0.007180166459    14.003074004430
         C           -0.916526246697     0.122774142088     0.145830833541    12.000000000000
         C           -0.156412546697    -1.177248257912    -0.028966166459    12.000000000000
         C           -0.156399546697     1.165174742088     0.014635833541    12.000000000000
         C            1.904917453303    -0.006049257912    -0.007172166459    12.000000000000
         C            1.233198453303    -1.224226257912    -0.014220166459    12.000000000000
         C            1.233210453303     1.212135742088    -0.000119166459    12.000000000000
         C           -2.474993546697    -0.006024257912    -0.007199166459    12.000000000000
         H            1.770740453303    -2.165722257912    -0.012014166459     1.007825032230
         H            1.770763453303     2.153625742088    -0.002325166459     1.007825032230

  Basis Set: AUG-CC-PVTZ
    Blend: AUG-CC-PVTZ
  Basis Set: (AUG-CC-PVTZ AUX)
    Blend: AUG-CC-PVTZ-JKFIT
	 Reference Energy          =   -1028.5024576150394751 [Eh]
	 Singles Energy            =      -0.0000000000000000 [Eh]
	 Same-Spin Energy          =      -1.0570869595981884 [Eh]
	 Opposite-Spin Energy      =      -2.9549203595664704 [Eh]
	 Correlation Energy        =      -4.0120073191646588 [Eh]
	 Total Energy              =   -1032.5144649342041703 [Eh]

	 ================> DF-SCS-MP2 Energies <==================
	-----------------------------------------------------------
	 SCS Same-Spin Scale       =       0.3333333333333333 [-]
	 SCS Opposite-Spin Scale   =       1.2000000000000000 [-]
	 SCS Same-Spin Energy      =      -0.3523623198660628 [Eh]
	 SCS Opposite-Spin Energy  =      -3.5459044314797645 [Eh]
	 SCS Correlation Energy    =      -3.8982667513458273 [Eh]
	 SCS Total Energy          =   -1032.4007243663852478 [Eh]
	-----------------------------------------------------------

  Dipole Moment: [D]
     X:     8.7825      Y:    -0.0822      Z:     0.0834     Total:     8.7832

*** Psi4 exiting successfully. Buy a developer a beer!
