                               Psi4 1.3.2 release

  ==> Input File <==

--------------------------------------------------------------------------
#psi4
#
memory 32 gb

molecule  {
-1 1
  O       -2.9714190     0.8843310    -0.7445430
  O       -2.9714760    -0.8842960     0.7444570
  O       -0.5719940    -3.2988010     0.7833720
  O       -0.5719130     3.2988430    -0.7832930
  O       -1.5583320    -2.6751640    -1.0959160
  O       -1.5583470     2.6751420     1.0959240
  O        3.9378030    -1.0985810    -0.0520130
  O        3.9378150     1.0985380     0.0519920
  N       -0.8441900    -2.4722020    -0.1047670
  N       -0.8441610     2.4722110     0.1047990
  N        3.3563290    -0.0000180    -0.0000080
  C       -0.9300797     0.0322061     0.0382545
  C       -0.1699680    -1.1712100    -0.0217940
  C       -0.1699550     1.1712130     0.0218080
  C        1.8913620    -0.0000110     0.0000000
  C        1.2196430    -1.2181880    -0.0070480
  C        1.2196550     1.2181740     0.0070530
  C       -2.4885490     0.0000140    -0.0000270
  H        1.7571850    -2.1596840    -0.0048420
  H        1.7572080     2.1596640     0.0048470
units angstrom
no_reorient  #important for SAPT in psi4, default
symmetry c1  #important for SAPT in psi4, default
}

set PROPERTIES_ORIGIN ["COM"]
properties('MP2/aug-cc-pvtz', properties = ['dipole'])
--------------------------------------------------------------------------

    Molecular point group: c1
  Charge       = -1
  Multiplicity = 1
  Basis Set: AUG-CC-PVTZ
    Blend: AUG-CC-PVTZ
  Basis Set: (AUG-CC-PVTZ AUX)
    Blend: AUG-CC-PVTZ-JKFIT

    Orbital Energies [Eh]
    ---------------------

    Doubly Occupied:

       1A    -20.542438     2A    -20.542005     3A    -20.516562
       4A    -20.516096     5A    -20.513726     6A    -20.513315
       7A    -20.369899     8A    -20.369708     9A    -15.794113
      10A    -15.763590    11A    -15.762246    12A    -11.248774
      13A    -11.243626    14A    -11.237779    15A    -11.229251
      16A    -11.224543    17A    -11.222019    18A    -11.210838
      19A     -1.525659    20A     -1.497078    21A     -1.496699
      22A     -1.323544    23A     -1.296785    24A     -1.296466
      25A     -1.246449    26A     -1.153139    27A     -1.149724
      28A     -1.050552    29A     -1.041681    30A     -0.912305
      31A     -0.896955    32A     -0.892191    33A     -0.760763
      34A     -0.741426    35A     -0.712570    36A     -0.676093
      37A     -0.672504    38A     -0.660497    39A     -0.651181
      40A     -0.647468    41A     -0.634820    42A     -0.629638
      43A     -0.628105    44A     -0.604444    45A     -0.563495
      46A     -0.556094    47A     -0.521545    48A     -0.504758
      49A     -0.489172    50A     -0.465642    51A     -0.441136
      52A     -0.433885    53A     -0.427937    54A     -0.416861
      55A     -0.407681    56A     -0.403828    57A     -0.394329
      58A     -0.391621    59A     -0.358203    60A     -0.353773
      61A     -0.318338    62A     -0.306798    63A     -0.282176
      64A     -0.279824    65A     -0.264027

  @DF-RHF Final Energy: -1028.52695118083307

   => Energetics <=

    Nuclear Repulsion Energy =           1323.4850534989793687
    One-Electron Energy =               -4057.6232356474833978
    Two-Electron Energy =                1705.6112309676707355
    Total Energy =                      -1028.5269511808330662
  Basis Set: (AUG-CC-PVTZ AUX)
    Blend: AUG-CC-PVTZ-RI
    Molecular point group: c1

    Geometry (in Angstrom), charge = -1, multiplicity = 1:

       Center              X                  Y                   Z               Mass
    ------------   -----------------  -----------------  -----------------  -----------------
         O           -2.957863640453     0.882821442100    -0.746335998295    15.994914619570
         O           -2.957920640453    -0.885805557900     0.742664001705    15.994914619570
         O           -0.558438640453    -3.300310557900     0.781579001705    15.994914619570
         O           -0.558357640453     3.297333442100    -0.785085998295    15.994914619570
         O           -1.544776640453    -2.676673557900    -1.097708998295    15.994914619570
         O           -1.544791640453     2.673632442100     1.094131001705    15.994914619570
         O            3.951358359547    -1.100090557900    -0.053805998295    15.994914619570
         O            3.951370359547     1.097028442100     0.050199001705    15.994914619570
         N           -0.830634640453    -2.473711557900    -0.106559998295    14.003074004430
         N           -0.830605640453     2.470701442100     0.103006001705    14.003074004430
         N            3.369884359547    -0.001527557900    -0.001800998295    14.003074004430
         C           -0.916524340453     0.030696542100     0.036461501705    12.000000000000
         C           -0.156412640453    -1.172719557900    -0.023586998295    12.000000000000
         C           -0.156399640453     1.169703442100     0.020015001705    12.000000000000
         C            1.904917359547    -0.001520557900    -0.001792998295    12.000000000000
         C            1.233198359547    -1.219697557900    -0.008840998295    12.000000000000
         C            1.233210359547     1.216664442100     0.005260001705    12.000000000000
         C           -2.474993640453    -0.001495557900    -0.001819998295    12.000000000000
         H            1.770740359547    -2.161193557900    -0.006634998295     1.007825032230
         H            1.770763359547     2.158154442100     0.003054001705     1.007825032230

  Basis Set: AUG-CC-PVTZ
    Blend: AUG-CC-PVTZ
  Basis Set: (AUG-CC-PVTZ AUX)
    Blend: AUG-CC-PVTZ-JKFIT
	 Reference Energy          =   -1028.5269511808330662 [Eh]
	 Singles Energy            =      -0.0000000000000000 [Eh]
	 Same-Spin Energy          =      -1.0569276666161043 [Eh]
	 Opposite-Spin Energy      =      -2.9531344200399383 [Eh]
	 Correlation Energy        =      -4.0100620866560428 [Eh]
	 Total Energy              =   -1032.5370132674891011 [Eh]

	 ================> DF-SCS-MP2 Energies <==================
	-----------------------------------------------------------
	 SCS Same-Spin Scale       =       0.3333333333333333 [-]
	 SCS Opposite-Spin Scale   =       1.2000000000000000 [-]
	 SCS Same-Spin Energy      =      -0.3523092222053681 [Eh]
	 SCS Opposite-Spin Energy  =      -3.5437613040479259 [Eh]
	 SCS Correlation Energy    =      -3.8960705262532942 [Eh]
	 SCS Total Energy          =   -1032.4230217070862636 [Eh]
	-----------------------------------------------------------

  Dipole Moment: [D]
     X:     8.8140      Y:    -0.0253      Z:     0.0212     Total:     8.8141

*** Psi4 exiting successfully. Buy a developer a beer!
