                               Psi4 1.3.2 release

  ==> Input File <==

--------------------------------------------------------------------------
#psi4
#
memory 32 gb

molecule  {
-1 1
  O       -2.9714190     0.8843310    -0.7445430
  O       -2.9714760    -0.8842960     0.7444570
  O       -0.5719940    -3.2988010     0.7833720
  O       -0.5719130     3.2988430    -0.7832930
  O       -1.5583320    -2.6751640    -1.0959160
  O       -1.5583470     2.6751420     1.0959240
  O        3.9378030    -1.0985810    -0.0520130
  O        3.9378150     1.0985380     0.0519920
  N       -0.8441900    -2.4722020    -0.1047670
  N       -0.8441610     2.4722110     0.1047990
  N        3.3563290    -0.0000180    -0.0000080
  C       -0.9300824     0.1610145     0.1912525
  C       -0.1699680    -1.1712100    -0.0217940
  C       -0.1699550     1.1712130     0.0218080
  C        1.8913620    -0.0000110     0.0000000
  C        1.2196430    -1.2181880    -0.0070480
  C        1.2196550     1.2181740     0.0070530
  C       -2.4885490     0.0000140    -0.0000270
  H        1.7571850    -2.1596840    -0.0048420
  H        1.7572080     2.1596640     0.0048470
units angstrom
no_reorient  #important for SAPT in psi4, default
symmetry c1  #important for SAPT in psi4, default
}

set PROPERTIES_ORIGIN ["COM"]
properties('MP2/aug-cc-pvtz', properties = ['dipole'])
--------------------------------------------------------------------------

    Molecular point group: c1
  Charge       = -1
  Multiplicity = 1
  Basis Set: AUG-CC-PVTZ
    Blend: AUG-CC-PVTZ
  Basis Set: (AUG-CC-PVTZ AUX)
    Blend: AUG-CC-PVTZ-JKFIT

    Orbital Energies [Eh]
    ---------------------

    Doubly Occupied:

       1A    -20.543385     2A    -20.541354     3A    -20.516802
       4A    -20.514913     5A    -20.513748     6A    -20.512186
       7A    -20.371849     8A    -20.370555     9A    -15.794124
      10A    -15.764981    11A    -15.758871    12A    -11.252615
      13A    -11.249621    14A    -11.232992    15A    -11.228106
      16A    -11.225692    17A    -11.215894    18A    -11.208161
      19A     -1.525751    20A     -1.496882    21A     -1.496117
      22A     -1.323613    23A     -1.296699    24A     -1.295733
      25A     -1.246788    26A     -1.154462    27A     -1.150619
      28A     -1.061068    29A     -1.032546    30A     -0.914227
      31A     -0.899119    32A     -0.886068    33A     -0.760245
      34A     -0.738307    35A     -0.712074    36A     -0.677706
      37A     -0.671004    38A     -0.659932    39A     -0.647561
      40A     -0.644445    41A     -0.632970    42A     -0.628704
      43A     -0.627471    44A     -0.603786    45A     -0.572349
      46A     -0.545468    47A     -0.520350    48A     -0.496384
      49A     -0.488891    50A     -0.465260    51A     -0.441221
      52A     -0.433929    53A     -0.427780    54A     -0.416839
      55A     -0.407431    56A     -0.403294    57A     -0.391631
      58A     -0.391115    59A     -0.357904    60A     -0.353509
      61A     -0.328973    62A     -0.300143    63A     -0.281939
      64A     -0.277850    65A     -0.264982

  @DF-RHF Final Energy: -1028.48823487836376

   => Energetics <=

    Nuclear Repulsion Energy =           1323.1638723391481562
    One-Electron Energy =               -4056.9702321741538071
    Two-Electron Energy =                1705.3181249566416682
    Total Energy =                      -1028.4882348783637553
  Basis Set: (AUG-CC-PVTZ AUX)
    Blend: AUG-CC-PVTZ-RI
    Molecular point group: c1

    Geometry (in Angstrom), charge = -1, multiplicity = 1:

       Center              X                  Y                   Z               Mass
    ------------   -----------------  -----------------  -----------------  -----------------
         O           -2.957863513882     0.876783175417    -0.753508222513    15.994914619570
         O           -2.957920513882    -0.891843824583     0.735491777487    15.994914619570
         O           -0.558438513882    -3.306348824583     0.774406777487    15.994914619570
         O           -0.558357513882     3.291295175417    -0.792258222513    15.994914619570
         O           -1.544776513882    -2.682711824583    -1.104881222513    15.994914619570
         O           -1.544791513882     2.667594175417     1.086958777487    15.994914619570
         O            3.951358486118    -1.106128824583    -0.060978222513    15.994914619570
         O            3.951370486118     1.090990175417     0.043026777487    15.994914619570
         N           -0.830634513882    -2.479749824583    -0.113732222513    14.003074004430
         N           -0.830605513882     2.464663175417     0.095833777487    14.003074004430
         N            3.369884486118    -0.007565824583    -0.008973222513    14.003074004430
         C           -0.916526913882     0.153466675417     0.182287277487    12.000000000000
         C           -0.156412513882    -1.178757824583    -0.030759222513    12.000000000000
         C           -0.156399513882     1.163665175417     0.012842777487    12.000000000000
         C            1.904917486118    -0.007558824583    -0.008965222513    12.000000000000
         C            1.233198486118    -1.225735824583    -0.016013222513    12.000000000000
         C            1.233210486118     1.210626175417    -0.001912222513    12.000000000000
         C           -2.474993513882    -0.007533824583    -0.008992222513    12.000000000000
         H            1.770740486118    -2.167231824583    -0.013807222513     1.007825032230
         H            1.770763486118     2.152116175417    -0.004118222513     1.007825032230

  Basis Set: AUG-CC-PVTZ
    Blend: AUG-CC-PVTZ
  Basis Set: (AUG-CC-PVTZ AUX)
    Blend: AUG-CC-PVTZ-JKFIT
	 Reference Energy          =   -1028.4882348783637553 [Eh]
	 Singles Energy            =      -0.0000000000000000 [Eh]
	 Same-Spin Energy          =      -1.0572555686131557 [Eh]
	 Opposite-Spin Energy      =      -2.9559911965683692 [Eh]
	 Correlation Energy        =      -4.0132467651815249 [Eh]
	 Total Energy              =   -1032.5014816435452758 [Eh]

	 ================> DF-SCS-MP2 Energies <==================
	-----------------------------------------------------------
	 SCS Same-Spin Scale       =       0.3333333333333333 [-]
	 SCS Opposite-Spin Scale   =       1.2000000000000000 [-]
	 SCS Same-Spin Energy      =      -0.3524185228710519 [Eh]
	 SCS Opposite-Spin Energy  =      -3.5471894358820428 [Eh]
	 SCS Correlation Energy    =      -3.8996079587530947 [Eh]
	 SCS Total Energy          =   -1032.3878428371167502 [Eh]
	-----------------------------------------------------------

  Dipole Moment: [D]
     X:     8.7580      Y:    -0.0897      Z:     0.1030     Total:     8.7591

*** Psi4 exiting successfully. Buy a developer a beer!
