                               Psi4 1.3.2 release

  ==> Input File <==

--------------------------------------------------------------------------
#psi4
#
memory 32 gb

molecule  {
-1 1
  O       -2.9714190     0.8843310    -0.7445430
  O       -2.9714760    -0.8842960     0.7444570
  O       -0.5719940    -3.2988010     0.7833720
  O       -0.5719130     3.2988430    -0.7832930
  O       -1.5583320    -2.6751640    -1.0959160
  O       -1.5583470     2.6751420     1.0959240
  O        3.9378030    -1.0985810    -0.0520130
  O        3.9378150     1.0985380     0.0519920
  N       -0.8441900    -2.4722020    -0.1047670
  N       -0.8441610     2.4722110     0.1047990
  N        3.3563290    -0.0000180    -0.0000080
  C       -0.9300790     0.0000040     0.0000050
  C       -0.1699680    -1.1712100    -0.0217940
  C       -0.1699550     1.1712130     0.0218080
  C        1.8913620    -0.0000110     0.0000000
  C        1.2196430    -1.2181880    -0.0070480
  C        1.2196550     1.2181740     0.0070530
  C       -2.4885490     0.0000140    -0.0000270
  H        1.7571850    -2.1596840    -0.0048420
  H        1.7572080     2.1596640     0.0048470
units angstrom
no_reorient  #important for SAPT in psi4, default
symmetry c1  #important for SAPT in psi4, default
}

set PROPERTIES_ORIGIN ["COM"]
properties('MP2/aug-cc-pvtz', properties = ['dipole'])
--------------------------------------------------------------------------

    Molecular point group: c1
  Charge       = -1
  Multiplicity = 1
  Basis Set: AUG-CC-PVTZ
    Blend: AUG-CC-PVTZ
  Basis Set: (AUG-CC-PVTZ AUX)
    Blend: AUG-CC-PVTZ-JKFIT

    Orbital Energies [Eh]
    ---------------------

    Doubly Occupied:

       1A    -20.542237     2A    -20.542187     3A    -20.516349
       4A    -20.516348     5A    -20.513544     6A    -20.513544
       7A    -20.369773     8A    -20.369740     9A    -15.794110
      10A    -15.762960    11A    -15.762960    12A    -11.248731
      13A    -11.240772    14A    -11.240751    15A    -11.229103
      16A    -11.223364    17A    -11.223320    18A    -11.210971
      19A     -1.525652    20A     -1.497047    21A     -1.496764
      22A     -1.323538    23A     -1.296707    24A     -1.296580
      25A     -1.246445    26A     -1.153091    27A     -1.149686
      28A     -1.049488    29A     -1.042676    30A     -0.912224
      31A     -0.896589    32A     -0.892719    33A     -0.760788
      34A     -0.741550    35A     -0.712592    36A     -0.675789
      37A     -0.672730    38A     -0.660512    39A     -0.651587
      40A     -0.647471    41A     -0.634880    42A     -0.629666
      43A     -0.628133    44A     -0.604471    45A     -0.562145
      46A     -0.557567    47A     -0.521618    48A     -0.505092
      49A     -0.489176    50A     -0.465657    51A     -0.441129
      52A     -0.433883    53A     -0.427946    54A     -0.416859
      55A     -0.407689    56A     -0.403855    57A     -0.394454
      58A     -0.391621    59A     -0.358216    60A     -0.353785
      61A     -0.317461    62A     -0.307499    63A     -0.282192
      64A     -0.279901    65A     -0.263995

  @DF-RHF Final Energy: -1028.52861795207968

   => Energetics <=

    Nuclear Repulsion Energy =           1323.4981884682113105
    One-Electron Energy =               -4057.6498615939735828
    Two-Electron Energy =                1705.6230551736828147
    Total Energy =                      -1028.5286179520796850
  Basis Set: (AUG-CC-PVTZ AUX)
    Blend: AUG-CC-PVTZ-RI
    Molecular point group: c1

    Geometry (in Angstrom), charge = -1, multiplicity = 1:

       Center              X                  Y                   Z               Mass
    ------------   -----------------  -----------------  -----------------  -----------------
         O           -2.957863673267     0.884331008771    -0.744542942241    15.994914619570
         O           -2.957920673267    -0.884295991229     0.744457057759    15.994914619570
         O           -0.558438673267    -3.298800991229     0.783372057759    15.994914619570
         O           -0.558357673267     3.298843008771    -0.783292942241    15.994914619570
         O           -1.544776673267    -2.675163991229    -1.095915942241    15.994914619570
         O           -1.544791673267     2.675142008771     1.095924057759    15.994914619570
         O            3.951358326733    -1.098580991229    -0.052012942241    15.994914619570
         O            3.951370326733     1.098538008771     0.051992057759    15.994914619570
         N           -0.830634673267    -2.472201991229    -0.104766942241    14.003074004430
         N           -0.830605673267     2.472211008771     0.104799057759    14.003074004430
         N            3.369884326733    -0.000017991229    -0.000007942241    14.003074004430
         C           -0.916523673267     0.000004008771     0.000005057759    12.000000000000
         C           -0.156412673267    -1.171209991229    -0.021793942241    12.000000000000
         C           -0.156399673267     1.171213008771     0.021808057759    12.000000000000
         C            1.904917326733    -0.000010991229     0.000000057759    12.000000000000
         C            1.233198326733    -1.218187991229    -0.007047942241    12.000000000000
         C            1.233210326733     1.218174008771     0.007053057759    12.000000000000
         C           -2.474993673267     0.000014008771    -0.000026942241    12.000000000000
         H            1.770740326733    -2.159683991229    -0.004841942241     1.007825032230
         H            1.770763326733     2.159664008771     0.004847057759     1.007825032230

  Basis Set: AUG-CC-PVTZ
    Blend: AUG-CC-PVTZ
  Basis Set: (AUG-CC-PVTZ AUX)
    Blend: AUG-CC-PVTZ-JKFIT
	 Reference Energy          =   -1028.5286179520796850 [Eh]
	 Singles Energy            =      -0.0000000000000000 [Eh]
	 Same-Spin Energy          =      -1.0569237122054771 [Eh]
	 Opposite-Spin Energy      =      -2.9530177721725650 [Eh]
	 Correlation Energy        =      -4.0099414843780421 [Eh]
	 Total Energy              =   -1032.5385594364577173 [Eh]

	 ================> DF-SCS-MP2 Energies <==================
	-----------------------------------------------------------
	 SCS Same-Spin Scale       =       0.3333333333333333 [-]
	 SCS Opposite-Spin Scale   =       1.2000000000000000 [-]
	 SCS Same-Spin Energy      =      -0.3523079040684923 [Eh]
	 SCS Opposite-Spin Energy  =      -3.5436213266070777 [Eh]
	 SCS Correlation Energy    =      -3.8959292306755700 [Eh]
	 SCS Total Energy          =   -1032.4245471827553047 [Eh]
	-----------------------------------------------------------

  Dipole Moment: [D]
     X:     8.8157      Y:    -0.0001      Z:     0.0001     Total:     8.8157

*** Psi4 exiting successfully. Buy a developer a beer!
