                               Psi4 1.3.2 release

  ==> Input File <==

--------------------------------------------------------------------------
#psi4
#
memory 32 gb

molecule  {
-1 1
  O       -2.9714190     0.8843310    -0.7445430
  O       -2.9714760    -0.8842960     0.7444570
  O       -0.5719940    -3.2988010     0.7833720
  O       -0.5719130     3.2988430    -0.7832930
  O       -1.5583320    -2.6751640    -1.0959160
  O       -1.5583470     2.6751420     1.0959240
  O        3.9378030    -1.0985810    -0.0520130
  O        3.9378150     1.0985380     0.0519920
  N       -0.8441900    -2.4722020    -0.1047670
  N       -0.8441610     2.4722110     0.1047990
  N        3.3563290    -0.0000180    -0.0000080
  C       -0.9300811     0.0966103     0.1147535
  C       -0.1699680    -1.1712100    -0.0217940
  C       -0.1699550     1.1712130     0.0218080
  C        1.8913620    -0.0000110     0.0000000
  C        1.2196430    -1.2181880    -0.0070480
  C        1.2196550     1.2181740     0.0070530
  C       -2.4885490     0.0000140    -0.0000270
  H        1.7571850    -2.1596840    -0.0048420
  H        1.7572080     2.1596640     0.0048470
units angstrom
no_reorient  #important for SAPT in psi4, default
symmetry c1  #important for SAPT in psi4, default
}

set PROPERTIES_ORIGIN ["COM"]
properties('MP2/aug-cc-pvtz', properties = ['dipole'])
--------------------------------------------------------------------------

    Molecular point group: c1
  Charge       = -1
  Multiplicity = 1
  Basis Set: AUG-CC-PVTZ
    Blend: AUG-CC-PVTZ
  Basis Set: (AUG-CC-PVTZ AUX)
    Blend: AUG-CC-PVTZ-JKFIT

    Orbital Energies [Eh]
    ---------------------

    Doubly Occupied:

       1A    -20.542923     2A    -20.541656     3A    -20.516831
       4A    -20.515519     5A    -20.513903     6A    -20.512767
       7A    -20.370536     8A    -20.369897     9A    -15.794133
      10A    -15.764539    11A    -15.760626    12A    -11.249096
      13A    -11.248736    14A    -11.231742    15A    -11.230461
      16A    -11.226493    17A    -11.219088    18A    -11.209846
      19A     -1.525707    20A     -1.497111    21A     -1.496403
      22A     -1.323583    23A     -1.296882    24A     -1.296093
      25A     -1.246510    26A     -1.153547    27A     -1.150027
      28A     -1.055491    29A     -1.037269    30A     -0.912959
      31A     -0.898370    32A     -0.889463    33A     -0.760577
      34A     -0.740409    35A     -0.712400    36A     -0.677341
      37A     -0.671617    38A     -0.660342    39A     -0.648500
      40A     -0.647339    41A     -0.634285    42A     -0.629387
      43A     -0.627895    44A     -0.604229    45A     -0.568147
      46A     -0.550627    47A     -0.521041    48A     -0.502003
      49A     -0.489123    50A     -0.465528    51A     -0.441181
      52A     -0.433900    53A     -0.427877    54A     -0.416872
      55A     -0.407613    56A     -0.403630    57A     -0.393310
      58A     -0.391612    59A     -0.358102    60A     -0.353682
      61A     -0.323138    62A     -0.303377    63A     -0.282071
      64A     -0.279194    65A     -0.264306

  @DF-RHF Final Energy: -1028.51376719522182

   => Energetics <=

    Nuclear Repulsion Energy =           1323.3792993039801331
    One-Electron Energy =               -4057.4083981975650204
    Two-Electron Energy =                1705.5153316983630702
    Total Energy =                      -1028.5137671952218170
  Basis Set: (AUG-CC-PVTZ AUX)
    Blend: AUG-CC-PVTZ-RI
    Molecular point group: c1

    Geometry (in Angstrom), charge = -1, multiplicity = 1:

       Center              X                  Y                   Z               Mass
    ------------   -----------------  -----------------  -----------------  -----------------
         O           -2.957863574824     0.879802308759    -0.749922110404    15.994914619570
         O           -2.957920574824    -0.888824691241     0.739077889596    15.994914619570
         O           -0.558438574824    -3.303329691241     0.777992889596    15.994914619570
         O           -0.558357574824     3.294314308759    -0.788672110404    15.994914619570
         O           -1.544776574824    -2.679692691241    -1.101295110404    15.994914619570
         O           -1.544791574824     2.670613308759     1.090544889596    15.994914619570
         O            3.951358425176    -1.103109691241    -0.057392110404    15.994914619570
         O            3.951370425176     1.094009308759     0.046612889596    15.994914619570
         N           -0.830634574824    -2.476730691241    -0.110146110404    14.003074004430
         N           -0.830605574824     2.467682308759     0.099419889596    14.003074004430
         N            3.369884425176    -0.004546691241    -0.005387110404    14.003074004430
         C           -0.916525674824     0.092081608759     0.109374389596    12.000000000000
         C           -0.156412574824    -1.175738691241    -0.027173110404    12.000000000000
         C           -0.156399574824     1.166684308759     0.016428889596    12.000000000000
         C            1.904917425176    -0.004539691241    -0.005379110404    12.000000000000
         C            1.233198425176    -1.222716691241    -0.012427110404    12.000000000000
         C            1.233210425176     1.213645308759     0.001673889596    12.000000000000
         C           -2.474993574824    -0.004514691241    -0.005406110404    12.000000000000
         H            1.770740425176    -2.164212691241    -0.010221110404     1.007825032230
         H            1.770763425176     2.155135308759    -0.000532110404     1.007825032230

  Basis Set: AUG-CC-PVTZ
    Blend: AUG-CC-PVTZ
  Basis Set: (AUG-CC-PVTZ AUX)
    Blend: AUG-CC-PVTZ-JKFIT
	 Reference Energy          =   -1028.5137671952218170 [Eh]
	 Singles Energy            =      -0.0000000000000000 [Eh]
	 Same-Spin Energy          =      -1.0569915176324594 [Eh]
	 Opposite-Spin Energy      =      -2.9540856315328572 [Eh]
	 Correlation Energy        =      -4.0110771491653168 [Eh]
	 Total Energy              =   -1032.5248443443870201 [Eh]

	 ================> DF-SCS-MP2 Energies <==================
	-----------------------------------------------------------
	 SCS Same-Spin Scale       =       0.3333333333333333 [-]
	 SCS Opposite-Spin Scale   =       1.2000000000000000 [-]
	 SCS Same-Spin Energy      =      -0.3523305058774864 [Eh]
	 SCS Opposite-Spin Energy  =      -3.5449027578394285 [Eh]
	 SCS Correlation Energy    =      -3.8972332637169149 [Eh]
	 SCS Total Energy          =   -1032.4110004589388154 [Eh]
	-----------------------------------------------------------

  Dipole Moment: [D]
     X:     8.7986      Y:    -0.0680      Z:     0.0631     Total:     8.7991

*** Psi4 exiting successfully. Buy a developer a beer!
