                               Psi4 1.3.2 release

  ==> Input File <==

--------------------------------------------------------------------------
#psi4
#
memory 32 gb

molecule  {
-1 1
  O       -2.9714190     0.8843310    -0.7445430
  O       -2.9714760    -0.8842960     0.7444570
  O       -0.5719940    -3.2988010     0.7833720
  O       -0.5719130     3.2988430    -0.7832930
  O       -1.5583320    -2.6751640    -1.0959160
  O       -1.5583470     2.6751420     1.0959240
  O        3.9378030    -1.0985810    -0.0520130
  O        3.9378150     1.0985380     0.0519920
  N       -0.8441900    -2.4722020    -0.1047670
  N       -0.8441610     2.4722110     0.1047990
  N        3.3563290    -0.0000180    -0.0000080
  C       -0.9300804     0.0644082     0.0765040
  C       -0.1699680    -1.1712100    -0.0217940
  C       -0.1699550     1.1712130     0.0218080
  C        1.8913620    -0.0000110     0.0000000
  C        1.2196430    -1.2181880    -0.0070480
  C        1.2196550     1.2181740     0.0070530
  C       -2.4885490     0.0000140    -0.0000270
  H        1.7571850    -2.1596840    -0.0048420
  H        1.7572080     2.1596640     0.0048470
units angstrom
no_reorient  #important for SAPT in psi4, default
symmetry c1  #important for SAPT in psi4, default
}

set PROPERTIES_ORIGIN ["COM"]
properties('MP2/aug-cc-pvtz', properties = ['dipole'])
--------------------------------------------------------------------------

    Molecular point group: c1
  Charge       = -1
  Multiplicity = 1
  Basis Set: AUG-CC-PVTZ
    Blend: AUG-CC-PVTZ
  Basis Set: (AUG-CC-PVTZ AUX)
    Blend: AUG-CC-PVTZ-JKFIT

    Orbital Energies [Eh]
    ---------------------

    Doubly Occupied:

       1A    -20.542677     2A    -20.541821     3A    -20.516727
       4A    -20.515816     5A    -20.513850     6A    -20.513052
       7A    -20.370150     8A    -20.369754     9A    -15.794122
      10A    -15.764121    11A    -15.761462    12A    -11.248899
      13A    -11.246305    14A    -11.234747    15A    -11.229700
      16A    -11.225601    17A    -11.220594    18A    -11.210453
      19A     -1.525679    20A     -1.497117    21A     -1.496561
      22A     -1.323560    23A     -1.296861    24A     -1.296286
      25A     -1.246465    26A     -1.153287    27A     -1.149838
      28A     -1.052828    29A     -1.039610    30A     -0.912549
      31A     -0.897680    32A     -0.890975    33A     -0.760691
      34A     -0.741049    35A     -0.712505    36A     -0.676731
      37A     -0.672051    38A     -0.660446    39A     -0.650055
      40A     -0.647451    41A     -0.634630    42A     -0.629550
      43A     -0.628026    44A     -0.604364    45A     -0.565812
      46A     -0.553438    47A     -0.521341    48A     -0.503741
      49A     -0.489156    50A     -0.465600    51A     -0.441155
      52A     -0.433890    53A     -0.427913    54A     -0.416867
      55A     -0.407657    56A     -0.403751    57A     -0.393949
      58A     -0.391620    59A     -0.358165    60A     -0.353738
      61A     -0.320455    62A     -0.305204    63A     -0.282132
      64A     -0.279591    65A     -0.264127

  @DF-RHF Final Energy: -1028.52197546489538

   => Energetics <=

    Nuclear Repulsion Energy =           1323.4455497589383413
    One-Electron Energy =               -4057.5430510727346700
    Two-Electron Energy =                1705.5755258489009520
    Total Energy =                      -1028.5219754648953767
  Basis Set: (AUG-CC-PVTZ AUX)
    Blend: AUG-CC-PVTZ-RI
    Molecular point group: c1

    Geometry (in Angstrom), charge = -1, multiplicity = 1:

       Center              X                  Y                   Z               Mass
    ------------   -----------------  -----------------  -----------------  -----------------
         O           -2.957863607638     0.881311875429    -0.748129054350    15.994914619570
         O           -2.957920607638    -0.887315124571     0.740870945650    15.994914619570
         O           -0.558438607638    -3.301820124571     0.779785945650    15.994914619570
         O           -0.558357607638     3.295823875429    -0.786879054350    15.994914619570
         O           -1.544776607638    -2.678183124571    -1.099502054350    15.994914619570
         O           -1.544791607638     2.672122875429     1.092337945650    15.994914619570
         O            3.951358392362    -1.101600124571    -0.055599054350    15.994914619570
         O            3.951370392362     1.095518875429     0.048405945650    15.994914619570
         N           -0.830634607638    -2.475221124571    -0.108353054350    14.003074004430
         N           -0.830605607638     2.469191875429     0.101212945650    14.003074004430
         N            3.369884392362    -0.003037124571    -0.003594054350    14.003074004430
         C           -0.916525007638     0.061389075429     0.072917945650    12.000000000000
         C           -0.156412607638    -1.174229124571    -0.025380054350    12.000000000000
         C           -0.156399607638     1.168193875429     0.018221945650    12.000000000000
         C            1.904917392362    -0.003030124571    -0.003586054350    12.000000000000
         C            1.233198392362    -1.221207124571    -0.010634054350    12.000000000000
         C            1.233210392362     1.215154875429     0.003466945650    12.000000000000
         C           -2.474993607638    -0.003005124571    -0.003613054350    12.000000000000
         H            1.770740392362    -2.162703124571    -0.008428054350     1.007825032230
         H            1.770763392362     2.156644875429     0.001260945650     1.007825032230

  Basis Set: AUG-CC-PVTZ
    Blend: AUG-CC-PVTZ
  Basis Set: (AUG-CC-PVTZ AUX)
    Blend: AUG-CC-PVTZ-JKFIT
	 Reference Energy          =   -1028.5219754648953767 [Eh]
	 Singles Energy            =      -0.0000000000000000 [Eh]
	 Same-Spin Energy          =      -1.0569452301217375 [Eh]
	 Opposite-Spin Energy      =      -2.9534894382723258 [Eh]
	 Correlation Energy        =      -4.0104346683940637 [Eh]
	 Total Energy              =   -1032.5324101332894315 [Eh]

	 ================> DF-SCS-MP2 Energies <==================
	-----------------------------------------------------------
	 SCS Same-Spin Scale       =       0.3333333333333333 [-]
	 SCS Opposite-Spin Scale   =       1.2000000000000000 [-]
	 SCS Same-Spin Energy      =      -0.3523150767072458 [Eh]
	 SCS Opposite-Spin Energy  =      -3.5441873259267909 [Eh]
	 SCS Correlation Energy    =      -3.8965024026340367 [Eh]
	 SCS Total Energy          =   -1032.4184778675294183 [Eh]
	-----------------------------------------------------------

  Dipole Moment: [D]
     X:     8.8086      Y:    -0.0485      Z:     0.0423     Total:     8.8089

*** Psi4 exiting successfully. Buy a developer a beer!
