                               Psi4 1.3.2 release

  ==> Input File <==

--------------------------------------------------------------------------
#psi4
#
memory 32 gb

molecule  {
1 1
  N        1.9381540    -0.0000390     0.0000190
  N        3.2749700     0.0000327    -0.0000692
  C        0.5473360    -0.0000170     0.0000140
  C       -0.0940020    -1.2473330     0.0000080
  C       -0.0939660     1.2473160     0.0000070
  C       -1.4853590    -1.2209880     0.0000050
  C       -1.4853240     1.2210110     0.0000030
  C       -2.1726170     0.0000220     0.0000020
  H        0.4692830    -2.1765740     0.0000100
  H        0.4693460     2.1765410     0.0000080
  H       -2.0338500    -2.1581340     0.0000040
  H       -2.0337860     2.1581750     0.0000020
  H       -3.2592660     0.0000380    -0.0000010
units angstrom
no_reorient  #important for SAPT in psi4, default
symmetry c1  #important for SAPT in psi4, default
}

set PROPERTIES_ORIGIN ["COM"]
properties('MP2/aug-cc-pvtz', properties = ['dipole'])
--------------------------------------------------------------------------

    Molecular point group: c1
  Charge       = 1
  Multiplicity = 1
  Basis Set: AUG-CC-PVTZ
    Blend: AUG-CC-PVTZ
  Basis Set: (AUG-CC-PVTZ AUX)
    Blend: AUG-CC-PVTZ-JKFIT

    Orbital Energies [Eh]
    ---------------------

    Doubly Occupied:

       1A    -15.985387     2A    -15.983742     3A    -11.522984
       4A    -11.468661     5A    -11.468627     6A    -11.457448
       7A    -11.431955     8A    -11.431918     9A     -1.563396
      10A     -1.384957    11A     -1.288344    12A     -1.231466
      13A     -1.141928    14A     -1.044979    15A     -0.986170
      16A     -0.905085    17A     -0.873639    18A     -0.860001
      19A     -0.809854    20A     -0.807513    21A     -0.801765
      22A     -0.747723    23A     -0.719740    24A     -0.696685
      25A     -0.693910    26A     -0.550916    27A     -0.540647

  @DF-RHF Final Energy:  -338.72220189284525

   => Energetics <=

    Nuclear Repulsion Energy =            308.0461736205808734
    One-Electron Energy =               -1056.7378698172035456
    Two-Electron Energy =                 409.9694943037773669
    Total Energy =                       -338.7222018928452485
  Basis Set: (AUG-CC-PVTZ AUX)
    Blend: AUG-CC-PVTZ-RI
    Molecular point group: c1

    Geometry (in Angstrom), charge = 1, multiplicity = 1:

       Center              X                  Y                   Z               Mass
    ------------   -----------------  -----------------  -----------------  -----------------
         N            1.851007615894    -0.000039858112     0.000021016029    14.003074004430
         N            3.187823615894     0.000031841888    -0.000067183971    14.003074004430
         C            0.460189615894    -0.000017858112     0.000016016029    12.000000000000
         C           -0.181148384106    -1.247333858112     0.000010016029    12.000000000000
         C           -0.181112384106     1.247315141888     0.000009016029    12.000000000000
         C           -1.572505384106    -1.220988858112     0.000007016029    12.000000000000
         C           -1.572470384106     1.221010141888     0.000005016029    12.000000000000
         C           -2.259763384106     0.000021141888     0.000004016029    12.000000000000
         H            0.382136615894    -2.176574858112     0.000012016029     1.007825032230
         H            0.382199615894     2.176540141888     0.000010016029     1.007825032230
         H           -2.120996384106    -2.158134858112     0.000006016029     1.007825032230
         H           -2.120932384106     2.158174141888     0.000004016029     1.007825032230
         H           -3.346412384106     0.000037141888     0.000001016029     1.007825032230

  Basis Set: AUG-CC-PVTZ
    Blend: AUG-CC-PVTZ
  Basis Set: (AUG-CC-PVTZ AUX)
    Blend: AUG-CC-PVTZ-JKFIT
	 Reference Energy          =    -338.7222018928452485 [Eh]
	 Singles Energy            =      -0.0000000000000000 [Eh]
	 Same-Spin Energy          =      -0.3783566750819055 [Eh]
	 Opposite-Spin Energy      =      -1.1479675089001564 [Eh]
	 Correlation Energy        =      -1.5263241839820618 [Eh]
	 Total Energy              =    -340.2485260768273179 [Eh]

	 ================> DF-SCS-MP2 Energies <==================
	-----------------------------------------------------------
	 SCS Same-Spin Scale       =       0.3333333333333333 [-]
	 SCS Opposite-Spin Scale   =       1.2000000000000000 [-]
	 SCS Same-Spin Energy      =      -0.1261188916939685 [Eh]
	 SCS Opposite-Spin Energy  =      -1.3775610106801877 [Eh]
	 SCS Correlation Energy    =      -1.5036799023741563 [Eh]
	 SCS Total Energy          =    -340.2258817952193795 [Eh]
	-----------------------------------------------------------

  Dipole Moment: [D]
     X:     1.6369      Y:    -0.0000      Z:    -0.0001     Total:     1.6369

*** Psi4 exiting successfully. Buy a developer a beer!
