                               Psi4 1.4a3.dev225

  ==> Input File <==

--------------------------------------------------------------------------
#psi4
#
memory 32 gb

molecule  {
1 1
  N       -1.9377550    -0.0000010    -0.0000070
  N       -3.0716270     0.0000010    -0.0000110
  C       -0.5658680    -0.0000000    -0.0000021
  C        0.0932850     1.2450350     0.0000000
  C        0.0932850    -1.2450360     0.0000000
  C        1.4845000     1.2192680     0.0000050
  C        1.4845010    -1.2192680     0.0000050
  C        2.1722020     0.0000010     0.0000080
  H       -0.4731340     2.1706270    -0.0000020
  H       -0.4731330    -2.1706280    -0.0000020
  H        2.0311290     2.1566840     0.0000070
  H        2.0311300    -2.1566830     0.0000070
  H        3.2582600     0.0000010     0.0000120
units angstrom
no_reorient  #important for SAPT in psi4, default
symmetry c1  #important for SAPT in psi4, default
}

set PROPERTIES_ORIGIN ["COM"]
properties('MP2/aug-cc-pvtz', properties = ['dipole'])
--------------------------------------------------------------------------

    Molecular point group: c1
  Charge       = 1
  Multiplicity = 1
  Basis Set: AUG-CC-PVTZ
    Blend: AUG-CC-PVTZ
  Basis Set: (AUG-CC-PVTZ AUX)
    Blend: AUG-CC-PVTZ-JKFIT

    Orbital Energies [Eh]
    ---------------------

    Doubly Occupied:

       1A    -15.988829     2A    -15.964509     3A    -11.514778
       4A    -11.460597     5A    -11.460566     6A    -11.440449
       7A    -11.425295     8A    -11.425239     9A     -1.717658
      10A     -1.399371    11A     -1.294932    12A     -1.223113
      13A     -1.136131    14A     -1.040865    15A     -0.975158
      16A     -0.920688    17A     -0.894959    18A     -0.888608
      19A     -0.879646    20A     -0.804570    21A     -0.802433
      22A     -0.791675    23A     -0.712545    24A     -0.700811
      25A     -0.694789    26A     -0.545983    27A     -0.533525

  @DF-RHF Final Energy:  -338.84439858750812

   => Energetics <=

    Nuclear Repulsion Energy =            313.7321345939237176
    One-Electron Energy =               -1067.8776226873626456
    Two-Electron Energy =                 415.3010895059307472
    Total Energy =                       -338.8443985875081239
  Basis Set: (AUG-CC-PVTZ AUX)
    Blend: AUG-CC-PVTZ-RI
    Molecular point group: c1

    Geometry (in Angstrom), charge = 1, multiplicity = 1:

       Center              X                  Y                   Z               Mass
    ------------   -----------------  -----------------  -----------------  -----------------
         N           -1.875117663387    -0.000001009594    -0.000006627940    14.003074004430
         N           -3.008989663387     0.000000990406    -0.000010627940    14.003074004430
         C           -0.503230663387    -0.000000009594    -0.000001727940    12.000000000000
         C            0.155922336613     1.245034990406     0.000000372060    12.000000000000
         C            0.155922336613    -1.245036009594     0.000000372060    12.000000000000
         C            1.547137336613     1.219267990406     0.000005372060    12.000000000000
         C            1.547138336613    -1.219268009594     0.000005372060    12.000000000000
         C            2.234839336613     0.000000990406     0.000008372060    12.000000000000
         H           -0.410496663387     2.170626990406    -0.000001627940     1.007825032230
         H           -0.410495663387    -2.170628009594    -0.000001627940     1.007825032230
         H            2.093766336613     2.156683990406     0.000007372060     1.007825032230
         H            2.093767336613    -2.156683009594     0.000007372060     1.007825032230
         H            3.320897336613     0.000000990406     0.000012372060     1.007825032230

  Basis Set: AUG-CC-PVTZ
    Blend: AUG-CC-PVTZ
  Basis Set: (AUG-CC-PVTZ AUX)
    Blend: AUG-CC-PVTZ-JKFIT
	 Reference Energy          =    -338.8443985875081239 [Eh]
	 Singles Energy            =      -0.0000000000000000 [Eh]
	 Same-Spin Energy          =      -0.3630641703082511 [Eh]
	 Opposite-Spin Energy      =      -1.1146520123773278 [Eh]
	 Correlation Energy        =      -1.4777161826855789 [Eh]
	 Total Energy              =    -340.3221147701937070 [Eh]

	 ================> DF-SCS-MP2 Energies <==================
	-----------------------------------------------------------
	 SCS Same-Spin Scale       =       0.3333333333333333 [-]
	 SCS Opposite-Spin Scale   =       1.2000000000000000 [-]
	 SCS Same-Spin Energy      =      -0.1210213901027504 [Eh]
	 SCS Opposite-Spin Energy  =      -1.3375824148527933 [Eh]
	 SCS Correlation Energy    =      -1.4586038049555436 [Eh]
	 SCS Total Energy          =    -340.3030023924636680 [Eh]
	-----------------------------------------------------------

  Dipole Moment: [D]
     X:    -0.7579      Y:    -0.0000      Z:    -0.0000     Total:     0.7579

*** Psi4 exiting successfully. Buy a developer a beer!
