                               Psi4 1.3.2 release

  ==> Input File <==

--------------------------------------------------------------------------
#psi4
#
memory 32 gb

molecule  {
1 1
  N        1.9305373     0.1453412     0.0000194
  N        3.0749700     0.0000220    -0.0000560
  C        0.5473360    -0.0000170     0.0000140
  C       -0.0940020    -1.2473330     0.0000080
  C       -0.0939660     1.2473160     0.0000070
  C       -1.4853590    -1.2209880     0.0000050
  C       -1.4853240     1.2210110     0.0000030
  C       -2.1726170     0.0000220     0.0000020
  H        0.4692830    -2.1765740     0.0000100
  H        0.4693460     2.1765410     0.0000080
  H       -2.0338500    -2.1581340     0.0000040
  H       -2.0337860     2.1581750     0.0000020
  H       -3.2592660     0.0000380    -0.0000010
units angstrom
no_reorient  #important for SAPT in psi4, default
symmetry c1  #important for SAPT in psi4, default
}

set PROPERTIES_ORIGIN ["COM"]
properties('MP2/aug-cc-pvtz', properties = ['dipole'])
--------------------------------------------------------------------------

    Molecular point group: c1
  Charge       = 1
  Multiplicity = 1
  Basis Set: AUG-CC-PVTZ
    Blend: AUG-CC-PVTZ
  Basis Set: (AUG-CC-PVTZ AUX)
    Blend: AUG-CC-PVTZ-JKFIT

    Orbital Energies [Eh]
    ---------------------

    Doubly Occupied:

       1A    -15.989432     2A    -15.971583     3A    -11.516795
       4A    -11.461282     5A    -11.457409     6A    -11.439708
       7A    -11.427165     8A    -11.423721     9A     -1.702300
      10A     -1.395869    11A     -1.290404    12A     -1.223859
      13A     -1.133359    14A     -1.039937    15A     -0.976406
      16A     -0.920733    17A     -0.884232    18A     -0.882406
      19A     -0.877211    20A     -0.804615    21A     -0.801715
      22A     -0.790208    23A     -0.711129    24A     -0.701478
      25A     -0.695376    26A     -0.545332    27A     -0.533697

  @DF-RHF Final Energy:  -338.83201157651263

   => Energetics <=

    Nuclear Repulsion Energy =            313.2139973364073171
    One-Electron Energy =               -1066.8972904959648531
    Two-Electron Energy =                 414.8512815830448517
    Total Energy =                       -338.8320115765126275
  Basis Set: (AUG-CC-PVTZ AUX)
    Blend: AUG-CC-PVTZ-RI
    Molecular point group: c1

    Geometry (in Angstrom), charge = 1, multiplicity = 1:

       Center              X                  Y                   Z               Mass
    ------------   -----------------  -----------------  -----------------  -----------------
         N            1.871067287490     0.125961841504     0.000019603079    14.003074004430
         N            3.015499987490    -0.019357358496    -0.000055796921    14.003074004430
         C            0.487865987490    -0.019396358496     0.000014203079    12.000000000000
         C           -0.153472012510    -1.266712358496     0.000008203079    12.000000000000
         C           -0.153436012510     1.227936641504     0.000007203079    12.000000000000
         C           -1.544829012510    -1.240367358496     0.000005203079    12.000000000000
         C           -1.544794012510     1.201631641504     0.000003203079    12.000000000000
         C           -2.232087012510    -0.019357358496     0.000002203079    12.000000000000
         H            0.409812987490    -2.195953358496     0.000010203079     1.007825032230
         H            0.409875987490     2.157161641504     0.000008203079     1.007825032230
         H           -2.093320012510    -2.177513358496     0.000004203079     1.007825032230
         H           -2.093256012510     2.138795641504     0.000002203079     1.007825032230
         H           -3.318736012510    -0.019341358496    -0.000000796921     1.007825032230

  Basis Set: AUG-CC-PVTZ
    Blend: AUG-CC-PVTZ
  Basis Set: (AUG-CC-PVTZ AUX)
    Blend: AUG-CC-PVTZ-JKFIT
	 Reference Energy          =    -338.8320115765126275 [Eh]
	 Singles Energy            =      -0.0000000000000000 [Eh]
	 Same-Spin Energy          =      -0.3647346670783961 [Eh]
	 Opposite-Spin Energy      =      -1.1186902453512528 [Eh]
	 Correlation Energy        =      -1.4834249124296490 [Eh]
	 Total Energy              =    -340.3154364889422823 [Eh]

	 ================> DF-SCS-MP2 Energies <==================
	-----------------------------------------------------------
	 SCS Same-Spin Scale       =       0.3333333333333333 [-]
	 SCS Opposite-Spin Scale   =       1.2000000000000000 [-]
	 SCS Same-Spin Energy      =      -0.1215782223594654 [Eh]
	 SCS Opposite-Spin Energy  =      -1.3424282944215034 [Eh]
	 SCS Correlation Energy    =      -1.4640065167809686 [Eh]
	 SCS Total Energy          =    -340.2960180932935828 [Eh]
	-----------------------------------------------------------

  Dipole Moment: [D]
     X:     0.8436      Y:     0.0229      Z:     0.0000     Total:     0.8439

*** Psi4 exiting successfully. Buy a developer a beer!
