                               Psi4 1.4a3.dev225

  ==> Input File <==

--------------------------------------------------------------------------
#psi4
#
memory 32 gb

molecule  {
1 1
  N       -1.9377550    -0.0000010    -0.0000070
  N       -3.0716270     0.0000010    -0.0000110
  C       -0.5958680    -0.0000000    -0.0000022
  C        0.0932850     1.2450350     0.0000000
  C        0.0932850    -1.2450360     0.0000000
  C        1.4845000     1.2192680     0.0000050
  C        1.4845010    -1.2192680     0.0000050
  C        2.1722020     0.0000010     0.0000080
  H       -0.4731340     2.1706270    -0.0000020
  H       -0.4731330    -2.1706280    -0.0000020
  H        2.0311290     2.1566840     0.0000070
  H        2.0311300    -2.1566830     0.0000070
  H        3.2582600     0.0000010     0.0000120
units angstrom
no_reorient  #important for SAPT in psi4, default
symmetry c1  #important for SAPT in psi4, default
}

set PROPERTIES_ORIGIN ["COM"]
properties('MP2/aug-cc-pvtz', properties = ['dipole'])
--------------------------------------------------------------------------

    Molecular point group: c1
  Charge       = 1
  Multiplicity = 1
  Basis Set: AUG-CC-PVTZ
    Blend: AUG-CC-PVTZ
  Basis Set: (AUG-CC-PVTZ AUX)
    Blend: AUG-CC-PVTZ-JKFIT

    Orbital Energies [Eh]
    ---------------------

    Doubly Occupied:

       1A    -15.987227     2A    -15.959895     3A    -11.512513
       4A    -11.464217     5A    -11.464186     6A    -11.444300
       7A    -11.426008     8A    -11.425961     9A     -1.717145
      10A     -1.402279    11A     -1.300478    12A     -1.221990
      13A     -1.139066    14A     -1.040587    15A     -0.974358
      16A     -0.918564    17A     -0.897199    18A     -0.890415
      19A     -0.881763    20A     -0.803319    21A     -0.799881
      22A     -0.791562    23A     -0.715052    24A     -0.697570
      25A     -0.693071    26A     -0.546341    27A     -0.533959

  @DF-RHF Final Energy:  -338.84182815235846

   => Energetics <=

    Nuclear Repulsion Energy =            313.6625447852363777
    One-Electron Energy =               -1067.7109376694290859
    Two-Electron Energy =                 415.2065647318342485
    Total Energy =                       -338.8418281523584596
  Basis Set: (AUG-CC-PVTZ AUX)
    Blend: AUG-CC-PVTZ-RI
    Molecular point group: c1

    Geometry (in Angstrom), charge = 1, multiplicity = 1:

       Center              X                  Y                   Z               Mass
    ------------   -----------------  -----------------  -----------------  -----------------
         N           -1.871690569629    -0.000001009594    -0.000006616516    14.003074004430
         N           -3.005562569629     0.000000990406    -0.000010616516    14.003074004430
         C           -0.529803569629    -0.000000009594    -0.000001816516    12.000000000000
         C            0.159349430371     1.245034990406     0.000000383484    12.000000000000
         C            0.159349430371    -1.245036009594     0.000000383484    12.000000000000
         C            1.550564430371     1.219267990406     0.000005383484    12.000000000000
         C            1.550565430371    -1.219268009594     0.000005383484    12.000000000000
         C            2.238266430371     0.000000990406     0.000008383484    12.000000000000
         H           -0.407069569629     2.170626990406    -0.000001616516     1.007825032230
         H           -0.407068569629    -2.170628009594    -0.000001616516     1.007825032230
         H            2.097193430371     2.156683990406     0.000007383484     1.007825032230
         H            2.097194430371    -2.156683009594     0.000007383484     1.007825032230
         H            3.324324430371     0.000000990406     0.000012383484     1.007825032230

  Basis Set: AUG-CC-PVTZ
    Blend: AUG-CC-PVTZ
  Basis Set: (AUG-CC-PVTZ AUX)
    Blend: AUG-CC-PVTZ-JKFIT
	 Reference Energy          =    -338.8418281523584596 [Eh]
	 Singles Energy            =      -0.0000000000000000 [Eh]
	 Same-Spin Energy          =      -0.3633136593771250 [Eh]
	 Opposite-Spin Energy      =      -1.1150294802478744 [Eh]
	 Correlation Energy        =      -1.4783431396249993 [Eh]
	 Total Energy              =    -340.3201712919834563 [Eh]

	 ================> DF-SCS-MP2 Energies <==================
	-----------------------------------------------------------
	 SCS Same-Spin Scale       =       0.3333333333333333 [-]
	 SCS Opposite-Spin Scale   =       1.2000000000000000 [-]
	 SCS Same-Spin Energy      =      -0.1211045531257083 [Eh]
	 SCS Opposite-Spin Energy  =      -1.3380353762974493 [Eh]
	 SCS Correlation Energy    =      -1.4591399294231575 [Eh]
	 SCS Total Energy          =    -340.3009680817816047 [Eh]
	-----------------------------------------------------------

  Dipole Moment: [D]
     X:    -0.6051      Y:    -0.0000      Z:    -0.0000     Total:     0.6051

*** Psi4 exiting successfully. Buy a developer a beer!
