                               Psi4 1.3.2 release

  ==> Input File <==

--------------------------------------------------------------------------
#psi4
#
memory 32 gb

molecule  {
1 1
  N        1.9381540    -0.0000390     0.0000190
  N        3.0687324     0.0839912    -0.0841364
  C        0.5473360    -0.0000170     0.0000140
  C       -0.0940020    -1.2473330     0.0000080
  C       -0.0939660     1.2473160     0.0000070
  C       -1.4853590    -1.2209880     0.0000050
  C       -1.4853240     1.2210110     0.0000030
  C       -2.1726170     0.0000220     0.0000020
  H        0.4692830    -2.1765740     0.0000100
  H        0.4693460     2.1765410     0.0000080
  H       -2.0338500    -2.1581340     0.0000040
  H       -2.0337860     2.1581750     0.0000020
  H       -3.2592660     0.0000380    -0.0000010
units angstrom
no_reorient  #important for SAPT in psi4, default
symmetry c1  #important for SAPT in psi4, default
}

set PROPERTIES_ORIGIN ["COM"]
properties('MP2/aug-cc-pvtz', properties = ['dipole'])
--------------------------------------------------------------------------

    Molecular point group: c1
  Charge       = 1
  Multiplicity = 1
  Basis Set: AUG-CC-PVTZ
    Blend: AUG-CC-PVTZ
  Basis Set: (AUG-CC-PVTZ AUX)
    Blend: AUG-CC-PVTZ-JKFIT

    Orbital Energies [Eh]
    ---------------------

    Doubly Occupied:

       1A    -15.989129     2A    -15.967265     3A    -11.516698
       4A    -11.459385     5A    -11.458915     6A    -11.438835
       7A    -11.425424     8A    -11.425049     9A     -1.715166
      10A     -1.396798    11A     -1.290678    12A     -1.223821
      13A     -1.133620    14A     -1.040233    15A     -0.975647
      16A     -0.921265    17A     -0.891794    18A     -0.886363
      19A     -0.877793    20A     -0.807077    21A     -0.801575
      22A     -0.791180    23A     -0.710886    24A     -0.702201
      25A     -0.695584    26A     -0.545253    27A     -0.533478

  @DF-RHF Final Energy:  -338.84318898696546

   => Energetics <=

    Nuclear Repulsion Energy =            313.5104467988035140
    One-Electron Energy =               -1067.4650448339953073
    Two-Electron Energy =                 415.1114090482263350
    Total Energy =                       -338.8431889869654583
  Basis Set: (AUG-CC-PVTZ AUX)
    Blend: AUG-CC-PVTZ-RI
    Molecular point group: c1

    Geometry (in Angstrom), charge = 1, multiplicity = 1:

       Center              X                  Y                   Z               Mass
    ------------   -----------------  -----------------  -----------------  -----------------
         N            1.878500146383    -0.011231957036     0.011227605221    14.003074004430
         N            3.009078546383     0.072798242964    -0.072927794779    14.003074004430
         C            0.487682146383    -0.011209957036     0.011222605221    12.000000000000
         C           -0.153655853617    -1.258525957036     0.011216605221    12.000000000000
         C           -0.153619853617     1.236123042964     0.011215605221    12.000000000000
         C           -1.545012853617    -1.232180957036     0.011213605221    12.000000000000
         C           -1.544977853617     1.209818042964     0.011211605221    12.000000000000
         C           -2.232270853617    -0.011170957036     0.011210605221    12.000000000000
         H            0.409629146383    -2.187766957036     0.011218605221     1.007825032230
         H            0.409692146383     2.165348042964     0.011216605221     1.007825032230
         H           -2.093503853617    -2.169326957036     0.011212605221     1.007825032230
         H           -2.093439853617     2.146982042964     0.011210605221     1.007825032230
         H           -3.318919853617    -0.011154957036     0.011207605221     1.007825032230

  Basis Set: AUG-CC-PVTZ
    Blend: AUG-CC-PVTZ
  Basis Set: (AUG-CC-PVTZ AUX)
    Blend: AUG-CC-PVTZ-JKFIT
	 Reference Energy          =    -338.8431889869654583 [Eh]
	 Singles Energy            =      -0.0000000000000000 [Eh]
	 Same-Spin Energy          =      -0.3631779021060195 [Eh]
	 Opposite-Spin Energy      =      -1.1151560434276431 [Eh]
	 Correlation Energy        =      -1.4783339455336626 [Eh]
	 Total Energy              =    -340.3215229324991355 [Eh]

	 ================> DF-SCS-MP2 Energies <==================
	-----------------------------------------------------------
	 SCS Same-Spin Scale       =       0.3333333333333333 [-]
	 SCS Opposite-Spin Scale   =       1.2000000000000000 [-]
	 SCS Same-Spin Energy      =      -0.1210593007020065 [Eh]
	 SCS Opposite-Spin Energy  =      -1.3381872521131717 [Eh]
	 SCS Correlation Energy    =      -1.4592465528151781 [Eh]
	 SCS Total Energy          =    -340.3024355397806175 [Eh]
	-----------------------------------------------------------

  Dipole Moment: [D]
     X:     0.8371      Y:    -0.0192      Z:     0.0108     Total:     0.8374

*** Psi4 exiting successfully. Buy a developer a beer!
