                               Psi4 1.4a3.dev225

  ==> Input File <==

--------------------------------------------------------------------------
#psi4
#
memory 32 gb

molecule  {
1 1
  N       -1.9377550    -0.0000010    -0.0000070
  N       -3.0716270     0.0000010    -0.0000110
  C       -0.5258680     0.0000000    -0.0000019
  C        0.0932850     1.2450350     0.0000000
  C        0.0932850    -1.2450360     0.0000000
  C        1.4845000     1.2192680     0.0000050
  C        1.4845010    -1.2192680     0.0000050
  C        2.1722020     0.0000010     0.0000080
  H       -0.4731340     2.1706270    -0.0000020
  H       -0.4731330    -2.1706280    -0.0000020
  H        2.0311290     2.1566840     0.0000070
  H        2.0311300    -2.1566830     0.0000070
  H        3.2582600     0.0000010     0.0000120
units angstrom
no_reorient  #important for SAPT in psi4, default
symmetry c1  #important for SAPT in psi4, default
}

set PROPERTIES_ORIGIN ["COM"]
properties('MP2/aug-cc-pvtz', properties = ['dipole'])
--------------------------------------------------------------------------

    Molecular point group: c1
  Charge       = 1
  Multiplicity = 1
  Basis Set: AUG-CC-PVTZ
    Blend: AUG-CC-PVTZ
  Basis Set: (AUG-CC-PVTZ AUX)
    Blend: AUG-CC-PVTZ-JKFIT

    Orbital Energies [Eh]
    ---------------------

    Doubly Occupied:

       1A    -15.988914     2A    -15.968566     3A    -11.517801
       4A    -11.456329     5A    -11.456297     6A    -11.435953
       7A    -11.424844     8A    -11.424772     9A     -1.717216
      10A     -1.397004    11A     -1.287213    12A     -1.225387
      13A     -1.131907    14A     -1.041528    15A     -0.976318
      16A     -0.922309    17A     -0.891290    18A     -0.885866
      19A     -0.877010    20A     -0.811610    21A     -0.801470
      22A     -0.791472    23A     -0.709692    24A     -0.705580
      25A     -0.696788    26A     -0.545735    27A     -0.533477

  @DF-RHF Final Energy:  -338.84512797001810

   => Energetics <=

    Nuclear Repulsion Energy =            313.8530029796637564
    One-Electron Energy =               -1068.1515655297582725
    Two-Electron Energy =                 415.4534345800764186
    Total Energy =                       -338.8451279700180976
  Basis Set: (AUG-CC-PVTZ AUX)
    Blend: AUG-CC-PVTZ-RI
    Molecular point group: c1

    Geometry (in Angstrom), charge = 1, multiplicity = 1:

       Center              X                  Y                   Z               Mass
    ------------   -----------------  -----------------  -----------------  -----------------
         N           -1.879687121732    -0.000001009594    -0.000006650787    14.003074004430
         N           -3.013559121732     0.000000990406    -0.000010650787    14.003074004430
         C           -0.467800121732    -0.000000009594    -0.000001550787    12.000000000000
         C            0.151352878268     1.245034990406     0.000000349213    12.000000000000
         C            0.151352878268    -1.245036009594     0.000000349213    12.000000000000
         C            1.542567878268     1.219267990406     0.000005349213    12.000000000000
         C            1.542568878268    -1.219268009594     0.000005349213    12.000000000000
         C            2.230269878268     0.000000990406     0.000008349213    12.000000000000
         H           -0.415066121732     2.170626990406    -0.000001650787     1.007825032230
         H           -0.415065121732    -2.170628009594    -0.000001650787     1.007825032230
         H            2.089196878268     2.156683990406     0.000007349213     1.007825032230
         H            2.089197878268    -2.156683009594     0.000007349213     1.007825032230
         H            3.316327878268     0.000000990406     0.000012349213     1.007825032230

  Basis Set: AUG-CC-PVTZ
    Blend: AUG-CC-PVTZ
  Basis Set: (AUG-CC-PVTZ AUX)
    Blend: AUG-CC-PVTZ-JKFIT
	 Reference Energy          =    -338.8451279700180976 [Eh]
	 Singles Energy            =      -0.0000000000000000 [Eh]
	 Same-Spin Energy          =      -0.3626789732636681 [Eh]
	 Opposite-Spin Energy      =      -1.1141159289772267 [Eh]
	 Correlation Energy        =      -1.4767949022408948 [Eh]
	 Total Energy              =    -340.3219228722589946 [Eh]

	 ================> DF-SCS-MP2 Energies <==================
	-----------------------------------------------------------
	 SCS Same-Spin Scale       =       0.3333333333333333 [-]
	 SCS Opposite-Spin Scale   =       1.2000000000000000 [-]
	 SCS Same-Spin Energy      =      -0.1208929910878894 [Eh]
	 SCS Opposite-Spin Energy  =      -1.3369391147726719 [Eh]
	 SCS Correlation Energy    =      -1.4578321058605612 [Eh]
	 SCS Total Energy          =    -340.3029600758786728 [Eh]
	-----------------------------------------------------------

  Dipole Moment: [D]
     X:    -0.9362      Y:    -0.0000      Z:    -0.0000     Total:     0.9362

*** Psi4 exiting successfully. Buy a developer a beer!
