                               Psi4 1.4a3.dev225

  ==> Input File <==

--------------------------------------------------------------------------
#psi4
#
memory 32 gb

molecule  {
1 1
  N       -1.9377550    -0.0000010    -0.0000070
  N       -3.0516270     0.0000010    -0.0000109
  C       -0.5458680     0.0000000    -0.0000020
  C        0.0932850     1.2450350     0.0000000
  C        0.0932850    -1.2450360     0.0000000
  C        1.4845000     1.2192680     0.0000050
  C        1.4845010    -1.2192680     0.0000050
  C        2.1722020     0.0000010     0.0000080
  H       -0.4731340     2.1706270    -0.0000020
  H       -0.4731330    -2.1706280    -0.0000020
  H        2.0311290     2.1566840     0.0000070
  H        2.0311300    -2.1566830     0.0000070
  H        3.2582600     0.0000010     0.0000120
units angstrom
no_reorient  #important for SAPT in psi4, default
symmetry c1  #important for SAPT in psi4, default
}

set PROPERTIES_ORIGIN ["COM"]
properties('MP2/aug-cc-pvtz', properties = ['dipole'])
--------------------------------------------------------------------------

    Molecular point group: c1
  Charge       = 1
  Multiplicity = 1
  Basis Set: AUG-CC-PVTZ
    Blend: AUG-CC-PVTZ
  Basis Set: (AUG-CC-PVTZ AUX)
    Blend: AUG-CC-PVTZ-JKFIT

    Orbital Energies [Eh]
    ---------------------

    Doubly Occupied:

       1A    -15.986831     2A    -15.961904     3A    -11.515805
       4A    -11.457868     5A    -11.457836     6A    -11.437132
       7A    -11.424659     8A    -11.424594     9A     -1.734144
      10A     -1.398679    11A     -1.291048    12A     -1.223774
      13A     -1.133368    14A     -1.041282    15A     -0.974659
      16A     -0.922584    17A     -0.902619    18A     -0.893951
      19A     -0.878192    20A     -0.810614    21A     -0.801608
      22A     -0.791775    23A     -0.710581    24A     -0.703820
      25A     -0.695594    26A     -0.545788    27A     -0.533063

  @DF-RHF Final Energy:  -338.85148492546648

   => Energetics <=

    Nuclear Repulsion Energy =            314.4127451952098795
    One-Electron Energy =               -1069.2209181685018393
    Two-Electron Energy =                 415.9566880478254234
    Total Energy =                       -338.8514849254664796
  Basis Set: (AUG-CC-PVTZ AUX)
    Blend: AUG-CC-PVTZ-RI
    Molecular point group: c1

    Geometry (in Angstrom), charge = 1, multiplicity = 1:

       Center              X                  Y                   Z               Mass
    ------------   -----------------  -----------------  -----------------  -----------------
         N           -1.880068495199    -0.000001009594    -0.000006652694    14.003074004430
         N           -2.993940495199     0.000000990406    -0.000010552694    14.003074004430
         C           -0.488181495199    -0.000000009594    -0.000001652694    12.000000000000
         C            0.150971504801     1.245034990406     0.000000347306    12.000000000000
         C            0.150971504801    -1.245036009594     0.000000347306    12.000000000000
         C            1.542186504801     1.219267990406     0.000005347306    12.000000000000
         C            1.542187504801    -1.219268009594     0.000005347306    12.000000000000
         C            2.229888504801     0.000000990406     0.000008347306    12.000000000000
         H           -0.415447495199     2.170626990406    -0.000001652694     1.007825032230
         H           -0.415446495199    -2.170628009594    -0.000001652694     1.007825032230
         H            2.088815504801     2.156683990406     0.000007347306     1.007825032230
         H            2.088816504801    -2.156683009594     0.000007347306     1.007825032230
         H            3.315946504801     0.000000990406     0.000012347306     1.007825032230

  Basis Set: AUG-CC-PVTZ
    Blend: AUG-CC-PVTZ
  Basis Set: (AUG-CC-PVTZ AUX)
    Blend: AUG-CC-PVTZ-JKFIT
	 Reference Energy          =    -338.8514849254664796 [Eh]
	 Singles Energy            =      -0.0000000000000000 [Eh]
	 Same-Spin Energy          =      -0.3609566082876463 [Eh]
	 Opposite-Spin Energy      =      -1.1104070366982044 [Eh]
	 Correlation Energy        =      -1.4713636449858507 [Eh]
	 Total Energy              =    -340.3228485704523223 [Eh]

	 ================> DF-SCS-MP2 Energies <==================
	-----------------------------------------------------------
	 SCS Same-Spin Scale       =       0.3333333333333333 [-]
	 SCS Opposite-Spin Scale   =       1.2000000000000000 [-]
	 SCS Same-Spin Energy      =      -0.1203188694292154 [Eh]
	 SCS Opposite-Spin Energy  =      -1.3324884440378453 [Eh]
	 SCS Correlation Energy    =      -1.4528073134670607 [Eh]
	 SCS Total Energy          =    -340.3042922389335558 [Eh]
	-----------------------------------------------------------

  Dipole Moment: [D]
     X:    -0.8927      Y:    -0.0000      Z:    -0.0000     Total:     0.8927

*** Psi4 exiting successfully. Buy a developer a beer!
