                               Psi4 1.3.2 release

  ==> Input File <==

--------------------------------------------------------------------------
#psi4
#
memory 32 gb

molecule  {
1 1
  N        1.9305327    -0.1454189     0.0000185
  N        3.0749700     0.0000220    -0.0000560
  C        0.5473360    -0.0000170     0.0000140
  C       -0.0940020    -1.2473330     0.0000080
  C       -0.0939660     1.2473160     0.0000070
  C       -1.4853590    -1.2209880     0.0000050
  C       -1.4853240     1.2210110     0.0000030
  C       -2.1726170     0.0000220     0.0000020
  H        0.4692830    -2.1765740     0.0000100
  H        0.4693460     2.1765410     0.0000080
  H       -2.0338500    -2.1581340     0.0000040
  H       -2.0337860     2.1581750     0.0000020
  H       -3.2592660     0.0000380    -0.0000010
units angstrom
no_reorient  #important for SAPT in psi4, default
symmetry c1  #important for SAPT in psi4, default
}

set PROPERTIES_ORIGIN ["COM"]
properties('MP2/aug-cc-pvtz', properties = ['dipole'])
--------------------------------------------------------------------------

    Molecular point group: c1
  Charge       = 1
  Multiplicity = 1
  Basis Set: AUG-CC-PVTZ
    Blend: AUG-CC-PVTZ
  Basis Set: (AUG-CC-PVTZ AUX)
    Blend: AUG-CC-PVTZ-JKFIT

    Orbital Energies [Eh]
    ---------------------

    Doubly Occupied:

       1A    -15.989433     2A    -15.971589     3A    -11.516795
       4A    -11.461283     5A    -11.457409     6A    -11.439709
       7A    -11.427165     8A    -11.423721     9A     -1.702285
      10A     -1.395867    11A     -1.290403    12A     -1.223859
      13A     -1.133360    14A     -1.039937    15A     -0.976407
      16A     -0.920733    17A     -0.884223    18A     -0.882401
      19A     -0.877211    20A     -0.804613    21A     -0.801715
      22A     -0.790207    23A     -0.711129    24A     -0.701477
      25A     -0.695376    26A     -0.545332    27A     -0.533697

  @DF-RHF Final Energy:  -338.83200027264274

   => Energetics <=

    Nuclear Repulsion Energy =            313.2136142413485800
    One-Electron Energy =               -1066.8965586901076676
    Two-Electron Energy =                 414.8509441761163998
    Total Energy =                       -338.8320002726427447
  Basis Set: (AUG-CC-PVTZ AUX)
    Blend: AUG-CC-PVTZ-RI
    Molecular point group: c1

    Geometry (in Angstrom), charge = 1, multiplicity = 1:

       Center              X                  Y                   Z               Mass
    ------------   -----------------  -----------------  -----------------  -----------------
         N            1.871063300694    -0.126038444989     0.000018823054    14.003074004430
         N            3.015500600694     0.019402455011    -0.000055676946    14.003074004430
         C            0.487866600694     0.019363455011     0.000014323054    12.000000000000
         C           -0.153471399306    -1.227952544989     0.000008323054    12.000000000000
         C           -0.153435399306     1.266696455011     0.000007323054    12.000000000000
         C           -1.544828399306    -1.201607544989     0.000005323054    12.000000000000
         C           -1.544793399306     1.240391455011     0.000003323054    12.000000000000
         C           -2.232086399306     0.019402455011     0.000002323054    12.000000000000
         H            0.409813600694    -2.157193544989     0.000010323054     1.007825032230
         H            0.409876600694     2.195921455011     0.000008323054     1.007825032230
         H           -2.093319399306    -2.138753544989     0.000004323054     1.007825032230
         H           -2.093255399306     2.177555455011     0.000002323054     1.007825032230
         H           -3.318735399306     0.019418455011    -0.000000676946     1.007825032230

  Basis Set: AUG-CC-PVTZ
    Blend: AUG-CC-PVTZ
  Basis Set: (AUG-CC-PVTZ AUX)
    Blend: AUG-CC-PVTZ-JKFIT
	 Reference Energy          =    -338.8320002726427447 [Eh]
	 Singles Energy            =      -0.0000000000000000 [Eh]
	 Same-Spin Energy          =      -0.3647363294840306 [Eh]
	 Opposite-Spin Energy      =      -1.1186940812793960 [Eh]
	 Correlation Energy        =      -1.4834304107634266 [Eh]
	 Total Energy              =    -340.3154306834061913 [Eh]

	 ================> DF-SCS-MP2 Energies <==================
	-----------------------------------------------------------
	 SCS Same-Spin Scale       =       0.3333333333333333 [-]
	 SCS Opposite-Spin Scale   =       1.2000000000000000 [-]
	 SCS Same-Spin Energy      =      -0.1215787764946769 [Eh]
	 SCS Opposite-Spin Energy  =      -1.3424328975352751 [Eh]
	 SCS Correlation Energy    =      -1.4640116740299520 [Eh]
	 SCS Total Energy          =    -340.2960119466727065 [Eh]
	-----------------------------------------------------------

  Dipole Moment: [D]
     X:     0.8436      Y:    -0.0229      Z:     0.0000     Total:     0.8439

*** Psi4 exiting successfully. Buy a developer a beer!
