                               Psi4 1.3.2 release

  ==> Input File <==

--------------------------------------------------------------------------
#psi4
#
memory 32 gb

molecule  {
1 1
  N        1.9347676     0.0969796     0.0000193
  N        3.0749700     0.0000220    -0.0000560
  C        0.5473360    -0.0000170     0.0000140
  C       -0.0940020    -1.2473330     0.0000080
  C       -0.0939660     1.2473160     0.0000070
  C       -1.4853590    -1.2209880     0.0000050
  C       -1.4853240     1.2210110     0.0000030
  C       -2.1726170     0.0000220     0.0000020
  H        0.4692830    -2.1765740     0.0000100
  H        0.4693460     2.1765410     0.0000080
  H       -2.0338500    -2.1581340     0.0000040
  H       -2.0337860     2.1581750     0.0000020
  H       -3.2592660     0.0000380    -0.0000010
units angstrom
no_reorient  #important for SAPT in psi4, default
symmetry c1  #important for SAPT in psi4, default
}

set PROPERTIES_ORIGIN ["COM"]
properties('MP2/aug-cc-pvtz', properties = ['dipole'])
--------------------------------------------------------------------------

    Molecular point group: c1
  Charge       = 1
  Multiplicity = 1
  Basis Set: AUG-CC-PVTZ
    Blend: AUG-CC-PVTZ
  Basis Set: (AUG-CC-PVTZ AUX)
    Blend: AUG-CC-PVTZ-JKFIT

    Orbital Energies [Eh]
    ---------------------

    Doubly Occupied:

       1A    -15.989362     2A    -15.969101     3A    -11.516790
       4A    -11.460616     5A    -11.457953     6A    -11.439265
       7A    -11.426491     8A    -11.424207     9A     -1.709235
      10A     -1.396515    11A     -1.290654    12A     -1.223867
      13A     -1.133554    14A     -1.040118    15A     -0.975964
      16A     -0.920950    17A     -0.888323    18A     -0.884413
      19A     -0.877643    20A     -0.805951    21A     -0.801667
      22A     -0.790838    23A     -0.711027    24A     -0.701914
      25A     -0.695519    26A     -0.545338    27A     -0.533600

  @DF-RHF Final Energy:  -338.83859185436455

   => Energetics <=

    Nuclear Repulsion Energy =            313.3516209427023114
    One-Electron Energy =               -1067.1586805405486302
    Two-Electron Energy =                 414.9684677434817672
    Total Energy =                       -338.8385918543645516
  Basis Set: (AUG-CC-PVTZ AUX)
    Blend: AUG-CC-PVTZ-RI
    Molecular point group: c1

    Geometry (in Angstrom), charge = 1, multiplicity = 1:

       Center              X                  Y                   Z               Mass
    ------------   -----------------  -----------------  -----------------  -----------------
         N            1.874733666791     0.084047090975     0.000019516410    14.003074004430
         N            3.014936066791    -0.012910509025    -0.000055783590    14.003074004430
         C            0.487302066791    -0.012949509025     0.000014216410    12.000000000000
         C           -0.154035933209    -1.260265509025     0.000008216410    12.000000000000
         C           -0.153999933209     1.234383490975     0.000007216410    12.000000000000
         C           -1.545392933209    -1.233920509025     0.000005216410    12.000000000000
         C           -1.545357933209     1.208078490975     0.000003216410    12.000000000000
         C           -2.232650933209    -0.012910509025     0.000002216410    12.000000000000
         H            0.409249066791    -2.189506509025     0.000010216410     1.007825032230
         H            0.409312066791     2.163608490975     0.000008216410     1.007825032230
         H           -2.093883933209    -2.171066509025     0.000004216410     1.007825032230
         H           -2.093819933209     2.145242490975     0.000002216410     1.007825032230
         H           -3.319299933209    -0.012894509025    -0.000000783590     1.007825032230

  Basis Set: AUG-CC-PVTZ
    Blend: AUG-CC-PVTZ
  Basis Set: (AUG-CC-PVTZ AUX)
    Blend: AUG-CC-PVTZ-JKFIT
	 Reference Energy          =    -338.8385918543645516 [Eh]
	 Singles Energy            =      -0.0000000000000000 [Eh]
	 Same-Spin Energy          =      -0.3638797813671668 [Eh]
	 Opposite-Spin Energy      =      -1.1167306478175456 [Eh]
	 Correlation Energy        =      -1.4806104291847124 [Eh]
	 Total Energy              =    -340.3192022835492594 [Eh]

	 ================> DF-SCS-MP2 Energies <==================
	-----------------------------------------------------------
	 SCS Same-Spin Scale       =       0.3333333333333333 [-]
	 SCS Opposite-Spin Scale   =       1.2000000000000000 [-]
	 SCS Same-Spin Energy      =      -0.1212932604557223 [Eh]
	 SCS Opposite-Spin Energy  =      -1.3400767773810547 [Eh]
	 SCS Correlation Energy    =      -1.4613700378367769 [Eh]
	 SCS Total Energy          =    -340.2999618922013383 [Eh]
	-----------------------------------------------------------

  Dipole Moment: [D]
     X:     0.8338      Y:     0.0156      Z:     0.0000     Total:     0.8339

*** Psi4 exiting successfully. Buy a developer a beer!
