                               Psi4 1.3.2 release

  ==> Input File <==

--------------------------------------------------------------------------
#psi4
#
memory 32 gb

molecule  {
1 1
  N        1.9381540    -0.0000390     0.0000190
  N        3.0749700     0.0000220    -0.0000560
  C        0.6473360    -0.0000186     0.0000144
  C       -0.0940020    -1.2473330     0.0000080
  C       -0.0939660     1.2473160     0.0000070
  C       -1.4853590    -1.2209880     0.0000050
  C       -1.4853240     1.2210110     0.0000030
  C       -2.1726170     0.0000220     0.0000020
  H        0.4692830    -2.1765740     0.0000100
  H        0.4693460     2.1765410     0.0000080
  H       -2.0338500    -2.1581340     0.0000040
  H       -2.0337860     2.1581750     0.0000020
  H       -3.2592660     0.0000380    -0.0000010
units angstrom
no_reorient  #important for SAPT in psi4, default
symmetry c1  #important for SAPT in psi4, default
}

set PROPERTIES_ORIGIN ["COM"]
properties('MP2/aug-cc-pvtz', properties = ['dipole'])
--------------------------------------------------------------------------

    Molecular point group: c1
  Charge       = 1
  Multiplicity = 1
  Basis Set: AUG-CC-PVTZ
    Blend: AUG-CC-PVTZ
  Basis Set: (AUG-CC-PVTZ AUX)
    Blend: AUG-CC-PVTZ-JKFIT

    Orbital Energies [Eh]
    ---------------------

    Doubly Occupied:

       1A    -15.981193     2A    -15.948931     3A    -11.509179
       4A    -11.471852     5A    -11.471822     6A    -11.452577
       7A    -11.428298     8A    -11.428260     9A     -1.711949
      10A     -1.408206    11A     -1.308804    12A     -1.221094
      13A     -1.143178    14A     -1.039702    15A     -0.973165
      16A     -0.912262    17A     -0.898439    18A     -0.892132
      19A     -0.885168    20A     -0.804867    21A     -0.795026
      22A     -0.788140    23A     -0.719876    24A     -0.692100
      25A     -0.689221    26A     -0.546812    27A     -0.535629

  @DF-RHF Final Energy:  -338.83133479245356

   => Energetics <=

    Nuclear Repulsion Energy =            313.2741546085400159
    One-Electron Energy =               -1066.8952127724905949
    Two-Electron Energy =                 414.7897233714970184
    Total Energy =                       -338.8313347924535606
  Basis Set: (AUG-CC-PVTZ AUX)
    Blend: AUG-CC-PVTZ-RI
    Molecular point group: c1

    Geometry (in Angstrom), charge = 1, multiplicity = 1:

       Center              X                  Y                   Z               Mass
    ------------   -----------------  -----------------  -----------------  -----------------
         N            1.866244996431    -0.000038248969     0.000019210707    14.003074004430
         N            3.003060996431     0.000022751031    -0.000055789293    14.003074004430
         C            0.575426996431    -0.000017848969     0.000014610707    12.000000000000
         C           -0.165911003569    -1.247332248969     0.000008210707    12.000000000000
         C           -0.165875003569     1.247316751031     0.000007210707    12.000000000000
         C           -1.557268003569    -1.220987248969     0.000005210707    12.000000000000
         C           -1.557233003569     1.221011751031     0.000003210707    12.000000000000
         C           -2.244526003569     0.000022751031     0.000002210707    12.000000000000
         H            0.397373996431    -2.176573248969     0.000010210707     1.007825032230
         H            0.397436996431     2.176541751031     0.000008210707     1.007825032230
         H           -2.105759003569    -2.158133248969     0.000004210707     1.007825032230
         H           -2.105695003569     2.158175751031     0.000002210707     1.007825032230
         H           -3.331175003569     0.000038751031    -0.000000789293     1.007825032230

  Basis Set: AUG-CC-PVTZ
    Blend: AUG-CC-PVTZ
  Basis Set: (AUG-CC-PVTZ AUX)
    Blend: AUG-CC-PVTZ-JKFIT
	 Reference Energy          =    -338.8313347924535606 [Eh]
	 Singles Energy            =      -0.0000000000000000 [Eh]
	 Same-Spin Energy          =      -0.3638060146851355 [Eh]
	 Opposite-Spin Energy      =      -1.1161285896211455 [Eh]
	 Correlation Energy        =      -1.4799346043062811 [Eh]
	 Total Energy              =    -340.3112693967598261 [Eh]

	 ================> DF-SCS-MP2 Energies <==================
	-----------------------------------------------------------
	 SCS Same-Spin Scale       =       0.3333333333333333 [-]
	 SCS Opposite-Spin Scale   =       1.2000000000000000 [-]
	 SCS Same-Spin Energy      =      -0.1212686715617118 [Eh]
	 SCS Opposite-Spin Energy  =      -1.3393543075453744 [Eh]
	 SCS Correlation Energy    =      -1.4606229791070864 [Eh]
	 SCS Total Energy          =    -340.2919577715606465 [Eh]
	-----------------------------------------------------------

  Dipole Moment: [D]
     X:     0.3094      Y:    -0.0000      Z:     0.0000     Total:     0.3094

*** Psi4 exiting successfully. Buy a developer a beer!
