                               Psi4 1.3.2 release

  ==> Input File <==

--------------------------------------------------------------------------
#psi4
#
memory 32 gb

molecule  {
1 1
  N        1.9381540    -0.0000390     0.0000190
  N        2.9749700     0.0000166    -0.0000494
  C        0.5473360    -0.0000170     0.0000140
  C       -0.0940020    -1.2473330     0.0000080
  C       -0.0939660     1.2473160     0.0000070
  C       -1.4853590    -1.2209880     0.0000050
  C       -1.4853240     1.2210110     0.0000030
  C       -2.1726170     0.0000220     0.0000020
  H        0.4692830    -2.1765740     0.0000100
  H        0.4693460     2.1765410     0.0000080
  H       -2.0338500    -2.1581340     0.0000040
  H       -2.0337860     2.1581750     0.0000020
  H       -3.2592660     0.0000380    -0.0000010
units angstrom
no_reorient  #important for SAPT in psi4, default
symmetry c1  #important for SAPT in psi4, default
}

set PROPERTIES_ORIGIN ["COM"]
properties('MP2/aug-cc-pvtz', properties = ['dipole'])
--------------------------------------------------------------------------

    Molecular point group: c1
  Charge       = 1
  Multiplicity = 1
  Basis Set: AUG-CC-PVTZ
    Blend: AUG-CC-PVTZ
  Basis Set: (AUG-CC-PVTZ AUX)
    Blend: AUG-CC-PVTZ-JKFIT

    Orbital Energies [Eh]
    ---------------------

    Doubly Occupied:

       1A    -15.975212     2A    -15.939466     3A    -11.514548
       4A    -11.457088     5A    -11.457057     6A    -11.434762
       7A    -11.423927     8A    -11.423854     9A     -1.798994
      10A     -1.400048    11A     -1.290444    12A     -1.222435
      13A     -1.130521    14A     -1.042236    15A     -0.970269
      16A     -0.941828    17A     -0.925512    18A     -0.924156
      19A     -0.877351    20A     -0.817264    21A     -0.800354
      22A     -0.791390    23A     -0.708989    24A     -0.705415
      25A     -0.694687    26A     -0.545385    27A     -0.532039

  @DF-RHF Final Energy:  -338.85444425592345

   => Energetics <=

    Nuclear Repulsion Energy =            316.7538196199996605
    One-Electron Energy =               -1073.7260701827663070
    Two-Electron Energy =                 418.1178063068432493
    Total Energy =                       -338.8544442559234540
  Basis Set: (AUG-CC-PVTZ AUX)
    Blend: AUG-CC-PVTZ-RI
    Molecular point group: c1

    Geometry (in Angstrom), charge = 1, multiplicity = 1:

       Center              X                  Y                   Z               Mass
    ------------   -----------------  -----------------  -----------------  -----------------
         N            1.890999155490    -0.000037711899     0.000018376588    14.003074004430
         N            2.927815155490     0.000017888101    -0.000050023412    14.003074004430
         C            0.500181155490    -0.000015711899     0.000013376588    12.000000000000
         C           -0.141156844510    -1.247331711899     0.000007376588    12.000000000000
         C           -0.141120844510     1.247317288101     0.000006376588    12.000000000000
         C           -1.532513844510    -1.220986711899     0.000004376588    12.000000000000
         C           -1.532478844510     1.221012288101     0.000002376588    12.000000000000
         C           -2.219771844510     0.000023288101     0.000001376588    12.000000000000
         H            0.422128155490    -2.176572711899     0.000009376588     1.007825032230
         H            0.422191155490     2.176542288101     0.000007376588     1.007825032230
         H           -2.081004844510    -2.158132711899     0.000003376588     1.007825032230
         H           -2.080940844510     2.158176288101     0.000001376588     1.007825032230
         H           -3.306420844510     0.000039288101    -0.000001623412     1.007825032230

  Basis Set: AUG-CC-PVTZ
    Blend: AUG-CC-PVTZ
  Basis Set: (AUG-CC-PVTZ AUX)
    Blend: AUG-CC-PVTZ-JKFIT
	 Reference Energy          =    -338.8544442559234540 [Eh]
	 Singles Energy            =      -0.0000000000000000 [Eh]
	 Same-Spin Energy          =      -0.3541465526154821 [Eh]
	 Opposite-Spin Energy      =      -1.0962567017953524 [Eh]
	 Correlation Energy        =      -1.4504032544108345 [Eh]
	 Total Energy              =    -340.3048475103342980 [Eh]

	 ================> DF-SCS-MP2 Energies <==================
	-----------------------------------------------------------
	 SCS Same-Spin Scale       =       0.3333333333333333 [-]
	 SCS Opposite-Spin Scale   =       1.2000000000000000 [-]
	 SCS Same-Spin Energy      =      -0.1180488508718274 [Eh]
	 SCS Opposite-Spin Energy  =      -1.3155080421544227 [Eh]
	 SCS Correlation Energy    =      -1.4335568930262501 [Eh]
	 SCS Total Energy          =    -340.2880011489497178 [Eh]
	-----------------------------------------------------------

  Dipole Moment: [D]
     X:     1.0614      Y:    -0.0000      Z:     0.0000     Total:     1.0614

*** Psi4 exiting successfully. Buy a developer a beer!
