                               Psi4 1.3.2 release

  ==> Input File <==

--------------------------------------------------------------------------
#psi4
#
memory 32 gb

molecule  {
1 1
  N        1.9381540    -0.0000390     0.0000190
  N        3.0749700     0.0000220    -0.0000560
  C        0.4473360    -0.0000154     0.0000136
  C       -0.0940020    -1.2473330     0.0000080
  C       -0.0939660     1.2473160     0.0000070
  C       -1.4853590    -1.2209880     0.0000050
  C       -1.4853240     1.2210110     0.0000030
  C       -2.1726170     0.0000220     0.0000020
  H        0.4692830    -2.1765740     0.0000100
  H        0.4693460     2.1765410     0.0000080
  H       -2.0338500    -2.1581340     0.0000040
  H       -2.0337860     2.1581750     0.0000020
  H       -3.2592660     0.0000380    -0.0000010
units angstrom
no_reorient  #important for SAPT in psi4, default
symmetry c1  #important for SAPT in psi4, default
}

set PROPERTIES_ORIGIN ["COM"]
properties('MP2/aug-cc-pvtz', properties = ['dipole'])
--------------------------------------------------------------------------

    Molecular point group: c1
  Charge       = 1
  Multiplicity = 1
  Basis Set: AUG-CC-PVTZ
    Blend: AUG-CC-PVTZ
  Basis Set: (AUG-CC-PVTZ AUX)
    Blend: AUG-CC-PVTZ-JKFIT

    Orbital Energies [Eh]
    ---------------------

    Doubly Occupied:

       1A    -15.982839     2A    -15.970211     3A    -11.524420
       4A    -11.450765     5A    -11.450730     6A    -11.429954
       7A    -11.425919     8A    -11.425737     9A     -1.709673
      10A     -1.396231    11A     -1.271368    12A     -1.232233
      13A     -1.121911    14A     -1.042916    15A     -0.978577
      16A     -0.921728    17A     -0.879876    18A     -0.878020
      19A     -0.871786    20A     -0.825595    21A     -0.799986
      22A     -0.790510    23A     -0.715540    24A     -0.705566
      25A     -0.700313    26A     -0.545619    27A     -0.535218

  @DF-RHF Final Energy:  -338.83800067504285

   => Energetics <=

    Nuclear Repulsion Energy =            313.8476218897168906
    One-Electron Energy =               -1068.2047579601635334
    Two-Electron Energy =                 415.5191353954037368
    Total Energy =                       -338.8380006750428493
  Basis Set: (AUG-CC-PVTZ AUX)
    Blend: AUG-CC-PVTZ-RI
    Molecular point group: c1

    Geometry (in Angstrom), charge = 1, multiplicity = 1:

       Center              X                  Y                   Z               Mass
    ------------   -----------------  -----------------  -----------------  -----------------
         N            1.889092288152    -0.000038614525     0.000019302096    14.003074004430
         N            3.025908288152     0.000022385475    -0.000055697904    14.003074004430
         C            0.398274288152    -0.000015014525     0.000013902096    12.000000000000
         C           -0.143063711848    -1.247332614525     0.000008302096    12.000000000000
         C           -0.143027711848     1.247316385475     0.000007302096    12.000000000000
         C           -1.534420711848    -1.220987614525     0.000005302096    12.000000000000
         C           -1.534385711848     1.221011385475     0.000003302096    12.000000000000
         C           -2.221678711848     0.000022385475     0.000002302096    12.000000000000
         H            0.420221288152    -2.176573614525     0.000010302096     1.007825032230
         H            0.420284288152     2.176541385475     0.000008302096     1.007825032230
         H           -2.082911711848    -2.158133614525     0.000004302096     1.007825032230
         H           -2.082847711848     2.158175385475     0.000002302096     1.007825032230
         H           -3.308327711848     0.000038385475    -0.000000697904     1.007825032230

  Basis Set: AUG-CC-PVTZ
    Blend: AUG-CC-PVTZ
  Basis Set: (AUG-CC-PVTZ AUX)
    Blend: AUG-CC-PVTZ-JKFIT
	 Reference Energy          =    -338.8380006750428493 [Eh]
	 Singles Energy            =      -0.0000000000000000 [Eh]
	 Same-Spin Energy          =      -0.3622031344165069 [Eh]
	 Opposite-Spin Energy      =      -1.1138496844758152 [Eh]
	 Correlation Energy        =      -1.4760528188923221 [Eh]
	 Total Energy              =    -340.3140534939351483 [Eh]

	 ================> DF-SCS-MP2 Energies <==================
	-----------------------------------------------------------
	 SCS Same-Spin Scale       =       0.3333333333333333 [-]
	 SCS Opposite-Spin Scale   =       1.2000000000000000 [-]
	 SCS Same-Spin Energy      =      -0.1207343781388356 [Eh]
	 SCS Opposite-Spin Energy  =      -1.3366196213709782 [Eh]
	 SCS Correlation Energy    =      -1.4573539995098139 [Eh]
	 SCS Total Energy          =    -340.2953546745526410 [Eh]
	-----------------------------------------------------------

  Dipole Moment: [D]
     X:     1.1388      Y:    -0.0000      Z:     0.0000     Total:     1.1388

*** Psi4 exiting successfully. Buy a developer a beer!
