                               Psi4 1.3.2 release

  ==> Input File <==

--------------------------------------------------------------------------
#psi4
#
memory 32 gb

molecule  {
1 1
  N        1.9381540    -0.0000390     0.0000190
  N        3.0742808    -0.0280134     0.0280166
  C        0.5473360    -0.0000170     0.0000140
  C       -0.0940020    -1.2473330     0.0000080
  C       -0.0939660     1.2473160     0.0000070
  C       -1.4853590    -1.2209880     0.0000050
  C       -1.4853240     1.2210110     0.0000030
  C       -2.1726170     0.0000220     0.0000020
  H        0.4692830    -2.1765740     0.0000100
  H        0.4693460     2.1765410     0.0000080
  H       -2.0338500    -2.1581340     0.0000040
  H       -2.0337860     2.1581750     0.0000020
  H       -3.2592660     0.0000380    -0.0000010
units angstrom
no_reorient  #important for SAPT in psi4, default
symmetry c1  #important for SAPT in psi4, default
}

set PROPERTIES_ORIGIN ["COM"]
properties('MP2/aug-cc-pvtz', properties = ['dipole'])
--------------------------------------------------------------------------

    Molecular point group: c1
  Charge       = 1
  Multiplicity = 1
  Basis Set: AUG-CC-PVTZ
    Blend: AUG-CC-PVTZ
  Basis Set: (AUG-CC-PVTZ AUX)
    Blend: AUG-CC-PVTZ-JKFIT

    Orbital Energies [Eh]
    ---------------------

    Doubly Occupied:

       1A    -15.989209     2A    -15.967012     3A    -11.516767
       4A    -11.459321     5A    -11.459161     6A    -11.438929
       7A    -11.425349     8A    -11.425212     9A     -1.714884
      10A     -1.397004    11A     -1.290840    12A     -1.223880
      13A     -1.133713    14A     -1.040276    15A     -0.975621
      16A     -0.921068    17A     -0.891662    18A     -0.886278
      19A     -0.877877    20A     -0.807093    21A     -0.801631
      22A     -0.791237    23A     -0.710952    24A     -0.702262
      25A     -0.695637    26A     -0.545352    27A     -0.533528

  @DF-RHF Final Energy:  -338.84367675826462

   => Energetics <=

    Nuclear Repulsion Energy =            313.4701032813811139
    One-Electron Energy =               -1067.3840493652899113
    Two-Electron Energy =                 415.0702693256441194
    Total Energy =                       -338.8436767582646212
  Basis Set: (AUG-CC-PVTZ AUX)
    Blend: AUG-CC-PVTZ-RI
    Molecular point group: c1

    Geometry (in Angstrom), charge = 1, multiplicity = 1:

       Center              X                  Y                   Z               Mass
    ------------   -----------------  -----------------  -----------------  -----------------
         N            1.877760516189     0.003698830950    -0.003722965247    14.003074004430
         N            3.013887316189    -0.024275569050     0.024274634753    14.003074004430
         C            0.486942516189     0.003720830950    -0.003727965247    12.000000000000
         C           -0.154395483811    -1.243595169050    -0.003733965247    12.000000000000
         C           -0.154359483811     1.251053830950    -0.003734965247    12.000000000000
         C           -1.545752483811    -1.217250169050    -0.003736965247    12.000000000000
         C           -1.545717483811     1.224748830950    -0.003738965247    12.000000000000
         C           -2.233010483811     0.003759830950    -0.003739965247    12.000000000000
         H            0.408889516189    -2.172836169050    -0.003731965247     1.007825032230
         H            0.408952516189     2.180278830950    -0.003733965247     1.007825032230
         H           -2.094243483811    -2.154396169050    -0.003737965247     1.007825032230
         H           -2.094179483811     2.161912830950    -0.003739965247     1.007825032230
         H           -3.319659483811     0.003775830950    -0.003742965247     1.007825032230

  Basis Set: AUG-CC-PVTZ
    Blend: AUG-CC-PVTZ
  Basis Set: (AUG-CC-PVTZ AUX)
    Blend: AUG-CC-PVTZ-JKFIT
	 Reference Energy          =    -338.8436767582646212 [Eh]
	 Singles Energy            =      -0.0000000000000000 [Eh]
	 Same-Spin Energy          =      -0.3631679481410594 [Eh]
	 Opposite-Spin Energy      =      -1.1150985126444439 [Eh]
	 Correlation Energy        =      -1.4782664607855034 [Eh]
	 Total Energy              =    -340.3219432190501266 [Eh]

	 ================> DF-SCS-MP2 Energies <==================
	-----------------------------------------------------------
	 SCS Same-Spin Scale       =       0.3333333333333333 [-]
	 SCS Opposite-Spin Scale   =       1.2000000000000000 [-]
	 SCS Same-Spin Energy      =      -0.1210559827136865 [Eh]
	 SCS Opposite-Spin Energy  =      -1.3381182151733326 [Eh]
	 SCS Correlation Energy    =      -1.4591741978870192 [Eh]
	 SCS Total Energy          =    -340.3028509561516444 [Eh]
	-----------------------------------------------------------

  Dipole Moment: [D]
     X:     0.8290      Y:     0.0064      Z:    -0.0036     Total:     0.8291

*** Psi4 exiting successfully. Buy a developer a beer!
