                               Psi4 1.3.2 release

  ==> Input File <==

--------------------------------------------------------------------------
#psi4
#
memory 32 gb

molecule  {
1 1
  N        1.9379426     0.0242341     0.0000191
  N        3.0749700     0.0000220    -0.0000560
  C        0.5473360    -0.0000170     0.0000140
  C       -0.0940020    -1.2473330     0.0000080
  C       -0.0939660     1.2473160     0.0000070
  C       -1.4853590    -1.2209880     0.0000050
  C       -1.4853240     1.2210110     0.0000030
  C       -2.1726170     0.0000220     0.0000020
  H        0.4692830    -2.1765740     0.0000100
  H        0.4693460     2.1765410     0.0000080
  H       -2.0338500    -2.1581340     0.0000040
  H       -2.0337860     2.1581750     0.0000020
  H       -3.2592660     0.0000380    -0.0000010
units angstrom
no_reorient  #important for SAPT in psi4, default
symmetry c1  #important for SAPT in psi4, default
}

set PROPERTIES_ORIGIN ["COM"]
properties('MP2/aug-cc-pvtz', properties = ['dipole'])
--------------------------------------------------------------------------

    Molecular point group: c1
  Charge       = 1
  Multiplicity = 1
  Basis Set: AUG-CC-PVTZ
    Blend: AUG-CC-PVTZ
  Basis Set: (AUG-CC-PVTZ AUX)
    Blend: AUG-CC-PVTZ-JKFIT

    Orbital Energies [Eh]
    ---------------------

    Doubly Occupied:

       1A    -15.989230     2A    -15.967116     3A    -11.516777
       4A    -11.459594     5A    -11.458914     6A    -11.438960
       7A    -11.425575     8A    -11.425003     9A     -1.714497
      10A     -1.396998    11A     -1.290847    12A     -1.223886
      13A     -1.133714    14A     -1.040271    15A     -0.975639
      16A     -0.921040    17A     -0.891437    18A     -0.886146
      19A     -0.877874    20A     -0.807022    21A     -0.801639
      22A     -0.791221    23A     -0.710964    24A     -0.702247
      25A     -0.695635    26A     -0.545362    27A     -0.533538

  @DF-RHF Final Energy:  -338.84341965662537

   => Energetics <=

    Nuclear Repulsion Energy =            313.4579451116364908
    One-Electron Energy =               -1067.3604337141857741
    Two-Electron Energy =                 415.0590689459239115
    Total Energy =                       -338.8434196566253718
  Basis Set: (AUG-CC-PVTZ AUX)
    Blend: AUG-CC-PVTZ-RI
    Molecular point group: c1

    Geometry (in Angstrom), charge = 1, multiplicity = 1:

       Center              X                  Y                   Z               Mass
    ------------   -----------------  -----------------  -----------------  -----------------
         N            1.877485422996     0.020998939454     0.000019343071    14.003074004430
         N            3.014512822996    -0.003213160546    -0.000055756929    14.003074004430
         C            0.486878822996    -0.003252160546     0.000014243071    12.000000000000
         C           -0.154459177004    -1.250568160546     0.000008243071    12.000000000000
         C           -0.154423177004     1.244080839454     0.000007243071    12.000000000000
         C           -1.545816177004    -1.224223160546     0.000005243071    12.000000000000
         C           -1.545781177004     1.217775839454     0.000003243071    12.000000000000
         C           -2.233074177004    -0.003213160546     0.000002243071    12.000000000000
         H            0.408825822996    -2.179809160546     0.000010243071     1.007825032230
         H            0.408888822996     2.173305839454     0.000008243071     1.007825032230
         H           -2.094307177004    -2.161369160546     0.000004243071     1.007825032230
         H           -2.094243177004     2.154939839454     0.000002243071     1.007825032230
         H           -3.319723177004    -0.003197160546    -0.000000756929     1.007825032230

  Basis Set: AUG-CC-PVTZ
    Blend: AUG-CC-PVTZ
  Basis Set: (AUG-CC-PVTZ AUX)
    Blend: AUG-CC-PVTZ-JKFIT
	 Reference Energy          =    -338.8434196566253718 [Eh]
	 Singles Energy            =      -0.0000000000000000 [Eh]
	 Same-Spin Energy          =      -0.3632118366168021 [Eh]
	 Opposite-Spin Energy      =      -1.1151951709997956 [Eh]
	 Correlation Energy        =      -1.4784070076165978 [Eh]
	 Total Energy              =    -340.3218266642419962 [Eh]

	 ================> DF-SCS-MP2 Energies <==================
	-----------------------------------------------------------
	 SCS Same-Spin Scale       =       0.3333333333333333 [-]
	 SCS Opposite-Spin Scale   =       1.2000000000000000 [-]
	 SCS Same-Spin Energy      =      -0.1210706122056007 [Eh]
	 SCS Opposite-Spin Energy  =      -1.3382342051997547 [Eh]
	 SCS Correlation Energy    =      -1.4593048174053553 [Eh]
	 SCS Total Energy          =    -340.3027244740307538 [Eh]
	-----------------------------------------------------------

  Dipole Moment: [D]
     X:     0.8284      Y:     0.0040      Z:     0.0000     Total:     0.8284

*** Psi4 exiting successfully. Buy a developer a beer!
