                               Psi4 1.4a3.dev225

  ==> Input File <==

--------------------------------------------------------------------------
#psi4
#
memory 32 gb

molecule  {
1 1
  N       -1.9377550    -0.0000010    -0.0000070
  N       -3.0716270     0.0000010    -0.0000110
  C       -0.4958680     0.0000000    -0.0000018
  C        0.0932850     1.2450350     0.0000000
  C        0.0932850    -1.2450360     0.0000000
  C        1.4845000     1.2192680     0.0000050
  C        1.4845010    -1.2192680     0.0000050
  C        2.1722020     0.0000010     0.0000080
  H       -0.4731340     2.1706270    -0.0000020
  H       -0.4731330    -2.1706280    -0.0000020
  H        2.0311290     2.1566840     0.0000070
  H        2.0311300    -2.1566830     0.0000070
  H        3.2582600     0.0000010     0.0000120
units angstrom
no_reorient  #important for SAPT in psi4, default
symmetry c1  #important for SAPT in psi4, default
}

set PROPERTIES_ORIGIN ["COM"]
properties('MP2/aug-cc-pvtz', properties = ['dipole'])
--------------------------------------------------------------------------

    Molecular point group: c1
  Charge       = 1
  Multiplicity = 1
  Basis Set: AUG-CC-PVTZ
    Blend: AUG-CC-PVTZ
  Basis Set: (AUG-CC-PVTZ AUX)
    Blend: AUG-CC-PVTZ-JKFIT

    Orbital Energies [Eh]
    ---------------------

    Doubly Occupied:

       1A    -15.987468     2A    -15.970035     3A    -11.520080
       4A    -11.453590     5A    -11.453556     6A    -11.433085
       7A    -11.424893     8A    -11.424798     9A     -1.715976
      10A     -1.396359    11A     -1.281319    12A     -1.227692
      13A     -1.128462    14A     -1.042242    15A     -0.977200
      16A     -0.922726    17A     -0.887961    18A     -0.883493
      19A     -0.875160    20A     -0.817131    21A     -0.800926
      22A     -0.791305    23A     -0.709476    24A     -0.707935
      25A     -0.698191    26A     -0.545744    27A     -0.533848

  @DF-RHF Final Energy:  -338.84391756533762

   => Energetics <=

    Nuclear Repulsion Energy =            313.9625708641089545
    One-Electron Energy =               -1068.3916711860333635
    Two-Electron Energy =                 415.5851827565867325
    Total Energy =                       -338.8439175653376196
  Basis Set: (AUG-CC-PVTZ AUX)
    Blend: AUG-CC-PVTZ-RI
    Molecular point group: c1

    Geometry (in Angstrom), charge = 1, multiplicity = 1:

       Center              X                  Y                   Z               Mass
    ------------   -----------------  -----------------  -----------------  -----------------
         N           -1.883114215490    -0.000001009594    -0.000006662211    14.003074004430
         N           -3.016986215490     0.000000990406    -0.000010662211    14.003074004430
         C           -0.441227215490    -0.000000009594    -0.000001462211    12.000000000000
         C            0.147925784510     1.245034990406     0.000000337789    12.000000000000
         C            0.147925784510    -1.245036009594     0.000000337789    12.000000000000
         C            1.539140784510     1.219267990406     0.000005337789    12.000000000000
         C            1.539141784510    -1.219268009594     0.000005337789    12.000000000000
         C            2.226842784510     0.000000990406     0.000008337789    12.000000000000
         H           -0.418493215490     2.170626990406    -0.000001662211     1.007825032230
         H           -0.418492215490    -2.170628009594    -0.000001662211     1.007825032230
         H            2.085769784510     2.156683990406     0.000007337789     1.007825032230
         H            2.085770784510    -2.156683009594     0.000007337789     1.007825032230
         H            3.312900784510     0.000000990406     0.000012337789     1.007825032230

  Basis Set: AUG-CC-PVTZ
    Blend: AUG-CC-PVTZ
  Basis Set: (AUG-CC-PVTZ AUX)
    Blend: AUG-CC-PVTZ-JKFIT
	 Reference Energy          =    -338.8439175653376196 [Eh]
	 Singles Energy            =      -0.0000000000000000 [Eh]
	 Same-Spin Energy          =      -0.3623751796170139 [Eh]
	 Opposite-Spin Energy      =      -1.1137180353961198 [Eh]
	 Correlation Energy        =      -1.4760932150131336 [Eh]
	 Total Energy              =    -340.3200107803507422 [Eh]

	 ================> DF-SCS-MP2 Energies <==================
	-----------------------------------------------------------
	 SCS Same-Spin Scale       =       0.3333333333333333 [-]
	 SCS Opposite-Spin Scale   =       1.2000000000000000 [-]
	 SCS Same-Spin Energy      =      -0.1207917265390046 [Eh]
	 SCS Opposite-Spin Energy  =      -1.3364616424753437 [Eh]
	 SCS Correlation Energy    =      -1.4572533690143483 [Eh]
	 SCS Total Energy          =    -340.3011709343519442 [Eh]
	-----------------------------------------------------------

  Dipole Moment: [D]
     X:    -1.0431      Y:    -0.0000      Z:    -0.0000     Total:     1.0431

*** Psi4 exiting successfully. Buy a developer a beer!
