                               Psi4 1.3.2 release

  ==> Input File <==

--------------------------------------------------------------------------
#psi4
#
memory 32 gb

molecule  {
1 1
  N        1.9347645    -0.0970575     0.0000187
  N        3.0749700     0.0000220    -0.0000560
  C        0.5473360    -0.0000170     0.0000140
  C       -0.0940020    -1.2473330     0.0000080
  C       -0.0939660     1.2473160     0.0000070
  C       -1.4853590    -1.2209880     0.0000050
  C       -1.4853240     1.2210110     0.0000030
  C       -2.1726170     0.0000220     0.0000020
  H        0.4692830    -2.1765740     0.0000100
  H        0.4693460     2.1765410     0.0000080
  H       -2.0338500    -2.1581340     0.0000040
  H       -2.0337860     2.1581750     0.0000020
  H       -3.2592660     0.0000380    -0.0000010
units angstrom
no_reorient  #important for SAPT in psi4, default
symmetry c1  #important for SAPT in psi4, default
}

set PROPERTIES_ORIGIN ["COM"]
properties('MP2/aug-cc-pvtz', properties = ['dipole'])
--------------------------------------------------------------------------

    Molecular point group: c1
  Charge       = 1
  Multiplicity = 1
  Basis Set: AUG-CC-PVTZ
    Blend: AUG-CC-PVTZ
  Basis Set: (AUG-CC-PVTZ AUX)
    Blend: AUG-CC-PVTZ-JKFIT

    Orbital Energies [Eh]
    ---------------------

    Doubly Occupied:

       1A    -15.989362     2A    -15.969105     3A    -11.516789
       4A    -11.460616     5A    -11.457952     6A    -11.439266
       7A    -11.426491     8A    -11.424207     9A     -1.709225
      10A     -1.396513    11A     -1.290653    12A     -1.223867
      13A     -1.133554    14A     -1.040118    15A     -0.975964
      16A     -0.920950    17A     -0.888317    18A     -0.884409
      19A     -0.877643    20A     -0.805949    21A     -0.801667
      22A     -0.790837    23A     -0.711027    24A     -0.701914
      25A     -0.695519    26A     -0.545338    27A     -0.533600

  @DF-RHF Final Energy:  -338.83858450748659

   => Energetics <=

    Nuclear Repulsion Energy =            313.3513588596970294
    One-Electron Energy =               -1067.1581804085385556
    Two-Electron Energy =                 414.9682370413549393
    Total Energy =                       -338.8385845074865870
  Basis Set: (AUG-CC-PVTZ AUX)
    Blend: AUG-CC-PVTZ-RI
    Molecular point group: c1

    Geometry (in Angstrom), charge = 1, multiplicity = 1:

       Center              X                  Y                   Z               Mass
    ------------   -----------------  -----------------  -----------------  -----------------
         N            1.874730980036    -0.084123867799     0.000018996393    14.003074004430
         N            3.014936480036     0.012955632201    -0.000055703607    14.003074004430
         C            0.487302480036     0.012916632201     0.000014296393    12.000000000000
         C           -0.154035519964    -1.234399367799     0.000008296393    12.000000000000
         C           -0.153999519964     1.260249632201     0.000007296393    12.000000000000
         C           -1.545392519964    -1.208054367799     0.000005296393    12.000000000000
         C           -1.545357519964     1.233944632201     0.000003296393    12.000000000000
         C           -2.232650519964     0.012955632201     0.000002296393    12.000000000000
         H            0.409249480036    -2.163640367799     0.000010296393     1.007825032230
         H            0.409312480036     2.189474632201     0.000008296393     1.007825032230
         H           -2.093883519964    -2.145200367799     0.000004296393     1.007825032230
         H           -2.093819519964     2.171108632201     0.000002296393     1.007825032230
         H           -3.319299519964     0.012971632201    -0.000000703607     1.007825032230

  Basis Set: AUG-CC-PVTZ
    Blend: AUG-CC-PVTZ
  Basis Set: (AUG-CC-PVTZ AUX)
    Blend: AUG-CC-PVTZ-JKFIT
	 Reference Energy          =    -338.8385845074865870 [Eh]
	 Singles Energy            =      -0.0000000000000000 [Eh]
	 Same-Spin Energy          =      -0.3638809552109622 [Eh]
	 Opposite-Spin Energy      =      -1.1167333640039590 [Eh]
	 Correlation Energy        =      -1.4806143192149213 [Eh]
	 Total Energy              =    -340.3191988267014949 [Eh]

	 ================> DF-SCS-MP2 Energies <==================
	-----------------------------------------------------------
	 SCS Same-Spin Scale       =       0.3333333333333333 [-]
	 SCS Opposite-Spin Scale   =       1.2000000000000000 [-]
	 SCS Same-Spin Energy      =      -0.1212936517369874 [Eh]
	 SCS Opposite-Spin Energy  =      -1.3400800368047507 [Eh]
	 SCS Correlation Energy    =      -1.4613736885417381 [Eh]
	 SCS Total Energy          =    -340.2999581960283422 [Eh]
	-----------------------------------------------------------

  Dipole Moment: [D]
     X:     0.8338      Y:    -0.0157      Z:     0.0000     Total:     0.8339

*** Psi4 exiting successfully. Buy a developer a beer!
