                               Psi4 1.3.2 release

  ==> Input File <==

--------------------------------------------------------------------------
#psi4
#
memory 32 gb

molecule  {
1 1
  N        1.9373060    -0.0485778     0.0000189
  N        3.0749700     0.0000220    -0.0000560
  C        0.5473360    -0.0000170     0.0000140
  C       -0.0940020    -1.2473330     0.0000080
  C       -0.0939660     1.2473160     0.0000070
  C       -1.4853590    -1.2209880     0.0000050
  C       -1.4853240     1.2210110     0.0000030
  C       -2.1726170     0.0000220     0.0000020
  H        0.4692830    -2.1765740     0.0000100
  H        0.4693460     2.1765410     0.0000080
  H       -2.0338500    -2.1581340     0.0000040
  H       -2.0337860     2.1581750     0.0000020
  H       -3.2592660     0.0000380    -0.0000010
units angstrom
no_reorient  #important for SAPT in psi4, default
symmetry c1  #important for SAPT in psi4, default
}

set PROPERTIES_ORIGIN ["COM"]
properties('MP2/aug-cc-pvtz', properties = ['dipole'])
--------------------------------------------------------------------------

    Molecular point group: c1
  Charge       = 1
  Multiplicity = 1
  Basis Set: AUG-CC-PVTZ
    Blend: AUG-CC-PVTZ
  Basis Set: (AUG-CC-PVTZ AUX)
    Blend: AUG-CC-PVTZ-JKFIT

    Orbital Energies [Eh]
    ---------------------

    Doubly Occupied:

       1A    -15.989262     2A    -15.967523     3A    -11.516780
       4A    -11.459937     5A    -11.458581     6A    -11.439020
       7A    -11.425870     8A    -11.424730     9A     -1.713436
      10A     -1.396901    11A     -1.290808    12A     -1.223881
      13A     -1.133681    14A     -1.040239    15A     -0.975704
      16A     -0.921028    17A     -0.890808    18A     -0.885784
      19A     -0.877832    20A     -0.806803    21A     -0.801644
      22A     -0.791149    23A     -0.710976    24A     -0.702180
      25A     -0.695611    26A     -0.545356    27A     -0.533549

  @DF-RHF Final Energy:  -338.84245894971724

   => Energetics <=

    Nuclear Repulsion Energy =            313.4363394518971404
    One-Electron Energy =               -1067.3194494497663527
    Two-Electron Energy =                 415.0406510481520286
    Total Energy =                       -338.8424589497172406
  Basis Set: (AUG-CC-PVTZ AUX)
    Blend: AUG-CC-PVTZ-RI
    Molecular point group: c1

    Geometry (in Angstrom), charge = 1, multiplicity = 1:

       Center              X                  Y                   Z               Mass
    ------------   -----------------  -----------------  -----------------  -----------------
         N            1.876933685044    -0.042106760606     0.000019169732    14.003074004430
         N            3.014597685044     0.006493039394    -0.000055730268    14.003074004430
         C            0.486963685044     0.006454039394     0.000014269732    12.000000000000
         C           -0.154374314956    -1.240861960606     0.000008269732    12.000000000000
         C           -0.154338314956     1.253787039394     0.000007269732    12.000000000000
         C           -1.545731314956    -1.214516960606     0.000005269732    12.000000000000
         C           -1.545696314956     1.227482039394     0.000003269732    12.000000000000
         C           -2.232989314956     0.006493039394     0.000002269732    12.000000000000
         H            0.408910685044    -2.170102960606     0.000010269732     1.007825032230
         H            0.408973685044     2.183012039394     0.000008269732     1.007825032230
         H           -2.094222314956    -2.151662960606     0.000004269732     1.007825032230
         H           -2.094158314956     2.164646039394     0.000002269732     1.007825032230
         H           -3.319638314956     0.006509039394    -0.000000730268     1.007825032230

  Basis Set: AUG-CC-PVTZ
    Blend: AUG-CC-PVTZ
  Basis Set: (AUG-CC-PVTZ AUX)
    Blend: AUG-CC-PVTZ-JKFIT
	 Reference Energy          =    -338.8424589497172406 [Eh]
	 Singles Energy            =      -0.0000000000000000 [Eh]
	 Same-Spin Energy          =      -0.3633476458884801 [Eh]
	 Opposite-Spin Energy      =      -1.1155077553431001 [Eh]
	 Correlation Energy        =      -1.4788554012315802 [Eh]
	 Total Energy              =    -340.3213143509487963 [Eh]

	 ================> DF-SCS-MP2 Energies <==================
	-----------------------------------------------------------
	 SCS Same-Spin Scale       =       0.3333333333333333 [-]
	 SCS Opposite-Spin Scale   =       1.2000000000000000 [-]
	 SCS Same-Spin Energy      =      -0.1211158819628267 [Eh]
	 SCS Opposite-Spin Energy  =      -1.3386093064117202 [Eh]
	 SCS Correlation Energy    =      -1.4597251883745468 [Eh]
	 SCS Total Energy          =    -340.3021841380917749 [Eh]
	-----------------------------------------------------------

  Dipole Moment: [D]
     X:     0.8293      Y:    -0.0080      Z:     0.0000     Total:     0.8294

*** Psi4 exiting successfully. Buy a developer a beer!
