                               Psi4 1.3.2 release

  ==> Input File <==

--------------------------------------------------------------------------
#psi4
#
memory 32 gb

molecule  {
1 1
  N        1.9381540    -0.0000390     0.0000190
  N        3.0687525    -0.0839479     0.0840253
  C        0.5473360    -0.0000170     0.0000140
  C       -0.0940020    -1.2473330     0.0000080
  C       -0.0939660     1.2473160     0.0000070
  C       -1.4853590    -1.2209880     0.0000050
  C       -1.4853240     1.2210110     0.0000030
  C       -2.1726170     0.0000220     0.0000020
  H        0.4692830    -2.1765740     0.0000100
  H        0.4693460     2.1765410     0.0000080
  H       -2.0338500    -2.1581340     0.0000040
  H       -2.0337860     2.1581750     0.0000020
  H       -3.2592660     0.0000380    -0.0000010
units angstrom
no_reorient  #important for SAPT in psi4, default
symmetry c1  #important for SAPT in psi4, default
}

set PROPERTIES_ORIGIN ["COM"]
properties('MP2/aug-cc-pvtz', properties = ['dipole'])
--------------------------------------------------------------------------

    Molecular point group: c1
  Charge       = 1
  Multiplicity = 1
  Basis Set: AUG-CC-PVTZ
    Blend: AUG-CC-PVTZ
  Basis Set: (AUG-CC-PVTZ AUX)
    Blend: AUG-CC-PVTZ-JKFIT

    Orbital Energies [Eh]
    ---------------------

    Doubly Occupied:

       1A    -15.989130     2A    -15.967264     3A    -11.516699
       4A    -11.459385     5A    -11.458916     6A    -11.438836
       7A    -11.425424     8A    -11.425049     9A     -1.715165
      10A     -1.396799    11A     -1.290679    12A     -1.223821
      13A     -1.133621    14A     -1.040233    15A     -0.975647
      16A     -0.921264    17A     -0.891793    18A     -0.886363
      19A     -0.877794    20A     -0.807077    21A     -0.801575
      22A     -0.791180    23A     -0.710886    24A     -0.702202
      25A     -0.695584    26A     -0.545254    27A     -0.533478

  @DF-RHF Final Energy:  -338.84319106014419

   => Energetics <=

    Nuclear Repulsion Energy =            313.5102765699365932
    One-Electron Energy =               -1067.4647031274018900
    Two-Electron Energy =                 415.1112354973210472
    Total Energy =                       -338.8431910601441928
  Basis Set: (AUG-CC-PVTZ AUX)
    Blend: AUG-CC-PVTZ-RI
    Molecular point group: c1

    Geometry (in Angstrom), charge = 1, multiplicity = 1:

       Center              X                  Y                   Z               Mass
    ------------   -----------------  -----------------  -----------------  -----------------
         N            1.878497466950     0.011155186855    -0.011189212393    14.003074004430
         N            3.009095966950    -0.072753713145     0.072817087607    14.003074004430
         C            0.487679466950     0.011177186855    -0.011194212393    12.000000000000
         C           -0.153658533050    -1.236138813145    -0.011200212393    12.000000000000
         C           -0.153622533050     1.258510186855    -0.011201212393    12.000000000000
         C           -1.545015533050    -1.209793813145    -0.011203212393    12.000000000000
         C           -1.544980533050     1.232205186855    -0.011205212393    12.000000000000
         C           -2.232273533050     0.011216186855    -0.011206212393    12.000000000000
         H            0.409626466950    -2.165379813145    -0.011198212393     1.007825032230
         H            0.409689466950     2.187735186855    -0.011200212393     1.007825032230
         H           -2.093506533050    -2.146939813145    -0.011204212393     1.007825032230
         H           -2.093442533050     2.169369186855    -0.011206212393     1.007825032230
         H           -3.318922533050     0.011232186855    -0.011209212393     1.007825032230

  Basis Set: AUG-CC-PVTZ
    Blend: AUG-CC-PVTZ
  Basis Set: (AUG-CC-PVTZ AUX)
    Blend: AUG-CC-PVTZ-JKFIT
	 Reference Energy          =    -338.8431910601441928 [Eh]
	 Singles Energy            =      -0.0000000000000000 [Eh]
	 Same-Spin Energy          =      -0.3631778613075889 [Eh]
	 Opposite-Spin Energy      =      -1.1151558061713702 [Eh]
	 Correlation Energy        =      -1.4783336674789591 [Eh]
	 Total Energy              =    -340.3215247276231707 [Eh]

	 ================> DF-SCS-MP2 Energies <==================
	-----------------------------------------------------------
	 SCS Same-Spin Scale       =       0.3333333333333333 [-]
	 SCS Opposite-Spin Scale   =       1.2000000000000000 [-]
	 SCS Same-Spin Energy      =      -0.1210592871025296 [Eh]
	 SCS Opposite-Spin Energy  =      -1.3381869674056441 [Eh]
	 SCS Correlation Energy    =      -1.4592462545081737 [Eh]
	 SCS Total Energy          =    -340.3024373146523658 [Eh]
	-----------------------------------------------------------

  Dipole Moment: [D]
     X:     0.8371      Y:     0.0191      Z:    -0.0108     Total:     0.8374

*** Psi4 exiting successfully. Buy a developer a beer!
