                               Psi4 1.3.2 release

  ==> Input File <==

--------------------------------------------------------------------------
#psi4
#
memory 32 gb

molecule  {
1 1
  N        1.9381540    -0.0000390     0.0000190
  N        3.0749700     0.0000220    -0.0000560
  C        0.3473360    -0.0000138     0.0000133
  C       -0.0940020    -1.2473330     0.0000080
  C       -0.0939660     1.2473160     0.0000070
  C       -1.4853590    -1.2209880     0.0000050
  C       -1.4853240     1.2210110     0.0000030
  C       -2.1726170     0.0000220     0.0000020
  H        0.4692830    -2.1765740     0.0000100
  H        0.4693460     2.1765410     0.0000080
  H       -2.0338500    -2.1581340     0.0000040
  H       -2.0337860     2.1581750     0.0000020
  H       -3.2592660     0.0000380    -0.0000010
units angstrom
no_reorient  #important for SAPT in psi4, default
symmetry c1  #important for SAPT in psi4, default
}

set PROPERTIES_ORIGIN ["COM"]
properties('MP2/aug-cc-pvtz', properties = ['dipole'])
--------------------------------------------------------------------------

    Molecular point group: c1
  Charge       = 1
  Multiplicity = 1
  Basis Set: AUG-CC-PVTZ
    Blend: AUG-CC-PVTZ
  Basis Set: (AUG-CC-PVTZ AUX)
    Blend: AUG-CC-PVTZ-JKFIT

    Orbital Energies [Eh]
    ---------------------

    Doubly Occupied:

       1A    -15.964369     2A    -15.959905     3A    -11.532136
       4A    -11.446965     5A    -11.446922     6A    -11.430234
       7A    -11.430099     8A    -11.425165     9A     -1.696129
      10A     -1.404398    11A     -1.254462    12A     -1.246095
      13A     -1.106628    14A     -1.047163    15A     -0.981623
      16A     -0.917607    17A     -0.868964    18A     -0.865754
      19A     -0.862597    20A     -0.841806    21A     -0.799926
      22A     -0.789694    23A     -0.731062    24A     -0.705521
      25A     -0.703799    26A     -0.547783    27A     -0.540512

  @DF-RHF Final Energy:  -338.82057343114820

   => Energetics <=

    Nuclear Repulsion Energy =            314.3638258705432236
    One-Electron Energy =               -1069.2741648143210114
    Two-Electron Energy =                 416.0897655126295831
    Total Energy =                       -338.8205734311482047
  Basis Set: (AUG-CC-PVTZ AUX)
    Blend: AUG-CC-PVTZ-RI
    Molecular point group: c1

    Geometry (in Angstrom), charge = 1, multiplicity = 1:

       Center              X                  Y                   Z               Mass
    ------------   -----------------  -----------------  -----------------  -----------------
         N            1.900515934012    -0.000038797304     0.000019336367    14.003074004430
         N            3.037331934012     0.000022202696    -0.000055663633    14.003074004430
         C            0.309697934012    -0.000013597304     0.000013636367    12.000000000000
         C           -0.131640065988    -1.247332797304     0.000008336367    12.000000000000
         C           -0.131604065988     1.247316202696     0.000007336367    12.000000000000
         C           -1.522997065988    -1.220987797304     0.000005336367    12.000000000000
         C           -1.522962065988     1.221011202696     0.000003336367    12.000000000000
         C           -2.210255065988     0.000022202696     0.000002336367    12.000000000000
         H            0.431644934012    -2.176573797304     0.000010336367     1.007825032230
         H            0.431707934012     2.176541202696     0.000008336367     1.007825032230
         H           -2.071488065988    -2.158133797304     0.000004336367     1.007825032230
         H           -2.071424065988     2.158175202696     0.000002336367     1.007825032230
         H           -3.296904065988     0.000038202696    -0.000000663633     1.007825032230

  Basis Set: AUG-CC-PVTZ
    Blend: AUG-CC-PVTZ
  Basis Set: (AUG-CC-PVTZ AUX)
    Blend: AUG-CC-PVTZ-JKFIT
	 Reference Energy          =    -338.8205734311482047 [Eh]
	 Singles Energy            =      -0.0000000000000000 [Eh]
	 Same-Spin Energy          =      -0.3614861045258793 [Eh]
	 Opposite-Spin Energy      =      -1.1129233012665003 [Eh]
	 Correlation Energy        =      -1.4744094057923796 [Eh]
	 Total Energy              =    -340.2949828369405623 [Eh]

	 ================> DF-SCS-MP2 Energies <==================
	-----------------------------------------------------------
	 SCS Same-Spin Scale       =       0.3333333333333333 [-]
	 SCS Opposite-Spin Scale   =       1.2000000000000000 [-]
	 SCS Same-Spin Energy      =      -0.1204953681752931 [Eh]
	 SCS Opposite-Spin Energy  =      -1.3355079615198002 [Eh]
	 SCS Correlation Energy    =      -1.4560033296950934 [Eh]
	 SCS Total Energy          =    -340.2765767608432839 [Eh]
	-----------------------------------------------------------

  Dipole Moment: [D]
     X:     1.0747      Y:    -0.0000      Z:     0.0000     Total:     1.0747

*** Psi4 exiting successfully. Buy a developer a beer!
