                               Psi4 1.3.2 release

  ==> Input File <==

--------------------------------------------------------------------------
#psi4
#
memory 32 gb

molecule  {
1 1
  N        1.9381540    -0.0000390     0.0000190
  N        3.1749700     0.0000274    -0.0000626
  C        0.5473360    -0.0000170     0.0000140
  C       -0.0940020    -1.2473330     0.0000080
  C       -0.0939660     1.2473160     0.0000070
  C       -1.4853590    -1.2209880     0.0000050
  C       -1.4853240     1.2210110     0.0000030
  C       -2.1726170     0.0000220     0.0000020
  H        0.4692830    -2.1765740     0.0000100
  H        0.4693460     2.1765410     0.0000080
  H       -2.0338500    -2.1581340     0.0000040
  H       -2.0337860     2.1581750     0.0000020
  H       -3.2592660     0.0000380    -0.0000010
units angstrom
no_reorient  #important for SAPT in psi4, default
symmetry c1  #important for SAPT in psi4, default
}

set PROPERTIES_ORIGIN ["COM"]
properties('MP2/aug-cc-pvtz', properties = ['dipole'])
--------------------------------------------------------------------------

    Molecular point group: c1
  Charge       = 1
  Multiplicity = 1
  Basis Set: AUG-CC-PVTZ
    Blend: AUG-CC-PVTZ
  Basis Set: (AUG-CC-PVTZ AUX)
    Blend: AUG-CC-PVTZ-JKFIT

    Orbital Energies [Eh]
    ---------------------

    Doubly Occupied:

       1A    -15.994721     2A    -15.984140     3A    -11.519654
       4A    -11.462857     5A    -11.462825     6A    -11.445838
       7A    -11.427816     8A    -11.427768     9A     -1.635836
      10A     -1.392232    11A     -1.290721    12A     -1.226673
      13A     -1.137708    14A     -1.041336    15A     -0.980874
      16A     -0.913671    17A     -0.878199    18A     -0.865256
      19A     -0.848723    20A     -0.803926    21A     -0.798766
      22A     -0.778017    23A     -0.714311    24A     -0.698427
      25A     -0.696981    26A     -0.546417    27A     -0.536198

  @DF-RHF Final Energy:  -338.79073295319790

   => Energetics <=

    Nuclear Repulsion Energy =            310.5907799016971467
    One-Electron Energy =               -1061.7432430942624251
    Two-Electron Energy =                 412.3617302393673754
    Total Energy =                       -338.7907329531979030
  Basis Set: (AUG-CC-PVTZ AUX)
    Blend: AUG-CC-PVTZ-RI
    Molecular point group: c1

    Geometry (in Angstrom), charge = 1, multiplicity = 1:

       Center              X                  Y                   Z               Mass
    ------------   -----------------  -----------------  -----------------  -----------------
         N            1.864338129093    -0.000039151595     0.000020136215    14.003074004430
         N            3.101154129093     0.000027248405    -0.000061463785    14.003074004430
         C            0.473520129093    -0.000017151595     0.000015136215    12.000000000000
         C           -0.167817870907    -1.247333151595     0.000009136215    12.000000000000
         C           -0.167781870907     1.247315848405     0.000008136215    12.000000000000
         C           -1.559174870907    -1.220988151595     0.000006136215    12.000000000000
         C           -1.559139870907     1.221010848405     0.000004136215    12.000000000000
         C           -2.246432870907     0.000021848405     0.000003136215    12.000000000000
         H            0.395467129093    -2.176574151595     0.000011136215     1.007825032230
         H            0.395530129093     2.176540848405     0.000009136215     1.007825032230
         H           -2.107665870907    -2.158134151595     0.000005136215     1.007825032230
         H           -2.107601870907     2.158174848405     0.000003136215     1.007825032230
         H           -3.333081870907     0.000037848405     0.000000136215     1.007825032230

  Basis Set: AUG-CC-PVTZ
    Blend: AUG-CC-PVTZ
  Basis Set: (AUG-CC-PVTZ AUX)
    Blend: AUG-CC-PVTZ-JKFIT
	 Reference Energy          =    -338.7907329531979030 [Eh]
	 Singles Energy            =      -0.0000000000000000 [Eh]
	 Same-Spin Energy          =      -0.3729603593505216 [Eh]
	 Opposite-Spin Energy      =      -1.1354960565315761 [Eh]
	 Correlation Energy        =      -1.5084564158820979 [Eh]
	 Total Energy              =    -340.2991893690800111 [Eh]

	 ================> DF-SCS-MP2 Energies <==================
	-----------------------------------------------------------
	 SCS Same-Spin Scale       =       0.3333333333333333 [-]
	 SCS Opposite-Spin Scale   =       1.2000000000000000 [-]
	 SCS Same-Spin Energy      =      -0.1243201197835072 [Eh]
	 SCS Opposite-Spin Energy  =      -1.3625952678378914 [Eh]
	 SCS Correlation Energy    =      -1.4869153876213987 [Eh]
	 SCS Total Energy          =    -340.2776483408193258 [Eh]
	-----------------------------------------------------------

  Dipole Moment: [D]
     X:     0.8789      Y:    -0.0000      Z:    -0.0000     Total:     0.8789

*** Psi4 exiting successfully. Buy a developer a beer!
