                               Psi4 1.4a3.dev225

  ==> Input File <==

--------------------------------------------------------------------------
#psi4
#
memory 32 gb

molecule  {
1 1
  N       -1.9377550    -0.0000010    -0.0000070
  N       -3.1216270     0.0000011    -0.0000112
  C       -0.5458680     0.0000000    -0.0000020
  C        0.0932850     1.2450350     0.0000000
  C        0.0932850    -1.2450360     0.0000000
  C        1.4845000     1.2192680     0.0000050
  C        1.4845010    -1.2192680     0.0000050
  C        2.1722020     0.0000010     0.0000080
  H       -0.4731340     2.1706270    -0.0000020
  H       -0.4731330    -2.1706280    -0.0000020
  H        2.0311290     2.1566840     0.0000070
  H        2.0311300    -2.1566830     0.0000070
  H        3.2582600     0.0000010     0.0000120
units angstrom
no_reorient  #important for SAPT in psi4, default
symmetry c1  #important for SAPT in psi4, default
}

set PROPERTIES_ORIGIN ["COM"]
properties('MP2/aug-cc-pvtz', properties = ['dipole'])
--------------------------------------------------------------------------

    Molecular point group: c1
  Charge       = 1
  Multiplicity = 1
  Basis Set: AUG-CC-PVTZ
    Blend: AUG-CC-PVTZ
  Basis Set: (AUG-CC-PVTZ AUX)
    Blend: AUG-CC-PVTZ-JKFIT

    Orbital Energies [Eh]
    ---------------------

    Doubly Occupied:

       1A    -15.993493     2A    -15.977338     3A    -11.517612
       4A    -11.459905     5A    -11.459873     6A    -11.441019
       7A    -11.426035     8A    -11.425979     9A     -1.677254
      10A     -1.395888    11A     -1.291164    12A     -1.225277
      13A     -1.135954    14A     -1.041311    15A     -0.978377
      16A     -0.918602    17A     -0.878553    18A     -0.874078
      19A     -0.871005    20A     -0.802874    21A     -0.801460
      22A     -0.789008    23A     -0.712452    24A     -0.701287
      25A     -0.696455    26A     -0.546093    27A     -0.534531

  @DF-RHF Final Energy:  -338.82241968256648

   => Energetics <=

    Nuclear Repulsion Energy =            312.2997067712894932
    One-Electron Energy =               -1065.0985012512435333
    Two-Electron Energy =                 413.9763747973875638
    Total Energy =                       -338.8224196825664762
  Basis Set: (AUG-CC-PVTZ AUX)
    Blend: AUG-CC-PVTZ-RI
    Molecular point group: c1

    Geometry (in Angstrom), charge = 1, multiplicity = 1:

       Center              X                  Y                   Z               Mass
    ------------   -----------------  -----------------  -----------------  -----------------
         N           -1.870737135960    -0.000001022925    -0.000006612702    14.003074004430
         N           -3.054609135960     0.000001077075    -0.000010812702    14.003074004430
         C           -0.478850135960    -0.000000022925    -0.000001612702    12.000000000000
         C            0.160302864040     1.245034977075     0.000000387298    12.000000000000
         C            0.160302864040    -1.245036022925     0.000000387298    12.000000000000
         C            1.551517864040     1.219267977075     0.000005387298    12.000000000000
         C            1.551518864040    -1.219268022925     0.000005387298    12.000000000000
         C            2.239219864040     0.000000977075     0.000008387298    12.000000000000
         H           -0.406116135960     2.170626977075    -0.000001612702     1.007825032230
         H           -0.406115135960    -2.170628022925    -0.000001612702     1.007825032230
         H            2.098146864040     2.156683977075     0.000007387298     1.007825032230
         H            2.098147864040    -2.156683022925     0.000007387298     1.007825032230
         H            3.325277864040     0.000000977075     0.000012387298     1.007825032230

  Basis Set: AUG-CC-PVTZ
    Blend: AUG-CC-PVTZ
  Basis Set: (AUG-CC-PVTZ AUX)
    Blend: AUG-CC-PVTZ-JKFIT
	 Reference Energy          =    -338.8224196825664762 [Eh]
	 Singles Energy            =      -0.0000000000000000 [Eh]
	 Same-Spin Energy          =      -0.3678361745925342 [Eh]
	 Opposite-Spin Energy      =      -1.1246579270884973 [Eh]
	 Correlation Energy        =      -1.4924941016810316 [Eh]
	 Total Energy              =    -340.3149137842474943 [Eh]

	 ================> DF-SCS-MP2 Energies <==================
	-----------------------------------------------------------
	 SCS Same-Spin Scale       =       0.3333333333333333 [-]
	 SCS Opposite-Spin Scale   =       1.2000000000000000 [-]
	 SCS Same-Spin Energy      =      -0.1226120581975114 [Eh]
	 SCS Opposite-Spin Energy  =      -1.3495895125061967 [Eh]
	 SCS Correlation Energy    =      -1.4722015707037082 [Eh]
	 SCS Total Energy          =    -340.2946212532701793 [Eh]
	-----------------------------------------------------------

  Dipole Moment: [D]
     X:    -0.7949      Y:    -0.0000      Z:    -0.0000     Total:     0.7949

*** Psi4 exiting successfully. Buy a developer a beer!
