                               Psi4 1.3.2 release

  ==> Input File <==

--------------------------------------------------------------------------
#psi4
#
memory 32 gb

molecule  {
1 1
  N        1.9381540    -0.0000390     0.0000190
  N        2.8749700     0.0000113    -0.0000428
  C        0.5473360    -0.0000170     0.0000140
  C       -0.0940020    -1.2473330     0.0000080
  C       -0.0939660     1.2473160     0.0000070
  C       -1.4853590    -1.2209880     0.0000050
  C       -1.4853240     1.2210110     0.0000030
  C       -2.1726170     0.0000220     0.0000020
  H        0.4692830    -2.1765740     0.0000100
  H        0.4693460     2.1765410     0.0000080
  H       -2.0338500    -2.1581340     0.0000040
  H       -2.0337860     2.1581750     0.0000020
  H       -3.2592660     0.0000380    -0.0000010
units angstrom
no_reorient  #important for SAPT in psi4, default
symmetry c1  #important for SAPT in psi4, default
}

set PROPERTIES_ORIGIN ["COM"]
properties('MP2/aug-cc-pvtz', properties = ['dipole'])
--------------------------------------------------------------------------

    Molecular point group: c1
  Charge       = 1
  Multiplicity = 1
  Basis Set: AUG-CC-PVTZ
    Blend: AUG-CC-PVTZ
  Basis Set: (AUG-CC-PVTZ AUX)
    Blend: AUG-CC-PVTZ-JKFIT

    Orbital Energies [Eh]
    ---------------------

    Doubly Occupied:

       1A    -15.957145     2A    -15.906767     3A    -11.512786
       4A    -11.455757     5A    -11.455726     6A    -11.432150
       7A    -11.423230     8A    -11.423143     9A     -1.882648
      10A     -1.401707    11A     -1.289832    12A     -1.221893
      13A     -1.128066    14A     -1.051537    15A     -1.002173
      16A     -0.974191    17A     -0.965638    18A     -0.922896
      19A     -0.877124    20A     -0.822012    21A     -0.799677
      22A     -0.791068    23A     -0.707941    24A     -0.707842
      25A     -0.694168    26A     -0.545745    27A     -0.531262

  @DF-RHF Final Energy:  -338.77837750405996

   => Energetics <=

    Nuclear Repulsion Energy =            320.5763295700339768
    One-Electron Energy =               -1080.9411666610330940
    Two-Electron Energy =                 421.5864595869391565
    Total Energy =                       -338.7783775040599608
  Basis Set: (AUG-CC-PVTZ AUX)
    Blend: AUG-CC-PVTZ-RI
    Molecular point group: c1

    Geometry (in Angstrom), charge = 1, multiplicity = 1:

       Center              X                  Y                   Z               Mass
    ------------   -----------------  -----------------  -----------------  -----------------
         N            1.904329668689    -0.000037005382     0.000017496774    14.003074004430
         N            2.841145668689     0.000013294618    -0.000044303226    14.003074004430
         C            0.513511668689    -0.000015005382     0.000012496774    12.000000000000
         C           -0.127826331311    -1.247331005382     0.000006496774    12.000000000000
         C           -0.127790331311     1.247317994618     0.000005496774    12.000000000000
         C           -1.519183331311    -1.220986005382     0.000003496774    12.000000000000
         C           -1.519148331311     1.221012994618     0.000001496774    12.000000000000
         C           -2.206441331311     0.000023994618     0.000000496774    12.000000000000
         H            0.435458668689    -2.176572005382     0.000008496774     1.007825032230
         H            0.435521668689     2.176542994618     0.000006496774     1.007825032230
         H           -2.067674331311    -2.158132005382     0.000002496774     1.007825032230
         H           -2.067610331311     2.158176994618     0.000000496774     1.007825032230
         H           -3.293090331311     0.000039994618    -0.000002503226     1.007825032230

  Basis Set: AUG-CC-PVTZ
    Blend: AUG-CC-PVTZ
  Basis Set: (AUG-CC-PVTZ AUX)
    Blend: AUG-CC-PVTZ-JKFIT
	 Reference Energy          =    -338.7783775040599608 [Eh]
	 Singles Energy            =      -0.0000000000000000 [Eh]
	 Same-Spin Energy          =      -0.3468872413521769 [Eh]
	 Opposite-Spin Energy      =      -1.0804160547894384 [Eh]
	 Correlation Energy        =      -1.4273032961416152 [Eh]
	 Total Energy              =    -340.2056808002015487 [Eh]

	 ================> DF-SCS-MP2 Energies <==================
	-----------------------------------------------------------
	 SCS Same-Spin Scale       =       0.3333333333333333 [-]
	 SCS Opposite-Spin Scale   =       1.2000000000000000 [-]
	 SCS Same-Spin Energy      =      -0.1156290804507256 [Eh]
	 SCS Opposite-Spin Energy  =      -1.2964992657473260 [Eh]
	 SCS Correlation Energy    =      -1.4121283461980516 [Eh]
	 SCS Total Energy          =    -340.1905058502580346 [Eh]
	-----------------------------------------------------------

  Dipole Moment: [D]
     X:     1.2755      Y:    -0.0001      Z:     0.0000     Total:     1.2755

*** Psi4 exiting successfully. Buy a developer a beer!
