                               Psi4 1.3.2 release

  ==> Input File <==

--------------------------------------------------------------------------
#psi4
#
memory 32 gb

molecule  {
1 1
  N        1.9381540    -0.0000390     0.0000190
  N        3.0722075    -0.0560148     0.0560551
  C        0.5473360    -0.0000170     0.0000140
  C       -0.0940020    -1.2473330     0.0000080
  C       -0.0939660     1.2473160     0.0000070
  C       -1.4853590    -1.2209880     0.0000050
  C       -1.4853240     1.2210110     0.0000030
  C       -2.1726170     0.0000220     0.0000020
  H        0.4692830    -2.1765740     0.0000100
  H        0.4693460     2.1765410     0.0000080
  H       -2.0338500    -2.1581340     0.0000040
  H       -2.0337860     2.1581750     0.0000020
  H       -3.2592660     0.0000380    -0.0000010
units angstrom
no_reorient  #important for SAPT in psi4, default
symmetry c1  #important for SAPT in psi4, default
}

set PROPERTIES_ORIGIN ["COM"]
properties('MP2/aug-cc-pvtz', properties = ['dipole'])
--------------------------------------------------------------------------

    Molecular point group: c1
  Charge       = 1
  Multiplicity = 1
  Basis Set: AUG-CC-PVTZ
    Blend: AUG-CC-PVTZ
  Basis Set: (AUG-CC-PVTZ AUX)
    Blend: AUG-CC-PVTZ-JKFIT

    Orbital Energies [Eh]
    ---------------------

    Doubly Occupied:

       1A    -15.989179     2A    -15.967106     3A    -11.516741
       4A    -11.459364     5A    -11.459050     6A    -11.438894
       7A    -11.425391     8A    -11.425137     9A     -1.714989
      10A     -1.396927    11A     -1.290780    12A     -1.223858
      13A     -1.133679    14A     -1.040260    15A     -0.975631
      16A     -0.921142    17A     -0.891711    18A     -0.886310
      19A     -0.877846    20A     -0.807087    21A     -0.801610
      22A     -0.791215    23A     -0.710927    24A     -0.702239
      25A     -0.695617    26A     -0.545315    27A     -0.533509

  @DF-RHF Final Energy:  -338.84349478675597

   => Energetics <=

    Nuclear Repulsion Energy =            313.4851537073571990
    One-Electron Energy =               -1067.4142679341489384
    Two-Electron Energy =                 415.0856194400357708
    Total Energy =                       -338.8434947867559686
  Basis Set: (AUG-CC-PVTZ AUX)
    Blend: AUG-CC-PVTZ-RI
    Molecular point group: c1

    Geometry (in Angstrom), charge = 1, multiplicity = 1:

       Center              X                  Y                   Z               Mass
    ------------   -----------------  -----------------  -----------------  -----------------
         N            1.878036897719     0.007431561273    -0.007460641190    14.003074004430
         N            3.012090397719    -0.048544238727     0.048575458810    14.003074004430
         C            0.487218897719     0.007453561273    -0.007465641190    12.000000000000
         C           -0.154119102281    -1.239862438727    -0.007471641190    12.000000000000
         C           -0.154083102281     1.254786561273    -0.007472641190    12.000000000000
         C           -1.545476102281    -1.213517438727    -0.007474641190    12.000000000000
         C           -1.545441102281     1.228481561273    -0.007476641190    12.000000000000
         C           -2.232734102281     0.007492561273    -0.007477641190    12.000000000000
         H            0.409165897719    -2.169103438727    -0.007469641190     1.007825032230
         H            0.409228897719     2.184011561273    -0.007471641190     1.007825032230
         H           -2.093967102281    -2.150663438727    -0.007475641190     1.007825032230
         H           -2.093903102281     2.165645561273    -0.007477641190     1.007825032230
         H           -3.319383102281     0.007508561273    -0.007480641190     1.007825032230

  Basis Set: AUG-CC-PVTZ
    Blend: AUG-CC-PVTZ
  Basis Set: (AUG-CC-PVTZ AUX)
    Blend: AUG-CC-PVTZ-JKFIT
	 Reference Energy          =    -338.8434947867559686 [Eh]
	 Singles Energy            =      -0.0000000000000000 [Eh]
	 Same-Spin Energy          =      -0.3631717027279412 [Eh]
	 Opposite-Spin Energy      =      -1.1151202549498302 [Eh]
	 Correlation Energy        =      -1.4782919576777716 [Eh]
	 Total Energy              =    -340.3217867444337230 [Eh]

	 ================> DF-SCS-MP2 Energies <==================
	-----------------------------------------------------------
	 SCS Same-Spin Scale       =       0.3333333333333333 [-]
	 SCS Opposite-Spin Scale   =       1.2000000000000000 [-]
	 SCS Same-Spin Energy      =      -0.1210572342426471 [Eh]
	 SCS Opposite-Spin Energy  =      -1.3381443059397962 [Eh]
	 SCS Correlation Energy    =      -1.4592015401824432 [Eh]
	 SCS Total Energy          =    -340.3026963269384169 [Eh]
	-----------------------------------------------------------

  Dipole Moment: [D]
     X:     0.8321      Y:     0.0128      Z:    -0.0072     Total:     0.8322

*** Psi4 exiting successfully. Buy a developer a beer!
