                               Psi4 1.3.2 release

  ==> Input File <==

--------------------------------------------------------------------------
#psi4
#
memory 32 gb

molecule  {
1 1
  N        1.9373075     0.0484999     0.0000191
  N        3.0749700     0.0000220    -0.0000560
  C        0.5473360    -0.0000170     0.0000140
  C       -0.0940020    -1.2473330     0.0000080
  C       -0.0939660     1.2473160     0.0000070
  C       -1.4853590    -1.2209880     0.0000050
  C       -1.4853240     1.2210110     0.0000030
  C       -2.1726170     0.0000220     0.0000020
  H        0.4692830    -2.1765740     0.0000100
  H        0.4693460     2.1765410     0.0000080
  H       -2.0338500    -2.1581340     0.0000040
  H       -2.0337860     2.1581750     0.0000020
  H       -3.2592660     0.0000380    -0.0000010
units angstrom
no_reorient  #important for SAPT in psi4, default
symmetry c1  #important for SAPT in psi4, default
}

set PROPERTIES_ORIGIN ["COM"]
properties('MP2/aug-cc-pvtz', properties = ['dipole'])
--------------------------------------------------------------------------

    Molecular point group: c1
  Charge       = 1
  Multiplicity = 1
  Basis Set: AUG-CC-PVTZ
    Blend: AUG-CC-PVTZ
  Basis Set: (AUG-CC-PVTZ AUX)
    Blend: AUG-CC-PVTZ-JKFIT

    Orbital Energies [Eh]
    ---------------------

    Doubly Occupied:

       1A    -15.989262     2A    -15.967521     3A    -11.516780
       4A    -11.459937     5A    -11.458581     6A    -11.439019
       7A    -11.425870     8A    -11.424731     9A     -1.713441
      10A     -1.396901    11A     -1.290808    12A     -1.223881
      13A     -1.133681    14A     -1.040239    15A     -0.975703
      16A     -0.921028    17A     -0.890811    18A     -0.885786
      19A     -0.877832    20A     -0.806804    21A     -0.801644
      22A     -0.791149    23A     -0.710976    24A     -0.702180
      25A     -0.695611    26A     -0.545356    27A     -0.533549

  @DF-RHF Final Energy:  -338.84246251938094

   => Energetics <=

    Nuclear Repulsion Energy =            313.4364726406045065
    One-Electron Energy =               -1067.3197034603624616
    Two-Electron Energy =                 415.0407683003770103
    Total Energy =                       -338.8424625193809447
  Basis Set: (AUG-CC-PVTZ AUX)
    Blend: AUG-CC-PVTZ-RI
    Molecular point group: c1

    Geometry (in Angstrom), charge = 1, multiplicity = 1:

       Center              X                  Y                   Z               Mass
    ------------   -----------------  -----------------  -----------------  -----------------
         N            1.876934985086     0.042029983782     0.000019343071    14.003074004430
         N            3.014597485086    -0.006447916218    -0.000055756929    14.003074004430
         C            0.486963485086    -0.006486916218     0.000014243071    12.000000000000
         C           -0.154374514914    -1.253802916218     0.000008243071    12.000000000000
         C           -0.154338514914     1.240846083782     0.000007243071    12.000000000000
         C           -1.545731514914    -1.227457916218     0.000005243071    12.000000000000
         C           -1.545696514914     1.214541083782     0.000003243071    12.000000000000
         C           -2.232989514914    -0.006447916218     0.000002243071    12.000000000000
         H            0.408910485086    -2.183043916218     0.000010243071     1.007825032230
         H            0.408973485086     2.170071083782     0.000008243071     1.007825032230
         H           -2.094222514914    -2.164603916218     0.000004243071     1.007825032230
         H           -2.094158514914     2.151705083782     0.000002243071     1.007825032230
         H           -3.319638514914    -0.006431916218    -0.000000756929     1.007825032230

  Basis Set: AUG-CC-PVTZ
    Blend: AUG-CC-PVTZ
  Basis Set: (AUG-CC-PVTZ AUX)
    Blend: AUG-CC-PVTZ-JKFIT
	 Reference Energy          =    -338.8424625193809447 [Eh]
	 Singles Energy            =      -0.0000000000000000 [Eh]
	 Same-Spin Energy          =      -0.3633470490002477 [Eh]
	 Opposite-Spin Energy      =      -1.1155063676472912 [Eh]
	 Correlation Energy        =      -1.4788534166475389 [Eh]
	 Total Energy              =    -340.3213159360284976 [Eh]

	 ================> DF-SCS-MP2 Energies <==================
	-----------------------------------------------------------
	 SCS Same-Spin Scale       =       0.3333333333333333 [-]
	 SCS Opposite-Spin Scale   =       1.2000000000000000 [-]
	 SCS Same-Spin Energy      =      -0.1211156830000825 [Eh]
	 SCS Opposite-Spin Energy  =      -1.3386076411767494 [Eh]
	 SCS Correlation Energy    =      -1.4597233241768319 [Eh]
	 SCS Total Energy          =    -340.3021858435577656 [Eh]
	-----------------------------------------------------------

  Dipole Moment: [D]
     X:     0.8293      Y:     0.0080      Z:     0.0000     Total:     0.8294

*** Psi4 exiting successfully. Buy a developer a beer!
