                               Psi4 1.3.2 release

  ==> Input File <==

--------------------------------------------------------------------------
#psi4
#
memory 32 gb

molecule  {
1 1
  N        1.9379418    -0.0243121     0.0000189
  N        3.0749700     0.0000220    -0.0000560
  C        0.5473360    -0.0000170     0.0000140
  C       -0.0940020    -1.2473330     0.0000080
  C       -0.0939660     1.2473160     0.0000070
  C       -1.4853590    -1.2209880     0.0000050
  C       -1.4853240     1.2210110     0.0000030
  C       -2.1726170     0.0000220     0.0000020
  H        0.4692830    -2.1765740     0.0000100
  H        0.4693460     2.1765410     0.0000080
  H       -2.0338500    -2.1581340     0.0000040
  H       -2.0337860     2.1581750     0.0000020
  H       -3.2592660     0.0000380    -0.0000010
units angstrom
no_reorient  #important for SAPT in psi4, default
symmetry c1  #important for SAPT in psi4, default
}

set PROPERTIES_ORIGIN ["COM"]
properties('MP2/aug-cc-pvtz', properties = ['dipole'])
--------------------------------------------------------------------------

    Molecular point group: c1
  Charge       = 1
  Multiplicity = 1
  Basis Set: AUG-CC-PVTZ
    Blend: AUG-CC-PVTZ
  Basis Set: (AUG-CC-PVTZ AUX)
    Blend: AUG-CC-PVTZ-JKFIT

    Orbital Energies [Eh]
    ---------------------

    Doubly Occupied:

       1A    -15.989230     2A    -15.967117     3A    -11.516777
       4A    -11.459595     5A    -11.458913     6A    -11.438960
       7A    -11.425575     8A    -11.425003     9A     -1.714495
      10A     -1.396998    11A     -1.290847    12A     -1.223886
      13A     -1.133714    14A     -1.040271    15A     -0.975639
      16A     -0.921040    17A     -0.891436    18A     -0.886145
      19A     -0.877874    20A     -0.807022    21A     -0.801639
      22A     -0.791221    23A     -0.710964    24A     -0.702247
      25A     -0.695635    26A     -0.545362    27A     -0.533538

  @DF-RHF Final Energy:  -338.84341785004358

   => Energetics <=

    Nuclear Repulsion Energy =            313.4578783869436052
    One-Electron Energy =               -1067.3603064998983427
    Two-Electron Energy =                 415.0590102629112152
    Total Energy =                       -338.8434178500435792
  Basis Set: (AUG-CC-PVTZ AUX)
    Blend: AUG-CC-PVTZ-RI
    Molecular point group: c1

    Geometry (in Angstrom), charge = 1, multiplicity = 1:

       Center              X                  Y                   Z               Mass
    ------------   -----------------  -----------------  -----------------  -----------------
         N            1.877484729641    -0.021075802948     0.000019169732    14.003074004430
         N            3.014512929641     0.003258297052    -0.000055730268    14.003074004430
         C            0.486878929641     0.003219297052     0.000014269732    12.000000000000
         C           -0.154459070359    -1.244096702948     0.000008269732    12.000000000000
         C           -0.154423070359     1.250552297052     0.000007269732    12.000000000000
         C           -1.545816070359    -1.217751702948     0.000005269732    12.000000000000
         C           -1.545781070359     1.224247297052     0.000003269732    12.000000000000
         C           -2.233074070359     0.003258297052     0.000002269732    12.000000000000
         H            0.408825929641    -2.173337702948     0.000010269732     1.007825032230
         H            0.408888929641     2.179777297052     0.000008269732     1.007825032230
         H           -2.094307070359    -2.154897702948     0.000004269732     1.007825032230
         H           -2.094243070359     2.161411297052     0.000002269732     1.007825032230
         H           -3.319723070359     0.003274297052    -0.000000730268     1.007825032230

  Basis Set: AUG-CC-PVTZ
    Blend: AUG-CC-PVTZ
  Basis Set: (AUG-CC-PVTZ AUX)
    Blend: AUG-CC-PVTZ-JKFIT
	 Reference Energy          =    -338.8434178500435792 [Eh]
	 Singles Energy            =      -0.0000000000000000 [Eh]
	 Same-Spin Energy          =      -0.3632121427658996 [Eh]
	 Opposite-Spin Energy      =      -1.1151958808035414 [Eh]
	 Correlation Energy        =      -1.4784080235694410 [Eh]
	 Total Energy              =    -340.3218258736130224 [Eh]

	 ================> DF-SCS-MP2 Energies <==================
	-----------------------------------------------------------
	 SCS Same-Spin Scale       =       0.3333333333333333 [-]
	 SCS Opposite-Spin Scale   =       1.2000000000000000 [-]
	 SCS Same-Spin Energy      =      -0.1210707142552999 [Eh]
	 SCS Opposite-Spin Energy  =      -1.3382350569642496 [Eh]
	 SCS Correlation Energy    =      -1.4593057712195494 [Eh]
	 SCS Total Energy          =    -340.3027236212631124 [Eh]
	-----------------------------------------------------------

  Dipole Moment: [D]
     X:     0.8284      Y:    -0.0040      Z:     0.0000     Total:     0.8284

*** Psi4 exiting successfully. Buy a developer a beer!
