                               Psi4 1.3.2 release

  ==> Input File <==

--------------------------------------------------------------------------
#psi4
#
memory 32 gb

molecule  {
1 1
  N        1.9381540    -0.0000390     0.0000190
  N        3.0747985    -0.0139978     0.0139824
  C        0.5473360    -0.0000170     0.0000140
  C       -0.0940020    -1.2473330     0.0000080
  C       -0.0939660     1.2473160     0.0000070
  C       -1.4853590    -1.2209880     0.0000050
  C       -1.4853240     1.2210110     0.0000030
  C       -2.1726170     0.0000220     0.0000020
  H        0.4692830    -2.1765740     0.0000100
  H        0.4693460     2.1765410     0.0000080
  H       -2.0338500    -2.1581340     0.0000040
  H       -2.0337860     2.1581750     0.0000020
  H       -3.2592660     0.0000380    -0.0000010
units angstrom
no_reorient  #important for SAPT in psi4, default
symmetry c1  #important for SAPT in psi4, default
}

set PROPERTIES_ORIGIN ["COM"]
properties('MP2/aug-cc-pvtz', properties = ['dipole'])
--------------------------------------------------------------------------

    Molecular point group: c1
  Charge       = 1
  Multiplicity = 1
  Basis Set: AUG-CC-PVTZ
    Blend: AUG-CC-PVTZ
  Basis Set: (AUG-CC-PVTZ AUX)
    Blend: AUG-CC-PVTZ-JKFIT

    Orbital Energies [Eh]
    ---------------------

    Doubly Occupied:

       1A    -15.989216     2A    -15.966989     3A    -11.516773
       4A    -11.459292     5A    -11.459208     6A    -11.438938
       7A    -11.425327     8A    -11.425241     9A     -1.714857
      10A     -1.397024    11A     -1.290856    12A     -1.223885
      13A     -1.133722    14A     -1.040280    15A     -0.975619
      16A     -0.921050    17A     -0.891650    18A     -0.886270
      19A     -0.877885    20A     -0.807095    21A     -0.801636
      22A     -0.791242    23A     -0.710958    24A     -0.702268
      25A     -0.695642    26A     -0.545361    27A     -0.533532

  @DF-RHF Final Energy:  -338.84372213071487

   => Energetics <=

    Nuclear Repulsion Energy =            313.4663484589870563
    One-Electron Energy =               -1067.3765098990979823
    Two-Electron Energy =                 415.0664393093960030
    Total Energy =                       -338.8437221307148661
  Basis Set: (AUG-CC-PVTZ AUX)
    Blend: AUG-CC-PVTZ-RI
    Molecular point group: c1

    Geometry (in Angstrom), charge = 1, multiplicity = 1:

       Center              X                  Y                   Z               Mass
    ------------   -----------------  -----------------  -----------------  -----------------
         N            1.877691504122     0.001830479543    -0.001852134363    14.003074004430
         N            3.014336004122    -0.012128320457     0.012111265637    14.003074004430
         C            0.486873504122     0.001852479543    -0.001857134363    12.000000000000
         C           -0.154464495878    -1.245463520457    -0.001863134363    12.000000000000
         C           -0.154428495878     1.249185479543    -0.001864134363    12.000000000000
         C           -1.545821495878    -1.219118520457    -0.001866134363    12.000000000000
         C           -1.545786495878     1.222880479543    -0.001868134363    12.000000000000
         C           -2.233079495878     0.001891479543    -0.001869134363    12.000000000000
         H            0.408820504122    -2.174704520457    -0.001861134363     1.007825032230
         H            0.408883504122     2.178410479543    -0.001863134363     1.007825032230
         H           -2.094312495878    -2.156264520457    -0.001867134363     1.007825032230
         H           -2.094248495878     2.160044479543    -0.001869134363     1.007825032230
         H           -3.319728495878     0.001907479543    -0.001872134363     1.007825032230

  Basis Set: AUG-CC-PVTZ
    Blend: AUG-CC-PVTZ
  Basis Set: (AUG-CC-PVTZ AUX)
    Blend: AUG-CC-PVTZ-JKFIT
	 Reference Energy          =    -338.8437221307148661 [Eh]
	 Singles Energy            =      -0.0000000000000000 [Eh]
	 Same-Spin Energy          =      -0.3631670062716736 [Eh]
	 Opposite-Spin Energy      =      -1.1150930422763787 [Eh]
	 Correlation Energy        =      -1.4782600485480524 [Eh]
	 Total Energy              =    -340.3219821792629318 [Eh]

	 ================> DF-SCS-MP2 Energies <==================
	-----------------------------------------------------------
	 SCS Same-Spin Scale       =       0.3333333333333333 [-]
	 SCS Opposite-Spin Scale   =       1.2000000000000000 [-]
	 SCS Same-Spin Energy      =      -0.1210556687572245 [Eh]
	 SCS Opposite-Spin Energy  =      -1.3381116507316544 [Eh]
	 SCS Correlation Energy    =      -1.4591673194888790 [Eh]
	 SCS Total Energy          =    -340.3028894502037360 [Eh]
	-----------------------------------------------------------

  Dipole Moment: [D]
     X:     0.8283      Y:     0.0032      Z:    -0.0018     Total:     0.8283

*** Psi4 exiting successfully. Buy a developer a beer!
