                               Psi4 1.3.2 release

  ==> Input File <==

--------------------------------------------------------------------------
#psi4
#
memory 32 gb

molecule  {
1 1
  N        1.9381540    -0.0000390     0.0000190
  N        3.0749700     0.0000220    -0.0000560
  C        0.5473360    -0.0000170     0.0000140
  C       -0.0940020    -1.2473330     0.0000080
  C       -0.0939660     1.2473160     0.0000070
  C       -1.4853590    -1.2209880     0.0000050
  C       -1.4853240     1.2210110     0.0000030
  C       -2.1726170     0.0000220     0.0000020
  H        0.4692830    -2.1765740     0.0000100
  H        0.4693460     2.1765410     0.0000080
  H       -2.0338500    -2.1581340     0.0000040
  H       -2.0337860     2.1581750     0.0000020
  H       -3.2592660     0.0000380    -0.0000010
units angstrom
no_reorient  #important for SAPT in psi4, default
symmetry c1  #important for SAPT in psi4, default
}

set PROPERTIES_ORIGIN ["COM"]
properties('MP2/aug-cc-pvtz', properties = ['dipole'])
--------------------------------------------------------------------------

    Molecular point group: c1
  Charge       = 1
  Multiplicity = 1
  Basis Set: AUG-CC-PVTZ
    Blend: AUG-CC-PVTZ
  Basis Set: (AUG-CC-PVTZ AUX)
    Blend: AUG-CC-PVTZ-JKFIT

    Orbital Energies [Eh]
    ---------------------

    Doubly Occupied:

       1A    -15.989219     2A    -15.966981     3A    -11.516775
       4A    -11.459268     5A    -11.459237     6A    -11.438940
       7A    -11.425316     8A    -11.425256     9A     -1.714849
      10A     -1.397030    11A     -1.290861    12A     -1.223887
      13A     -1.133725    14A     -1.040281    15A     -0.975618
      16A     -0.921044    17A     -0.891646    18A     -0.886267
      19A     -0.877888    20A     -0.807095    21A     -0.801638
      22A     -0.791244    23A     -0.710960    24A     -0.702269
      25A     -0.695643    26A     -0.545364    27A     -0.533534

  @DF-RHF Final Energy:  -338.84373713225398

   => Energetics <=

    Nuclear Repulsion Energy =            313.4651053126200964
    One-Electron Energy =               -1067.3740137597801549
    Two-Electron Energy =                 415.0651713149060242
    Total Energy =                       -338.8437371322539775
  Basis Set: (AUG-CC-PVTZ AUX)
    Blend: AUG-CC-PVTZ-RI
    Molecular point group: c1

    Geometry (in Angstrom), charge = 1, multiplicity = 1:

       Center              X                  Y                   Z               Mass
    ------------   -----------------  -----------------  -----------------  -----------------
         N            1.877668642292    -0.000038431747     0.000019256401    14.003074004430
         N            3.014484642292     0.000022568253    -0.000055743599    14.003074004430
         C            0.486850642292    -0.000016431747     0.000014256401    12.000000000000
         C           -0.154487357708    -1.247332431747     0.000008256401    12.000000000000
         C           -0.154451357708     1.247316568253     0.000007256401    12.000000000000
         C           -1.545844357708    -1.220987431747     0.000005256401    12.000000000000
         C           -1.545809357708     1.221011568253     0.000003256401    12.000000000000
         C           -2.233102357708     0.000022568253     0.000002256401    12.000000000000
         H            0.408797642292    -2.176573431747     0.000010256401     1.007825032230
         H            0.408860642292     2.176541568253     0.000008256401     1.007825032230
         H           -2.094335357708    -2.158133431747     0.000004256401     1.007825032230
         H           -2.094271357708     2.158175568253     0.000002256401     1.007825032230
         H           -3.319751357708     0.000038568253    -0.000000743599     1.007825032230

  Basis Set: AUG-CC-PVTZ
    Blend: AUG-CC-PVTZ
  Basis Set: (AUG-CC-PVTZ AUX)
    Blend: AUG-CC-PVTZ-JKFIT
	 Reference Energy          =    -338.8437371322539775 [Eh]
	 Singles Energy            =      -0.0000000000000000 [Eh]
	 Same-Spin Energy          =      -0.3631666977307501 [Eh]
	 Opposite-Spin Energy      =      -1.1150912365308283 [Eh]
	 Correlation Energy        =      -1.4782579342615785 [Eh]
	 Total Energy              =    -340.3219950665155693 [Eh]

	 ================> DF-SCS-MP2 Energies <==================
	-----------------------------------------------------------
	 SCS Same-Spin Scale       =       0.3333333333333333 [-]
	 SCS Opposite-Spin Scale   =       1.2000000000000000 [-]
	 SCS Same-Spin Energy      =      -0.1210555659102500 [Eh]
	 SCS Opposite-Spin Energy  =      -1.3381094838369940 [Eh]
	 SCS Correlation Energy    =      -1.4591650497472441 [Eh]
	 SCS Total Energy          =    -340.3029021820012190 [Eh]
	-----------------------------------------------------------

  Dipole Moment: [D]
     X:     0.8281      Y:    -0.0000      Z:     0.0000     Total:     0.8281

*** Psi4 exiting successfully. Buy a developer a beer!
