                               Psi4 1.3.2 release

  ==> Input File <==

--------------------------------------------------------------------------
#psi4
#
memory 32 gb

molecule  {
1 1
  N        1.9381540    -0.0000390     0.0000190
  N        3.0721941     0.0560585    -0.0561667
  C        0.5473360    -0.0000170     0.0000140
  C       -0.0940020    -1.2473330     0.0000080
  C       -0.0939660     1.2473160     0.0000070
  C       -1.4853590    -1.2209880     0.0000050
  C       -1.4853240     1.2210110     0.0000030
  C       -2.1726170     0.0000220     0.0000020
  H        0.4692830    -2.1765740     0.0000100
  H        0.4693460     2.1765410     0.0000080
  H       -2.0338500    -2.1581340     0.0000040
  H       -2.0337860     2.1581750     0.0000020
  H       -3.2592660     0.0000380    -0.0000010
units angstrom
no_reorient  #important for SAPT in psi4, default
symmetry c1  #important for SAPT in psi4, default
}

set PROPERTIES_ORIGIN ["COM"]
properties('MP2/aug-cc-pvtz', properties = ['dipole'])
--------------------------------------------------------------------------

    Molecular point group: c1
  Charge       = 1
  Multiplicity = 1
  Basis Set: AUG-CC-PVTZ
    Blend: AUG-CC-PVTZ
  Basis Set: (AUG-CC-PVTZ AUX)
    Blend: AUG-CC-PVTZ-JKFIT

    Orbital Energies [Eh]
    ---------------------

    Doubly Occupied:

       1A    -15.989179     2A    -15.967107     3A    -11.516741
       4A    -11.459365     5A    -11.459049     6A    -11.438894
       7A    -11.425391     8A    -11.425137     9A     -1.714990
      10A     -1.396927    11A     -1.290779    12A     -1.223858
      13A     -1.133678    14A     -1.040260    15A     -0.975631
      16A     -0.921142    17A     -0.891711    18A     -0.886310
      19A     -0.877846    20A     -0.807087    21A     -0.801610
      22A     -0.791215    23A     -0.710927    24A     -0.702239
      25A     -0.695617    26A     -0.545315    27A     -0.533509

  @DF-RHF Final Energy:  -338.84349339993742

   => Energetics <=

    Nuclear Repulsion Energy =            313.4852665918732555
    One-Electron Energy =               -1067.4144946015562709
    Two-Electron Energy =                 415.0857346097456002
    Total Energy =                       -338.8434933999374152
  Basis Set: (AUG-CC-PVTZ AUX)
    Blend: AUG-CC-PVTZ-RI
    Molecular point group: c1

    Geometry (in Angstrom), charge = 1, multiplicity = 1:

       Center              X                  Y                   Z               Mass
    ------------   -----------------  -----------------  -----------------  -----------------
         N            1.878038684007    -0.007508384775     0.007499100671    14.003074004430
         N            3.012078784007     0.048589115225    -0.048686599329    14.003074004430
         C            0.487220684007    -0.007486384775     0.007494100671    12.000000000000
         C           -0.154117315993    -1.254802384775     0.007488100671    12.000000000000
         C           -0.154081315993     1.239846615225     0.007487100671    12.000000000000
         C           -1.545474315993    -1.228457384775     0.007485100671    12.000000000000
         C           -1.545439315993     1.213541615225     0.007483100671    12.000000000000
         C           -2.232732315993    -0.007447384775     0.007482100671    12.000000000000
         H            0.409167684007    -2.184043384775     0.007490100671     1.007825032230
         H            0.409230684007     2.169071615225     0.007488100671     1.007825032230
         H           -2.093965315993    -2.165603384775     0.007484100671     1.007825032230
         H           -2.093901315993     2.150705615225     0.007482100671     1.007825032230
         H           -3.319381315993    -0.007431384775     0.007479100671     1.007825032230

  Basis Set: AUG-CC-PVTZ
    Blend: AUG-CC-PVTZ
  Basis Set: (AUG-CC-PVTZ AUX)
    Blend: AUG-CC-PVTZ-JKFIT
	 Reference Energy          =    -338.8434933999374152 [Eh]
	 Singles Energy            =      -0.0000000000000000 [Eh]
	 Same-Spin Energy          =      -0.3631717323295542 [Eh]
	 Opposite-Spin Energy      =      -1.1151204214408961 [Eh]
	 Correlation Energy        =      -1.4782921537704503 [Eh]
	 Total Energy              =    -340.3217855537078549 [Eh]

	 ================> DF-SCS-MP2 Energies <==================
	-----------------------------------------------------------
	 SCS Same-Spin Scale       =       0.3333333333333333 [-]
	 SCS Opposite-Spin Scale   =       1.2000000000000000 [-]
	 SCS Same-Spin Energy      =      -0.1210572441098514 [Eh]
	 SCS Opposite-Spin Energy  =      -1.3381445057290753 [Eh]
	 SCS Correlation Energy    =      -1.4592017498389267 [Eh]
	 SCS Total Energy          =    -340.3026951497763548 [Eh]
	-----------------------------------------------------------

  Dipole Moment: [D]
     X:     0.8321      Y:    -0.0128      Z:     0.0072     Total:     0.8322

*** Psi4 exiting successfully. Buy a developer a beer!
