                               Psi4 1.3.2 release

  ==> Input File <==

--------------------------------------------------------------------------
#psi4
#
memory 32 gb

molecule  {
1 1
  N        1.9381540    -0.0000390     0.0000190
  N        3.0749700     0.0000220    -0.0000560
  C        0.7473360    -0.0000202     0.0000147
  C       -0.0940020    -1.2473330     0.0000080
  C       -0.0939660     1.2473160     0.0000070
  C       -1.4853590    -1.2209880     0.0000050
  C       -1.4853240     1.2210110     0.0000030
  C       -2.1726170     0.0000220     0.0000020
  H        0.4692830    -2.1765740     0.0000100
  H        0.4693460     2.1765410     0.0000080
  H       -2.0338500    -2.1581340     0.0000040
  H       -2.0337860     2.1581750     0.0000020
  H       -3.2592660     0.0000380    -0.0000010
units angstrom
no_reorient  #important for SAPT in psi4, default
symmetry c1  #important for SAPT in psi4, default
}

set PROPERTIES_ORIGIN ["COM"]
properties('MP2/aug-cc-pvtz', properties = ['dipole'])
--------------------------------------------------------------------------

    Molecular point group: c1
  Charge       = 1
  Multiplicity = 1
  Basis Set: AUG-CC-PVTZ
    Blend: AUG-CC-PVTZ
  Basis Set: (AUG-CC-PVTZ AUX)
    Blend: AUG-CC-PVTZ-JKFIT

    Orbital Energies [Eh]
    ---------------------

    Doubly Occupied:

       1A    -15.959376     2A    -15.917915     3A    -11.501389
       4A    -11.486726     5A    -11.486689     6A    -11.469631
       7A    -11.434175     8A    -11.434145     9A     -1.704791
      10A     -1.426688    11A     -1.323296    12A     -1.222836
      13A     -1.151089    14A     -1.041053    15A     -0.972640
      16A     -0.903487    17A     -0.898357    18A     -0.898110
      19A     -0.888907    20A     -0.808909    21A     -0.797790
      22A     -0.776335    23A     -0.731384    24A     -0.685333
      25A     -0.676203    26A     -0.549043    27A     -0.540823

  @DF-RHF Final Energy:  -338.79101228093225

   => Energetics <=

    Nuclear Repulsion Energy =            313.3405552730625345
    One-Electron Energy =               -1066.8888911817102780
    Two-Electron Energy =                 414.7573236277154365
    Total Energy =                       -338.7910122809322502
  Basis Set: (AUG-CC-PVTZ AUX)
    Blend: AUG-CC-PVTZ-RI
    Molecular point group: c1

    Geometry (in Angstrom), charge = 1, multiplicity = 1:

       Center              X                  Y                   Z               Mass
    ------------   -----------------  -----------------  -----------------  -----------------
         N            1.854821350571    -0.000038066190     0.000019176436    14.003074004430
         N            2.991637350571     0.000022933810    -0.000055823564    14.003074004430
         C            0.664003350571    -0.000019266190     0.000014876436    12.000000000000
         C           -0.177334649429    -1.247332066190     0.000008176436    12.000000000000
         C           -0.177298649429     1.247316933810     0.000007176436    12.000000000000
         C           -1.568691649429    -1.220987066190     0.000005176436    12.000000000000
         C           -1.568656649429     1.221011933810     0.000003176436    12.000000000000
         C           -2.255949649429     0.000022933810     0.000002176436    12.000000000000
         H            0.385950350571    -2.176573066190     0.000010176436     1.007825032230
         H            0.386013350571     2.176541933810     0.000008176436     1.007825032230
         H           -2.117182649429    -2.158133066190     0.000004176436     1.007825032230
         H           -2.117118649429     2.158175933810     0.000002176436     1.007825032230
         H           -3.342598649429     0.000038933810    -0.000000823564     1.007825032230

  Basis Set: AUG-CC-PVTZ
    Blend: AUG-CC-PVTZ
  Basis Set: (AUG-CC-PVTZ AUX)
    Blend: AUG-CC-PVTZ-JKFIT
	 Reference Energy          =    -338.7910122809322502 [Eh]
	 Singles Energy            =      -0.0000000000000000 [Eh]
	 Same-Spin Energy          =      -0.3633663426131255 [Eh]
	 Opposite-Spin Energy      =      -1.1158834288254074 [Eh]
	 Correlation Energy        =      -1.4792497714385329 [Eh]
	 Total Energy              =    -340.2702620523708106 [Eh]

	 ================> DF-SCS-MP2 Energies <==================
	-----------------------------------------------------------
	 SCS Same-Spin Scale       =       0.3333333333333333 [-]
	 SCS Opposite-Spin Scale   =       1.2000000000000000 [-]
	 SCS Same-Spin Energy      =      -0.1211221142043752 [Eh]
	 SCS Opposite-Spin Energy  =      -1.3390601145904888 [Eh]
	 SCS Correlation Energy    =      -1.4601822287948640 [Eh]
	 SCS Total Energy          =    -340.2511945097270996 [Eh]
	-----------------------------------------------------------

  Dipole Moment: [D]
     X:    -0.2675      Y:    -0.0000      Z:     0.0000     Total:     0.2675

*** Psi4 exiting successfully. Buy a developer a beer!
