                               Psi4 1.4a3.dev225

  ==> Input File <==

--------------------------------------------------------------------------
#psi4
#
memory 32 gb

molecule  {
1 1
  N       -1.9377550    -0.0000010    -0.0000070
  N       -3.0916270     0.0000010    -0.0000111
  C       -0.5458680     0.0000000    -0.0000020
  C        0.0932850     1.2450350     0.0000000
  C        0.0932850    -1.2450360     0.0000000
  C        1.4845000     1.2192680     0.0000050
  C        1.4845010    -1.2192680     0.0000050
  C        2.1722020     0.0000010     0.0000080
  H       -0.4731340     2.1706270    -0.0000020
  H       -0.4731330    -2.1706280    -0.0000020
  H        2.0311290     2.1566840     0.0000070
  H        2.0311300    -2.1566830     0.0000070
  H        3.2582600     0.0000010     0.0000120
units angstrom
no_reorient  #important for SAPT in psi4, default
symmetry c1  #important for SAPT in psi4, default
}

set PROPERTIES_ORIGIN ["COM"]
properties('MP2/aug-cc-pvtz', properties = ['dipole'])
--------------------------------------------------------------------------

    Molecular point group: c1
  Charge       = 1
  Multiplicity = 1
  Basis Set: AUG-CC-PVTZ
    Blend: AUG-CC-PVTZ
  Basis Set: (AUG-CC-PVTZ AUX)
    Blend: AUG-CC-PVTZ-JKFIT

    Orbital Energies [Eh]
    ---------------------

    Doubly Occupied:

       1A    -15.991170     2A    -15.971374     3A    -11.516797
       4A    -11.458944     5A    -11.458912     6A    -11.439183
       7A    -11.425376     8A    -11.425316     9A     -1.701283
      10A     -1.397193    11A     -1.291148    12A     -1.224550
      13A     -1.134799    14A     -1.041139    15A     -0.976796
      16A     -0.920567    17A     -0.884137    18A     -0.881404
      19A     -0.878412    20A     -0.805250    21A     -0.802268
      22A     -0.791090    23A     -0.711564    24A     -0.702416
      25A     -0.696060    26A     -0.545896    27A     -0.533829

  @DF-RHF Final Energy:  -338.83708219253225

   => Energetics <=

    Nuclear Repulsion Energy =            313.1813691000341464
    One-Electron Energy =               -1066.8231525938756477
    Two-Electron Energy =                 414.8047013013093078
    Total Energy =                       -338.8370821925322502
  Basis Set: (AUG-CC-PVTZ AUX)
    Blend: AUG-CC-PVTZ-RI
    Molecular point group: c1

    Geometry (in Angstrom), charge = 1, multiplicity = 1:

       Center              X                  Y                   Z               Mass
    ------------   -----------------  -----------------  -----------------  -----------------
         N           -1.874736289920    -0.000001009594    -0.000006626033    14.003074004430
         N           -3.028608289920     0.000000990406    -0.000010726033    14.003074004430
         C           -0.482849289920    -0.000000009594    -0.000001626033    12.000000000000
         C            0.156303710080     1.245034990406     0.000000373967    12.000000000000
         C            0.156303710080    -1.245036009594     0.000000373967    12.000000000000
         C            1.547518710080     1.219267990406     0.000005373967    12.000000000000
         C            1.547519710080    -1.219268009594     0.000005373967    12.000000000000
         C            2.235220710080     0.000000990406     0.000008373967    12.000000000000
         H           -0.410115289920     2.170626990406    -0.000001626033     1.007825032230
         H           -0.410114289920    -2.170628009594    -0.000001626033     1.007825032230
         H            2.094147710080     2.156683990406     0.000007373967     1.007825032230
         H            2.094148710080    -2.156683009594     0.000007373967     1.007825032230
         H            3.321278710080     0.000000990406     0.000012373967     1.007825032230

  Basis Set: AUG-CC-PVTZ
    Blend: AUG-CC-PVTZ
  Basis Set: (AUG-CC-PVTZ AUX)
    Blend: AUG-CC-PVTZ-JKFIT
	 Reference Energy          =    -338.8370821925322502 [Eh]
	 Singles Energy            =      -0.0000000000000000 [Eh]
	 Same-Spin Energy          =      -0.3648411256485840 [Eh]
	 Opposite-Spin Energy      =      -1.1184520486125058 [Eh]
	 Correlation Energy        =      -1.4832931742610898 [Eh]
	 Total Energy              =    -340.3203753667933142 [Eh]

	 ================> DF-SCS-MP2 Energies <==================
	-----------------------------------------------------------
	 SCS Same-Spin Scale       =       0.3333333333333333 [-]
	 SCS Opposite-Spin Scale   =       1.2000000000000000 [-]
	 SCS Same-Spin Energy      =      -0.1216137085495280 [Eh]
	 SCS Opposite-Spin Energy  =      -1.3421424583350070 [Eh]
	 SCS Correlation Energy    =      -1.4637561668845349 [Eh]
	 SCS Total Energy          =    -340.3008383594167867 [Eh]
	-----------------------------------------------------------

  Dipole Moment: [D]
     X:    -0.8185      Y:    -0.0000      Z:    -0.0000     Total:     0.8185

*** Psi4 exiting successfully. Buy a developer a beer!
