                               Psi4 1.4a3.dev225

  ==> Input File <==

--------------------------------------------------------------------------
#psi4
#
memory 32 gb

molecule  {
1 1
  N       -1.9377550    -0.0000010    -0.0000070
  N       -3.0216270     0.0000009    -0.0000108
  C       -0.5458680     0.0000000    -0.0000020
  C        0.0932850     1.2450350     0.0000000
  C        0.0932850    -1.2450360     0.0000000
  C        1.4845000     1.2192680     0.0000050
  C        1.4845010    -1.2192680     0.0000050
  C        2.1722020     0.0000010     0.0000080
  H       -0.4731340     2.1706270    -0.0000020
  H       -0.4731330    -2.1706280    -0.0000020
  H        2.0311290     2.1566840     0.0000070
  H        2.0311300    -2.1566830     0.0000070
  H        3.2582600     0.0000010     0.0000120
units angstrom
no_reorient  #important for SAPT in psi4, default
symmetry c1  #important for SAPT in psi4, default
}

set PROPERTIES_ORIGIN ["COM"]
properties('MP2/aug-cc-pvtz', properties = ['dipole'])
--------------------------------------------------------------------------

    Molecular point group: c1
  Charge       = 1
  Multiplicity = 1
  Basis Set: AUG-CC-PVTZ
    Blend: AUG-CC-PVTZ
  Basis Set: (AUG-CC-PVTZ AUX)
    Blend: AUG-CC-PVTZ-JKFIT

    Orbital Energies [Eh]
    ---------------------

    Doubly Occupied:

       1A    -15.982788     2A    -15.953840     3A    -11.515127
       4A    -11.457190     5A    -11.457158     6A    -11.435836
       7A    -11.424225     8A    -11.424155     9A     -1.759291
      10A     -1.399622    11A     -1.290934    12A     -1.223315
      13A     -1.132379    14A     -1.041706    15A     -0.973047
      16A     -0.923643    17A     -0.917312    18A     -0.905257
      19A     -0.878037    20A     -0.813936    21A     -0.801206
      22A     -0.791810    23A     -0.709970    24A     -0.704799
      25A     -0.695295    26A     -0.545787    27A     -0.532596

  @DF-RHF Final Energy:  -338.85726732703557

   => Energetics <=

    Nuclear Repulsion Energy =            315.3816291792498419
    One-Electron Energy =               -1071.0972688073686641
    Two-Electron Energy =                 416.8583723010833069
    Total Energy =                       -338.8572673270355722
  Basis Set: (AUG-CC-PVTZ AUX)
    Blend: AUG-CC-PVTZ-RI
    Molecular point group: c1

    Geometry (in Angstrom), charge = 1, multiplicity = 1:

       Center              X                  Y                   Z               Mass
    ------------   -----------------  -----------------  -----------------  -----------------
         N           -1.884067649159    -0.000000996264    -0.000006666024    14.003074004430
         N           -2.967939649159     0.000000903736    -0.000010466024    14.003074004430
         C           -0.492180649159     0.000000003736    -0.000001666024    12.000000000000
         C            0.146972350841     1.245035003736     0.000000333976    12.000000000000
         C            0.146972350841    -1.245035996264     0.000000333976    12.000000000000
         C            1.538187350841     1.219268003736     0.000005333976    12.000000000000
         C            1.538188350841    -1.219267996264     0.000005333976    12.000000000000
         C            2.225889350841     0.000001003736     0.000008333976    12.000000000000
         H           -0.419446649159     2.170627003736    -0.000001666024     1.007825032230
         H           -0.419445649159    -2.170627996264    -0.000001666024     1.007825032230
         H            2.084816350841     2.156684003736     0.000007333976     1.007825032230
         H            2.084817350841    -2.156682996264     0.000007333976     1.007825032230
         H            3.311947350841     0.000001003736     0.000012333976     1.007825032230

  Basis Set: AUG-CC-PVTZ
    Blend: AUG-CC-PVTZ
  Basis Set: (AUG-CC-PVTZ AUX)
    Blend: AUG-CC-PVTZ-JKFIT
	 Reference Energy          =    -338.8572673270355722 [Eh]
	 Singles Energy            =      -0.0000000000000000 [Eh]
	 Same-Spin Energy          =      -0.3581824472134514 [Eh]
	 Opposite-Spin Energy      =      -1.1046379978470979 [Eh]
	 Correlation Energy        =      -1.4628204450605493 [Eh]
	 Total Energy              =    -340.3200877720961444 [Eh]

	 ================> DF-SCS-MP2 Energies <==================
	-----------------------------------------------------------
	 SCS Same-Spin Scale       =       0.3333333333333333 [-]
	 SCS Opposite-Spin Scale   =       1.2000000000000000 [-]
	 SCS Same-Spin Energy      =      -0.1193941490711505 [Eh]
	 SCS Opposite-Spin Energy  =      -1.3255655974165175 [Eh]
	 SCS Correlation Energy    =      -1.4449597464876680 [Eh]
	 SCS Total Energy          =    -340.3022270735232269 [Eh]
	-----------------------------------------------------------

  Dipole Moment: [D]
     X:    -0.9628      Y:    -0.0000      Z:    -0.0000     Total:     0.9628

*** Psi4 exiting successfully. Buy a developer a beer!
