                               Psi4 1.3.2 release

  ==> Input File <==

--------------------------------------------------------------------------
#psi4
#
memory 32 gb

molecule  {
1 1
  N        1.9381540    -0.0000390     0.0000190
  N        3.0742741     0.0280574    -0.0281285
  C        0.5473360    -0.0000170     0.0000140
  C       -0.0940020    -1.2473330     0.0000080
  C       -0.0939660     1.2473160     0.0000070
  C       -1.4853590    -1.2209880     0.0000050
  C       -1.4853240     1.2210110     0.0000030
  C       -2.1726170     0.0000220     0.0000020
  H        0.4692830    -2.1765740     0.0000100
  H        0.4693460     2.1765410     0.0000080
  H       -2.0338500    -2.1581340     0.0000040
  H       -2.0337860     2.1581750     0.0000020
  H       -3.2592660     0.0000380    -0.0000010
units angstrom
no_reorient  #important for SAPT in psi4, default
symmetry c1  #important for SAPT in psi4, default
}

set PROPERTIES_ORIGIN ["COM"]
properties('MP2/aug-cc-pvtz', properties = ['dipole'])
--------------------------------------------------------------------------

    Molecular point group: c1
  Charge       = 1
  Multiplicity = 1
  Basis Set: AUG-CC-PVTZ
    Blend: AUG-CC-PVTZ
  Basis Set: (AUG-CC-PVTZ AUX)
    Blend: AUG-CC-PVTZ-JKFIT

    Orbital Energies [Eh]
    ---------------------

    Doubly Occupied:

       1A    -15.989209     2A    -15.967012     3A    -11.516767
       4A    -11.459321     5A    -11.459161     6A    -11.438929
       7A    -11.425349     8A    -11.425211     9A     -1.714884
      10A     -1.397004    11A     -1.290840    12A     -1.223880
      13A     -1.133713    14A     -1.040276    15A     -0.975621
      16A     -0.921069    17A     -0.891662    18A     -0.886278
      19A     -0.877877    20A     -0.807093    21A     -0.801631
      22A     -0.791237    23A     -0.710952    24A     -0.702262
      25A     -0.695637    26A     -0.545352    27A     -0.533528

  @DF-RHF Final Energy:  -338.84367605661663

   => Energetics <=

    Nuclear Repulsion Energy =            313.4701595091621016
    One-Electron Energy =               -1067.3841622918812391
    Two-Electron Energy =                 415.0703267261024507
    Total Energy =                       -338.8436760566166299
  Basis Set: (AUG-CC-PVTZ AUX)
    Blend: AUG-CC-PVTZ-RI
    Molecular point group: c1

    Geometry (in Angstrom), charge = 1, multiplicity = 1:

       Center              X                  Y                   Z               Mass
    ------------   -----------------  -----------------  -----------------  -----------------
         N            1.877761409333    -0.003775694444     0.003761464719    14.003074004430
         N            3.013881509333     0.024320705556    -0.024386035281    14.003074004430
         C            0.486943409333    -0.003753694444     0.003756464719    12.000000000000
         C           -0.154394590667    -1.251069694444     0.003750464719    12.000000000000
         C           -0.154358590667     1.243579305556     0.003749464719    12.000000000000
         C           -1.545751590667    -1.224724694444     0.003747464719    12.000000000000
         C           -1.545716590667     1.217274305556     0.003745464719    12.000000000000
         C           -2.233009590667    -0.003714694444     0.003744464719    12.000000000000
         H            0.408890409333    -2.180310694444     0.003752464719     1.007825032230
         H            0.408953409333     2.172804305556     0.003750464719     1.007825032230
         H           -2.094242590667    -2.161870694444     0.003746464719     1.007825032230
         H           -2.094178590667     2.154438305556     0.003744464719     1.007825032230
         H           -3.319658590667    -0.003698694444     0.003741464719     1.007825032230

  Basis Set: AUG-CC-PVTZ
    Blend: AUG-CC-PVTZ
  Basis Set: (AUG-CC-PVTZ AUX)
    Blend: AUG-CC-PVTZ-JKFIT
	 Reference Energy          =    -338.8436760566166299 [Eh]
	 Singles Energy            =      -0.0000000000000000 [Eh]
	 Same-Spin Energy          =      -0.3631679636956665 [Eh]
	 Opposite-Spin Energy      =      -1.1150985982229589 [Eh]
	 Correlation Energy        =      -1.4782665619186255 [Eh]
	 Total Energy              =    -340.3219426185352745 [Eh]

	 ================> DF-SCS-MP2 Energies <==================
	-----------------------------------------------------------
	 SCS Same-Spin Scale       =       0.3333333333333333 [-]
	 SCS Opposite-Spin Scale   =       1.2000000000000000 [-]
	 SCS Same-Spin Energy      =      -0.1210559878985555 [Eh]
	 SCS Opposite-Spin Energy  =      -1.3381183178675506 [Eh]
	 SCS Correlation Energy    =      -1.4591743057661062 [Eh]
	 SCS Total Energy          =    -340.3028503623827419 [Eh]
	-----------------------------------------------------------

  Dipole Moment: [D]
     X:     0.8291      Y:    -0.0064      Z:     0.0036     Total:     0.8291

*** Psi4 exiting successfully. Buy a developer a beer!
