                               Psi4 1.4a3.dev225

  ==> Input File <==

--------------------------------------------------------------------------
#psi4
#
memory 32 gb

molecule  {
0 1
  O       -0.4771680     1.3164760     0.3008390
  N        0.7985240    -0.5535590    -0.2772820
  C        3.2200150    -0.4235850    -0.1586420
  C        0.7425440     0.7008700     0.1517020
  C       -1.6208490     0.5302780     0.1412880
  C        3.1140170     0.9030370     0.2913960
  C        1.8654780     1.4834140     0.4539590
  C        2.0264240    -1.0936290    -0.4226860
  C        4.5555360    -1.0893210    -0.3460000
  C       -1.9196720    -0.4880720     1.0459920
  C       -2.4970780     0.8728280    -0.8843220
  C       -3.1225630    -1.1795470     0.9070330
  C       -3.7017300     0.1773150    -1.0087090
  C       -4.0153870    -0.8504980    -0.1174150
  H        4.0532336     1.5033030     0.5255480
  H        1.7375180     2.5038470     0.8013060
  H        2.0412640    -2.1246280    -0.7760920
  H        5.1157190    -1.1239590     0.5937180
  H        4.4318450    -2.1155640    -0.7023530
  H        5.1668890    -0.5502680    -1.0765200
  H       -1.2183070    -0.7290930     1.8393240
  H       -2.2288450     1.6771480    -1.5635320
  H       -3.3650020    -1.9773860     1.6048690
  H       -4.3932510     0.4394220    -1.8057380
  H       -4.9525670    -1.3919050    -0.2175730
units angstrom
no_reorient  #important for SAPT in psi4, default
symmetry c1  #important for SAPT in psi4, default
}

set PROPERTIES_ORIGIN ["COM"]
properties('MP2/aug-cc-pvtz', properties = ['dipole'])
--------------------------------------------------------------------------

    Molecular point group: c1
  Charge       = 0
  Multiplicity = 1
  Basis Set: AUG-CC-PVTZ
    Blend: AUG-CC-PVTZ
  Basis Set: (AUG-CC-PVTZ AUX)
    Blend: AUG-CC-PVTZ-JKFIT

    Orbital Energies [Eh]
    ---------------------

    Doubly Occupied:

       1A    -20.598782     2A    -15.563588     3A    -11.341073
       4A    -11.295775     5A    -11.277683     6A    -11.267088
       7A    -11.243722     8A    -11.241611     9A    -11.236822
      10A    -11.236722    11A    -11.232739    12A    -11.232178
      13A    -11.231437    14A    -11.230530    15A     -1.430929
      16A     -1.253726    17A     -1.145967    18A     -1.101772
      19A     -1.053188    20A     -1.015344    21A     -1.003731
      22A     -0.942869    23A     -0.875522    24A     -0.842329
      25A     -0.830774    26A     -0.799043    27A     -0.734759
      28A     -0.704384    29A     -0.679233    30A     -0.655598
      31A     -0.643464    32A     -0.626523    33A     -0.608843
      34A     -0.593832    35A     -0.591182    36A     -0.586177
      37A     -0.569689    38A     -0.559447    39A     -0.549299
      40A     -0.521380    41A     -0.513698    42A     -0.511795
      43A     -0.492773    44A     -0.477736    45A     -0.428085
      46A     -0.384722    47A     -0.335536    48A     -0.332538
      49A     -0.313791

  @DF-RHF Final Energy:  -590.32910361871734

   => Energetics <=

    Nuclear Repulsion Energy =            801.4531716624811679
    One-Electron Energy =               -2391.6856951656859565
    Two-Electron Energy =                 999.9034198844875618
    Total Energy =                       -590.3291036187173404
  Basis Set: (AUG-CC-PVTZ AUX)
    Blend: AUG-CC-PVTZ-RI
    Molecular point group: c1

    Geometry (in Angstrom), charge = 0, multiplicity = 1:

       Center              X                  Y                   Z               Mass
    ------------   -----------------  -----------------  -----------------  -----------------
         O           -0.443393271767     1.295388509850     0.296575411068    15.994914619570
         N            0.832298728233    -0.574646490150    -0.281545588932    14.003074004430
         C            3.253789728233    -0.444672490150    -0.162905588932    12.000000000000
         C            0.776318728233     0.679782509850     0.147438411068    12.000000000000
         C           -1.587074271767     0.509190509850     0.137024411068    12.000000000000
         C            3.147791728233     0.881949509850     0.287132411068    12.000000000000
         C            1.899252728233     1.462326509850     0.449695411068    12.000000000000
         C            2.060198728233    -1.114716490150    -0.426949588932    12.000000000000
         C            4.589310728233    -1.110408490150    -0.350263588932    12.000000000000
         C           -1.885897271767    -0.509159490150     1.041728411068    12.000000000000
         C           -2.463303271767     0.851740509850    -0.888585588932    12.000000000000
         C           -3.088788271767    -1.200634490150     0.902769411068    12.000000000000
         C           -3.667955271767     0.156227509850    -1.012972588932    12.000000000000
         C           -3.981612271767    -0.871585490150    -0.121678588932    12.000000000000
         H            4.087008328233     1.482215509850     0.521284411068     1.007825032230
         H            1.771292728233     2.482759509850     0.797042411068     1.007825032230
         H            2.075038728233    -2.145715490150    -0.780355588932     1.007825032230
         H            5.149493728233    -1.145046490150     0.589454411068     1.007825032230
         H            4.465619728233    -2.136651490150    -0.706616588932     1.007825032230
         H            5.200663728233    -0.571355490150    -1.080783588932     1.007825032230
         H           -1.184532271767    -0.750180490150     1.835060411068     1.007825032230
         H           -2.195070271767     1.656060509850    -1.567795588932     1.007825032230
         H           -3.331227271767    -1.998473490150     1.600605411068     1.007825032230
         H           -4.359476271767     0.418334509850    -1.810001588932     1.007825032230
         H           -4.918792271767    -1.412992490150    -0.221836588932     1.007825032230

  Basis Set: AUG-CC-PVTZ
    Blend: AUG-CC-PVTZ
  Basis Set: (AUG-CC-PVTZ AUX)
    Blend: AUG-CC-PVTZ-JKFIT
	 Reference Energy          =    -590.3291036187173404 [Eh]
	 Singles Energy            =      -0.0000000000000000 [Eh]
	 Same-Spin Energy          =      -0.6441098981420567 [Eh]
	 Opposite-Spin Energy      =      -1.9818863443596215 [Eh]
	 Correlation Energy        =      -2.6259962425016781 [Eh]
	 Total Energy              =    -592.9550998612189687 [Eh]

	 ================> DF-SCS-MP2 Energies <==================
	-----------------------------------------------------------
	 SCS Same-Spin Scale       =       0.3333333333333333 [-]
	 SCS Opposite-Spin Scale   =       1.2000000000000000 [-]
	 SCS Same-Spin Energy      =      -0.2147032993806856 [Eh]
	 SCS Opposite-Spin Energy  =      -2.3782636132315456 [Eh]
	 SCS Correlation Energy    =      -2.5929669126122312 [Eh]
	 SCS Total Energy          =    -592.9220705313296094 [Eh]
	-----------------------------------------------------------

  Dipole Moment: [D]
     X:     1.9966      Y:    -0.1940      Z:     0.1524     Total:     2.0117

*** Psi4 exiting successfully. Buy a developer a beer!
