                               Psi4 1.4a3.dev225

  ==> Input File <==

--------------------------------------------------------------------------
#psi4
#
memory 32 gb

molecule  {
0 1
  O       -0.4771680     1.3164760     0.3008390
  N        0.7985240    -0.5535590    -0.2772820
  C        3.2200150    -0.4235850    -0.1586420
  C        0.7425440     0.7008700     0.1517020
  C       -1.6208490     0.5302780     0.1412880
  C        3.1140170     0.9030370     0.2913960
  C        1.8654780     1.4834140     0.4539590
  C        2.0264240    -1.0936290    -0.4226860
  C        4.5555360    -1.0893210    -0.3460000
  C       -1.9196720    -0.4880720     1.0459920
  C       -2.4970780     0.8728280    -0.8843220
  C       -3.1225630    -1.1795470     0.9070330
  C       -3.7017300     0.1773150    -1.0087090
  C       -4.0153870    -0.8504980    -0.1174150
  H        4.0120030     1.4769520     0.5152690
  H        1.7375180     2.5038470     0.8013060
  H        2.0412640    -2.1246280    -0.7760920
  H        5.1165273    -1.1429956     0.5923403
  H        4.4318450    -2.1155640    -0.7023530
  H        5.1668890    -0.5502680    -1.0765200
  H       -1.2183070    -0.7290930     1.8393240
  H       -2.2288450     1.6771480    -1.5635320
  H       -3.3650020    -1.9773860     1.6048690
  H       -4.3932510     0.4394220    -1.8057380
  H       -4.9525670    -1.3919050    -0.2175730
units angstrom
no_reorient  #important for SAPT in psi4, default
symmetry c1  #important for SAPT in psi4, default
}

set PROPERTIES_ORIGIN ["COM"]
properties('MP2/aug-cc-pvtz', properties = ['dipole'])
--------------------------------------------------------------------------

    Molecular point group: c1
  Charge       = 0
  Multiplicity = 1
  Basis Set: AUG-CC-PVTZ
    Blend: AUG-CC-PVTZ
  Basis Set: (AUG-CC-PVTZ AUX)
    Blend: AUG-CC-PVTZ-JKFIT

    Orbital Energies [Eh]
    ---------------------

    Doubly Occupied:

       1A    -20.598610     2A    -15.563422     3A    -11.340782
       4A    -11.295673     5A    -11.277387     6A    -11.261448
       7A    -11.243271     8A    -11.241137     9A    -11.236751
      10A    -11.236651    11A    -11.232672    12A    -11.232093
      13A    -11.231351    14A    -11.230455    15A     -1.430763
      16A     -1.253507    17A     -1.145881    18A     -1.102572
      19A     -1.053015    20A     -1.015266    21A     -1.003781
      22A     -0.942907    23A     -0.877667    24A     -0.842211
      25A     -0.830672    26A     -0.800878    27A     -0.736830
      28A     -0.704678    29A     -0.679176    30A     -0.655513
      31A     -0.643447    32A     -0.626464    33A     -0.611070
      34A     -0.594926    35A     -0.592176    36A     -0.586279
      37A     -0.569889    38A     -0.563334    39A     -0.548373
      40A     -0.521220    41A     -0.513641    42A     -0.511663
      43A     -0.492710    44A     -0.477634    45A     -0.428236
      46A     -0.384499    47A     -0.335452    48A     -0.332407
      49A     -0.313660

  @DF-RHF Final Energy:  -590.33154267341820

   => Energetics <=

    Nuclear Repulsion Energy =            801.7015662490525756
    One-Electron Energy =               -2392.1780179570791915
    Two-Electron Energy =                1000.1449090346084176
    Total Energy =                       -590.3315426734181983
  Basis Set: (AUG-CC-PVTZ AUX)
    Blend: AUG-CC-PVTZ-RI
    Molecular point group: c1

    Geometry (in Angstrom), charge = 0, multiplicity = 1:

       Center              X                  Y                   Z               Mass
    ------------   -----------------  -----------------  -----------------  -----------------
         O           -0.443173163105     1.295635655706     0.296638884464    15.994914619570
         N            0.832518836895    -0.574399344294    -0.281482115536    14.003074004430
         C            3.254009836895    -0.444425344294    -0.162842115536    12.000000000000
         C            0.776538836895     0.680029655706     0.147501884464    12.000000000000
         C           -1.586854163105     0.509437655706     0.137087884464    12.000000000000
         C            3.148011836895     0.882196655706     0.287195884464    12.000000000000
         C            1.899472836895     1.462573655706     0.449758884464    12.000000000000
         C            2.060418836895    -1.114469344294    -0.426886115536    12.000000000000
         C            4.589530836895    -1.110161344294    -0.350200115536    12.000000000000
         C           -1.885677163105    -0.508912344294     1.041791884464    12.000000000000
         C           -2.463083163105     0.851987655706    -0.888522115536    12.000000000000
         C           -3.088568163105    -1.200387344294     0.902832884464    12.000000000000
         C           -3.667735163105     0.156474655706    -1.012909115536    12.000000000000
         C           -3.981392163105    -0.871338344294    -0.121615115536    12.000000000000
         H            4.045997836895     1.456111655706     0.511068884464     1.007825032230
         H            1.771512836895     2.483006655706     0.797105884464     1.007825032230
         H            2.075258836895    -2.145468344294    -0.780292115536     1.007825032230
         H            5.150522136895    -1.163835944294     0.588140184464     1.007825032230
         H            4.465839836895    -2.136404344294    -0.706553115536     1.007825032230
         H            5.200883836895    -0.571108344294    -1.080720115536     1.007825032230
         H           -1.184312163105    -0.749933344294     1.835123884464     1.007825032230
         H           -2.194850163105     1.656307655706    -1.567732115536     1.007825032230
         H           -3.331007163105    -1.998226344294     1.600668884464     1.007825032230
         H           -4.359256163105     0.418581655706    -1.809938115536     1.007825032230
         H           -4.918572163105    -1.412745344294    -0.221773115536     1.007825032230

  Basis Set: AUG-CC-PVTZ
    Blend: AUG-CC-PVTZ
  Basis Set: (AUG-CC-PVTZ AUX)
    Blend: AUG-CC-PVTZ-JKFIT
	 Reference Energy          =    -590.3315426734181983 [Eh]
	 Singles Energy            =      -0.0000000000000000 [Eh]
	 Same-Spin Energy          =      -0.6439913744863444 [Eh]
	 Opposite-Spin Energy      =      -1.9814659678584534 [Eh]
	 Correlation Energy        =      -2.6254573423447978 [Eh]
	 Total Energy              =    -592.9570000157630147 [Eh]

	 ================> DF-SCS-MP2 Energies <==================
	-----------------------------------------------------------
	 SCS Same-Spin Scale       =       0.3333333333333333 [-]
	 SCS Opposite-Spin Scale   =       1.2000000000000000 [-]
	 SCS Same-Spin Energy      =      -0.2146637914954481 [Eh]
	 SCS Opposite-Spin Energy  =      -2.3777591614301441 [Eh]
	 SCS Correlation Energy    =      -2.5924229529255922 [Eh]
	 SCS Total Energy          =    -592.9239656263438292 [Eh]
	-----------------------------------------------------------

  Dipole Moment: [D]
     X:     2.0123      Y:    -0.1886      Z:     0.1584     Total:     2.0273

*** Psi4 exiting successfully. Buy a developer a beer!
