                               Psi4 1.4a3.dev225

  ==> Input File <==

--------------------------------------------------------------------------
#psi4
#
memory 32 gb

molecule  {
0 1
  O       -0.4771680     1.3164760     0.3008390
  N        0.7985240    -0.5535590    -0.2772820
  C        3.2200150    -0.4235850    -0.1586420
  C        0.7425440     0.7008700     0.1517020
  C       -1.6208490     0.5302780     0.1412880
  C        3.1125080     0.9219229     0.2978028
  C        1.8654780     1.4834140     0.4539590
  C        2.0264240    -1.0936290    -0.4226860
  C        4.5555360    -1.0893210    -0.3460000
  C       -1.9196720    -0.4880720     1.0459920
  C       -2.4970780     0.8728280    -0.8843220
  C       -3.1225630    -1.1795470     0.9070330
  C       -3.7017300     0.1773150    -1.0087090
  C       -4.0153870    -0.8504980    -0.1174150
  H        4.0120030     1.4769520     0.5152690
  H        1.7375180     2.5038470     0.8013060
  H        2.0412640    -2.1246280    -0.7760920
  H        5.1157190    -1.1239590     0.5937180
  H        4.4318450    -2.1155640    -0.7023530
  H        5.1668890    -0.5502680    -1.0765200
  H       -1.2183070    -0.7290930     1.8393240
  H       -2.2288450     1.6771480    -1.5635320
  H       -3.3650020    -1.9773860     1.6048690
  H       -4.3932510     0.4394220    -1.8057380
  H       -4.9525670    -1.3919050    -0.2175730
units angstrom
no_reorient  #important for SAPT in psi4, default
symmetry c1  #important for SAPT in psi4, default
}

set PROPERTIES_ORIGIN ["COM"]
properties('MP2/aug-cc-pvtz', properties = ['dipole'])
--------------------------------------------------------------------------

    Molecular point group: c1
  Charge       = 0
  Multiplicity = 1
  Basis Set: AUG-CC-PVTZ
    Blend: AUG-CC-PVTZ
  Basis Set: (AUG-CC-PVTZ AUX)
    Blend: AUG-CC-PVTZ-JKFIT

    Orbital Energies [Eh]
    ---------------------

    Doubly Occupied:

       1A    -20.599074     2A    -15.562959     3A    -11.341402
       4A    -11.295823     5A    -11.276017     6A    -11.261771
       7A    -11.244737     8A    -11.240957     9A    -11.236804
      10A    -11.236703    11A    -11.232611    12A    -11.232184
      13A    -11.231463    14A    -11.230527    15A     -1.431107
      16A     -1.252814    17A     -1.145958    18A     -1.100934
      19A     -1.053688    20A     -1.015338    21A     -1.004291
      22A     -0.942391    23A     -0.877504    24A     -0.841320
      25A     -0.830363    26A     -0.801553    27A     -0.737507
      28A     -0.704256    29A     -0.679235    30A     -0.655668
      31A     -0.642930    32A     -0.626726    33A     -0.611696
      34A     -0.595112    35A     -0.591978    36A     -0.585938
      37A     -0.569775    38A     -0.566218    39A     -0.549432
      40A     -0.518336    41A     -0.513389    42A     -0.511747
      43A     -0.492831    44A     -0.477361    45A     -0.427948
      46A     -0.384925    47A     -0.335524    48A     -0.332015
      49A     -0.313181

  @DF-RHF Final Energy:  -590.33111978446902

   => Energetics <=

    Nuclear Repulsion Energy =            801.5062445922768575
    One-Electron Energy =               -2391.7866823887065948
    Two-Electron Energy =                 999.9493180119608269
    Total Energy =                       -590.3311197844690241
  Basis Set: (AUG-CC-PVTZ AUX)
    Blend: AUG-CC-PVTZ-RI
    Molecular point group: c1

    Geometry (in Angstrom), charge = 0, multiplicity = 1:

       Center              X                  Y                   Z               Mass
    ------------   -----------------  -----------------  -----------------  -----------------
         O           -0.443070925102     1.294307522118     0.296215995108    15.994914619570
         N            0.832621074898    -0.575727477882    -0.281905004892    14.003074004430
         C            3.254112074898    -0.445753477882    -0.163265004892    12.000000000000
         C            0.776641074898     0.678701522118     0.147078995108    12.000000000000
         C           -1.586751925102     0.508109522118     0.136664995108    12.000000000000
         C            3.146605074898     0.899754422118     0.293179795108    12.000000000000
         C            1.899575074898     1.461245522118     0.449335995108    12.000000000000
         C            2.060521074898    -1.115797477882    -0.427309004892    12.000000000000
         C            4.589633074898    -1.111489477882    -0.350623004892    12.000000000000
         C           -1.885574925102    -0.510240477882     1.041368995108    12.000000000000
         C           -2.462980925102     0.850659522118    -0.888945004892    12.000000000000
         C           -3.088465925102    -1.201715477882     0.902409995108    12.000000000000
         C           -3.667632925102     0.155146522118    -1.013332004892    12.000000000000
         C           -3.981289925102    -0.872666477882    -0.122038004892    12.000000000000
         H            4.046100074898     1.454783522118     0.510645995108     1.007825032230
         H            1.771615074898     2.481678522118     0.796682995108     1.007825032230
         H            2.075361074898    -2.146796477882    -0.780715004892     1.007825032230
         H            5.149816074898    -1.146127477882     0.589094995108     1.007825032230
         H            4.465942074898    -2.137732477882    -0.706976004892     1.007825032230
         H            5.200986074898    -0.572436477882    -1.081143004892     1.007825032230
         H           -1.184209925102    -0.751261477882     1.834700995108     1.007825032230
         H           -2.194747925102     1.654979522118    -1.568155004892     1.007825032230
         H           -3.330904925102    -1.999554477882     1.600245995108     1.007825032230
         H           -4.359153925102     0.417253522118    -1.810361004892     1.007825032230
         H           -4.918469925102    -1.414073477882    -0.222196004892     1.007825032230

  Basis Set: AUG-CC-PVTZ
    Blend: AUG-CC-PVTZ
  Basis Set: (AUG-CC-PVTZ AUX)
    Blend: AUG-CC-PVTZ-JKFIT
	 Reference Energy          =    -590.3311197844690241 [Eh]
	 Singles Energy            =      -0.0000000000000000 [Eh]
	 Same-Spin Energy          =      -0.6438807254366489 [Eh]
	 Opposite-Spin Energy      =      -1.9814995402735913 [Eh]
	 Correlation Energy        =      -2.6253802657102403 [Eh]
	 Total Energy              =    -592.9565000501792156 [Eh]

	 ================> DF-SCS-MP2 Energies <==================
	-----------------------------------------------------------
	 SCS Same-Spin Scale       =       0.3333333333333333 [-]
	 SCS Opposite-Spin Scale   =       1.2000000000000000 [-]
	 SCS Same-Spin Energy      =      -0.2146269084788829 [Eh]
	 SCS Opposite-Spin Energy  =      -2.3777994483283096 [Eh]
	 SCS Correlation Energy    =      -2.5924263568071924 [Eh]
	 SCS Total Energy          =    -592.9235461412762334 [Eh]
	-----------------------------------------------------------

  Dipole Moment: [D]
     X:     2.0163      Y:    -0.1698      Z:     0.1618     Total:     2.0299

*** Psi4 exiting successfully. Buy a developer a beer!
