                               Psi4 1.4a3.dev225

  ==> Input File <==

--------------------------------------------------------------------------
#psi4
#
memory 32 gb

molecule  {
0 1
  O       -0.4771680     1.3164760     0.3008390
  N        0.7985240    -0.5535590    -0.2772820
  C        3.2200150    -0.4235850    -0.1586420
  C        0.7425440     0.7008700     0.1517020
  C       -1.6208490     0.5302780     0.1412880
  C        3.1140170     0.9030370     0.2913960
  C        1.8654780     1.4834140     0.4539590
  C        2.0264240    -1.0936290    -0.4226860
  C        4.5555360    -1.0893210    -0.3460000
  C       -1.9196720    -0.4880720     1.0459920
  C       -2.4970780     0.8728280    -0.8843220
  C       -3.0925293    -1.1446198     0.8909142
  C       -3.7017300     0.1773150    -1.0087090
  C       -4.0153870    -0.8504980    -0.1174150
  H        4.0120030     1.4769520     0.5152690
  H        1.7375180     2.5038470     0.8013060
  H        2.0412640    -2.1246280    -0.7760920
  H        5.1157190    -1.1239590     0.5937180
  H        4.4318450    -2.1155640    -0.7023530
  H        5.1668890    -0.5502680    -1.0765200
  H       -1.2183070    -0.7290930     1.8393240
  H       -2.2288450     1.6771480    -1.5635320
  H       -3.3650020    -1.9773860     1.6048690
  H       -4.3932510     0.4394220    -1.8057380
  H       -4.9525670    -1.3919050    -0.2175730
units angstrom
no_reorient  #important for SAPT in psi4, default
symmetry c1  #important for SAPT in psi4, default
}

set PROPERTIES_ORIGIN ["COM"]
properties('MP2/aug-cc-pvtz', properties = ['dipole'])
--------------------------------------------------------------------------

    Molecular point group: c1
  Charge       = 0
  Multiplicity = 1
  Basis Set: AUG-CC-PVTZ
    Blend: AUG-CC-PVTZ
  Basis Set: (AUG-CC-PVTZ AUX)
    Blend: AUG-CC-PVTZ-JKFIT

    Orbital Energies [Eh]
    ---------------------

    Doubly Occupied:

       1A    -20.598701     2A    -15.563698     3A    -11.340961
       4A    -11.296204     5A    -11.277502     6A    -11.261611
       7A    -11.243406     8A    -11.241347     9A    -11.236577
      10A    -11.235439    11A    -11.232886    12A    -11.230070
      13A    -11.229785    14A    -11.227584    15A     -1.430957
      16A     -1.253733    17A     -1.150425    18A     -1.102816
      19A     -1.053170    20A     -1.019653    21A     -1.003267
      22A     -0.943065    23A     -0.878447    24A     -0.842256
      25A     -0.827696    26A     -0.802065    27A     -0.736276
      28A     -0.704817    29A     -0.681064    30A     -0.657490
      31A     -0.643194    32A     -0.622909    33A     -0.610819
      34A     -0.594586    35A     -0.591034    36A     -0.584118
      37A     -0.571048    38A     -0.563670    39A     -0.549896
      40A     -0.521872    41A     -0.518454    42A     -0.510132
      43A     -0.493162    44A     -0.473273    45A     -0.428510
      46A     -0.384691    47A     -0.339998    48A     -0.331611
      49A     -0.313355

  @DF-RHF Final Energy:  -590.32878770247055

   => Energetics <=

    Nuclear Repulsion Energy =            802.6867834295712782
    One-Electron Energy =               -2394.1325456922718331
    Two-Electron Energy =                1001.1169745602300054
    Total Energy =                       -590.3287877024705494
  Basis Set: (AUG-CC-PVTZ AUX)
    Blend: AUG-CC-PVTZ-RI
    Molecular point group: c1

    Geometry (in Angstrom), charge = 0, multiplicity = 1:

       Center              X                  Y                   Z               Mass
    ------------   -----------------  -----------------  -----------------  -----------------
         O           -0.445116008789     1.293267477957     0.297676451477    15.994914619570
         N            0.830575991211    -0.576767522043    -0.280444548523    14.003074004430
         C            3.252066991211    -0.446793522043    -0.161804548523    12.000000000000
         C            0.774595991211     0.677661477957     0.148539451477    12.000000000000
         C           -1.588797008789     0.507069477957     0.138125451477    12.000000000000
         C            3.146068991211     0.879828477957     0.288233451477    12.000000000000
         C            1.897529991211     1.460205477957     0.450796451477    12.000000000000
         C            2.058475991211    -1.116837522043    -0.425848548523    12.000000000000
         C            4.587587991211    -1.112529522043    -0.349162548523    12.000000000000
         C           -1.887620008789    -0.511280522043     1.042829451477    12.000000000000
         C           -2.465026008789     0.849619477957    -0.887484548523    12.000000000000
         C           -3.060477308789    -1.167828322043     0.887751651477    12.000000000000
         C           -3.669678008789     0.154106477957    -1.011871548523    12.000000000000
         C           -3.983335008789    -0.873706522043    -0.120577548523    12.000000000000
         H            4.044054991211     1.453743477957     0.512106451477     1.007825032230
         H            1.769569991211     2.480638477957     0.798143451477     1.007825032230
         H            2.073315991211    -2.147836522043    -0.779254548523     1.007825032230
         H            5.147770991211    -1.147167522043     0.590555451477     1.007825032230
         H            4.463896991211    -2.138772522043    -0.705515548523     1.007825032230
         H            5.198940991211    -0.573476522043    -1.079682548523     1.007825032230
         H           -1.186255008789    -0.752301522043     1.836161451477     1.007825032230
         H           -2.196793008789     1.653939477957    -1.566694548523     1.007825032230
         H           -3.332950008789    -2.000594522043     1.601706451477     1.007825032230
         H           -4.361199008789     0.416213477957    -1.808900548523     1.007825032230
         H           -4.920515008789    -1.415113522043    -0.220735548523     1.007825032230

  Basis Set: AUG-CC-PVTZ
    Blend: AUG-CC-PVTZ
  Basis Set: (AUG-CC-PVTZ AUX)
    Blend: AUG-CC-PVTZ-JKFIT
	 Reference Energy          =    -590.3287877024705494 [Eh]
	 Singles Energy            =      -0.0000000000000000 [Eh]
	 Same-Spin Energy          =      -0.6440221498935772 [Eh]
	 Opposite-Spin Energy      =      -1.9813945143569014 [Eh]
	 Correlation Energy        =      -2.6254166642504786 [Eh]
	 Total Energy              =    -592.9542043667210010 [Eh]

	 ================> DF-SCS-MP2 Energies <==================
	-----------------------------------------------------------
	 SCS Same-Spin Scale       =       0.3333333333333333 [-]
	 SCS Opposite-Spin Scale   =       1.2000000000000000 [-]
	 SCS Same-Spin Energy      =      -0.2146740499645257 [Eh]
	 SCS Opposite-Spin Energy  =      -2.3776734172282814 [Eh]
	 SCS Correlation Energy    =      -2.5923474671928073 [Eh]
	 SCS Total Energy          =    -592.9211351696633301 [Eh]
	-----------------------------------------------------------

  Dipole Moment: [D]
     X:     2.0264      Y:    -0.1614      Z:     0.1420     Total:     2.0378

*** Psi4 exiting successfully. Buy a developer a beer!
