                               Psi4 1.4a3.dev225

  ==> Input File <==

--------------------------------------------------------------------------
#psi4
#
memory 32 gb

molecule  {
0 1
  O       -0.4771680     1.3164760     0.3008390
  N        0.7985240    -0.5535590    -0.2772820
  C        3.2200150    -0.4235850    -0.1586420
  C        0.7425440     0.7008700     0.1517020
  C       -1.6208490     0.5302780     0.1412880
  C        3.1140170     0.9030370     0.2913960
  C        1.8654780     1.4834140     0.4539590
  C        2.0264240    -1.0936290    -0.4226860
  C        4.5555360    -1.0893210    -0.3460000
  C       -1.9196720    -0.4880720     1.0459920
  C       -2.4970780     0.8728280    -0.8843220
  C       -3.0358703    -1.0737334     0.8550122
  C       -3.7017300     0.1773150    -1.0087090
  C       -4.0153870    -0.8504980    -0.1174150
  H        4.0120030     1.4769520     0.5152690
  H        1.7375180     2.5038470     0.8013060
  H        2.0412640    -2.1246280    -0.7760920
  H        5.1157190    -1.1239590     0.5937180
  H        4.4318450    -2.1155640    -0.7023530
  H        5.1668890    -0.5502680    -1.0765200
  H       -1.2183070    -0.7290930     1.8393240
  H       -2.2288450     1.6771480    -1.5635320
  H       -3.3650020    -1.9773860     1.6048690
  H       -4.3932510     0.4394220    -1.8057380
  H       -4.9525670    -1.3919050    -0.2175730
units angstrom
no_reorient  #important for SAPT in psi4, default
symmetry c1  #important for SAPT in psi4, default
}

set PROPERTIES_ORIGIN ["COM"]
properties('MP2/aug-cc-pvtz', properties = ['dipole'])
--------------------------------------------------------------------------

    Molecular point group: c1
  Charge       = 0
  Multiplicity = 1
  Basis Set: AUG-CC-PVTZ
    Blend: AUG-CC-PVTZ
  Basis Set: (AUG-CC-PVTZ AUX)
    Blend: AUG-CC-PVTZ-JKFIT

    Orbital Energies [Eh]
    ---------------------

    Doubly Occupied:

       1A    -20.599169     2A    -15.564470     3A    -11.341608
       4A    -11.297796     5A    -11.278039     6A    -11.262103
       7A    -11.243919     8A    -11.241865     9A    -11.236841
      10A    -11.233685    11A    -11.233229    12A    -11.229660
      13A    -11.227978    14A    -11.218737    15A     -1.431657
      16A     -1.254443    17A     -1.162007    18A     -1.103338
      19A     -1.053650    20A     -1.030507    21A     -1.001942
      22A     -0.943487    23A     -0.880260    24A     -0.843652
      25A     -0.822136    26A     -0.804737    27A     -0.736346
      28A     -0.705293    29A     -0.685021    30A     -0.661852
      31A     -0.643500    32A     -0.619756    33A     -0.610567
      34A     -0.599711    35A     -0.591339    36A     -0.576008
      37A     -0.571550    38A     -0.564033    39A     -0.550724
      40A     -0.529027    41A     -0.521541    42A     -0.510909
      43A     -0.494248    44A     -0.454559    45A     -0.429227
      46A     -0.385311    47A     -0.350103    48A     -0.330743
      49A     -0.312876

  @DF-RHF Final Energy:  -590.30371676731340

   => Energetics <=

    Nuclear Repulsion Energy =            804.7164794877711529
    One-Electron Energy =               -2398.0900770902867407
    Two-Electron Energy =                1003.0698808352020706
    Total Energy =                       -590.3037167673134036
  Basis Set: (AUG-CC-PVTZ AUX)
    Blend: AUG-CC-PVTZ-RI
    Molecular point group: c1

    Geometry (in Angstrom), charge = 0, multiplicity = 1:

       Center              X                  Y                   Z               Mass
    ------------   -----------------  -----------------  -----------------  -----------------
         O           -0.448789517926     1.288671529599     0.300004172140    15.994914619570
         N            0.826902482074    -0.581363470401    -0.278116827860    14.003074004430
         C            3.248393482074    -0.451389470401    -0.159476827860    12.000000000000
         C            0.770922482074     0.673065529599     0.150867172140    12.000000000000
         C           -1.592470517926     0.502473529599     0.140453172140    12.000000000000
         C            3.142395482074     0.875232529599     0.290561172140    12.000000000000
         C            1.893856482074     1.455609529599     0.453124172140    12.000000000000
         C            2.054802482074    -1.121433470401    -0.423520827860    12.000000000000
         C            4.583914482074    -1.117125470401    -0.346834827860    12.000000000000
         C           -1.891293517926    -0.515876470401     1.045157172140    12.000000000000
         C           -2.468699517926     0.845023529599    -0.885156827860    12.000000000000
         C           -3.007491817926    -1.101537870401     0.854177372140    12.000000000000
         C           -3.673351517926     0.149510529599    -1.009543827860    12.000000000000
         C           -3.987008517926    -0.878302470401    -0.118249827860    12.000000000000
         H            4.040381482074     1.449147529599     0.514434172140     1.007825032230
         H            1.765896482074     2.476042529599     0.800471172140     1.007825032230
         H            2.069642482074    -2.152432470401    -0.776926827860     1.007825032230
         H            5.144097482074    -1.151763470401     0.592883172140     1.007825032230
         H            4.460223482074    -2.143368470401    -0.703187827860     1.007825032230
         H            5.195267482074    -0.578072470401    -1.077354827860     1.007825032230
         H           -1.189928517926    -0.756897470401     1.838489172140     1.007825032230
         H           -2.200466517926     1.649343529599    -1.564366827860     1.007825032230
         H           -3.336623517926    -2.005190470401     1.604034172140     1.007825032230
         H           -4.364872517926     0.411617529599    -1.806572827860     1.007825032230
         H           -4.924188517926    -1.419709470401    -0.218407827860     1.007825032230

  Basis Set: AUG-CC-PVTZ
    Blend: AUG-CC-PVTZ
  Basis Set: (AUG-CC-PVTZ AUX)
    Blend: AUG-CC-PVTZ-JKFIT
	 Reference Energy          =    -590.3037167673134036 [Eh]
	 Singles Energy            =      -0.0000000000000000 [Eh]
	 Same-Spin Energy          =      -0.6442787886484190 [Eh]
	 Opposite-Spin Energy      =      -1.9822016160888958 [Eh]
	 Correlation Energy        =      -2.6264804047373147 [Eh]
	 Total Energy              =    -592.9301971720507254 [Eh]

	 ================> DF-SCS-MP2 Energies <==================
	-----------------------------------------------------------
	 SCS Same-Spin Scale       =       0.3333333333333333 [-]
	 SCS Opposite-Spin Scale   =       1.2000000000000000 [-]
	 SCS Same-Spin Energy      =      -0.2147595962161397 [Eh]
	 SCS Opposite-Spin Energy  =      -2.3786419393066747 [Eh]
	 SCS Correlation Energy    =      -2.5934015355228142 [Eh]
	 SCS Total Energy          =    -592.8971183028362475 [Eh]
	-----------------------------------------------------------

  Dipole Moment: [D]
     X:     2.0607      Y:    -0.0845      Z:     0.0851     Total:     2.0642

*** Psi4 exiting successfully. Buy a developer a beer!
