                               Psi4 1.4a3.dev225

  ==> Input File <==

--------------------------------------------------------------------------
#psi4
#
memory 32 gb

molecule  {
0 1
  O       -0.4771680     1.3164760     0.3008390
  N        0.7985240    -0.5535590    -0.2772820
  C        3.2200150    -0.4235850    -0.1586420
  C        0.8037333     0.6281384     0.1285099
  C       -1.6208490     0.5302780     0.1412880
  C        3.1140170     0.9030370     0.2913960
  C        1.8654780     1.4834140     0.4539590
  C        2.0264240    -1.0936290    -0.4226860
  C        4.5555360    -1.0893210    -0.3460000
  C       -1.9196720    -0.4880720     1.0459920
  C       -2.4970780     0.8728280    -0.8843220
  C       -3.1225630    -1.1795470     0.9070330
  C       -3.7017300     0.1773150    -1.0087090
  C       -4.0153870    -0.8504980    -0.1174150
  H        4.0120030     1.4769520     0.5152690
  H        1.7375180     2.5038470     0.8013060
  H        2.0412640    -2.1246280    -0.7760920
  H        5.1157190    -1.1239590     0.5937180
  H        4.4318450    -2.1155640    -0.7023530
  H        5.1668890    -0.5502680    -1.0765200
  H       -1.2183070    -0.7290930     1.8393240
  H       -2.2288450     1.6771480    -1.5635320
  H       -3.3650020    -1.9773860     1.6048690
  H       -4.3932510     0.4394220    -1.8057380
  H       -4.9525670    -1.3919050    -0.2175730
units angstrom
no_reorient  #important for SAPT in psi4, default
symmetry c1  #important for SAPT in psi4, default
}

set PROPERTIES_ORIGIN ["COM"]
properties('MP2/aug-cc-pvtz', properties = ['dipole'])
--------------------------------------------------------------------------

    Molecular point group: c1
  Charge       = 0
  Multiplicity = 1
  Basis Set: AUG-CC-PVTZ
    Blend: AUG-CC-PVTZ
  Basis Set: (AUG-CC-PVTZ AUX)
    Blend: AUG-CC-PVTZ-JKFIT

    Orbital Energies [Eh]
    ---------------------

    Doubly Occupied:

       1A    -20.581409     2A    -15.567265     3A    -11.337180
       4A    -11.286904     5A    -11.282649     6A    -11.265691
       7A    -11.250406     8A    -11.248541     9A    -11.237208
      10A    -11.232448    11A    -11.232215    12A    -11.226201
      13A    -11.225517    14A    -11.225004    15A     -1.397182
      16A     -1.284350    17A     -1.138830    18A     -1.115561
      19A     -1.054769    20A     -1.010178    21A     -0.995906
      22A     -0.949248    23A     -0.882109    24A     -0.838059
      25A     -0.826416    26A     -0.798820    27A     -0.725133
      28A     -0.708975    29A     -0.676427    30A     -0.647765
      31A     -0.644441    32A     -0.625863    33A     -0.603969
      34A     -0.594761    35A     -0.592567    36A     -0.582885
      37A     -0.567435    38A     -0.564003    39A     -0.554927
      40A     -0.526734    41A     -0.513732    42A     -0.505757
      43A     -0.484681    44A     -0.470531    45A     -0.440727
      46A     -0.395167    47A     -0.336298    48A     -0.330496
      49A     -0.313485

  @DF-RHF Final Energy:  -590.32083484022303

   => Energetics <=

    Nuclear Repulsion Energy =            802.0746046319200104
    One-Electron Energy =               -2392.9972260615709274
    Two-Electron Energy =                1000.6017865894278884
    Total Energy =                       -590.3208348402230286
  Basis Set: (AUG-CC-PVTZ AUX)
    Blend: AUG-CC-PVTZ-RI
    Molecular point group: c1

    Geometry (in Angstrom), charge = 0, multiplicity = 1:

       Center              X                  Y                   Z               Mass
    ------------   -----------------  -----------------  -----------------  -----------------
         O           -0.447135994692     1.300247579713     0.298135051738    15.994914619570
         N            0.828556005308    -0.569787420287    -0.279985948262    14.003074004430
         C            3.250047005308    -0.439813420287    -0.161345948262    12.000000000000
         C            0.833765305308     0.611909979713     0.125805951738    12.000000000000
         C           -1.590816994692     0.514049579713     0.138584051738    12.000000000000
         C            3.144049005308     0.886808579713     0.288692051738    12.000000000000
         C            1.895510005308     1.467185579713     0.451255051738    12.000000000000
         C            2.056456005308    -1.109857420287    -0.425389948262    12.000000000000
         C            4.585568005308    -1.105549420287    -0.348703948262    12.000000000000
         C           -1.889639994692    -0.504300420287     1.043288051738    12.000000000000
         C           -2.467045994692     0.856599579713    -0.887025948262    12.000000000000
         C           -3.092530994692    -1.195775420287     0.904329051738    12.000000000000
         C           -3.671697994692     0.161086579713    -1.011412948262    12.000000000000
         C           -3.985354994692    -0.866726420287    -0.120118948262    12.000000000000
         H            4.042035005308     1.460723579713     0.512565051738     1.007825032230
         H            1.767550005308     2.487618579713     0.798602051738     1.007825032230
         H            2.071296005308    -2.140856420287    -0.778795948262     1.007825032230
         H            5.145751005308    -1.140187420287     0.591014051738     1.007825032230
         H            4.461877005308    -2.131792420287    -0.705056948262     1.007825032230
         H            5.196921005308    -0.566496420287    -1.079223948262     1.007825032230
         H           -1.188274994692    -0.745321420287     1.836620051738     1.007825032230
         H           -2.198812994692     1.660919579713    -1.566235948262     1.007825032230
         H           -3.334969994692    -1.993614420287     1.602165051738     1.007825032230
         H           -4.363218994692     0.423193579713    -1.808441948262     1.007825032230
         H           -4.922534994692    -1.408133420287    -0.220276948262     1.007825032230

  Basis Set: AUG-CC-PVTZ
    Blend: AUG-CC-PVTZ
  Basis Set: (AUG-CC-PVTZ AUX)
    Blend: AUG-CC-PVTZ-JKFIT
	 Reference Energy          =    -590.3208348402230286 [Eh]
	 Singles Energy            =      -0.0000000000000000 [Eh]
	 Same-Spin Energy          =      -0.6438102173896566 [Eh]
	 Opposite-Spin Energy      =      -1.9818830641846557 [Eh]
	 Correlation Energy        =      -2.6256932815743124 [Eh]
	 Total Energy              =    -592.9465281217973143 [Eh]

	 ================> DF-SCS-MP2 Energies <==================
	-----------------------------------------------------------
	 SCS Same-Spin Scale       =       0.3333333333333333 [-]
	 SCS Opposite-Spin Scale   =       1.2000000000000000 [-]
	 SCS Same-Spin Energy      =      -0.2146034057965522 [Eh]
	 SCS Opposite-Spin Energy  =      -2.3782596770215867 [Eh]
	 SCS Correlation Energy    =      -2.5928630828181389 [Eh]
	 SCS Total Energy          =    -592.9136979230411271 [Eh]
	-----------------------------------------------------------

  Dipole Moment: [D]
     X:     2.8674      Y:    -0.3590      Z:     0.0859     Total:     2.8910

*** Psi4 exiting successfully. Buy a developer a beer!
