                               Psi4 1.4a3.dev225

  ==> Input File <==

--------------------------------------------------------------------------
#psi4
#
memory 32 gb

molecule  {
0 1
  O       -0.4771680     1.3164760     0.3008390
  N        0.7985240    -0.5535590    -0.2772820
  C        3.2200150    -0.4235850    -0.1586420
  C        0.7425440     0.7008700     0.1517020
  C       -1.6208490     0.5302780     0.1412880
  C        3.1140170     0.9030370     0.2913960
  C        1.8654780     1.4834140     0.4539590
  C        2.0264240    -1.0936290    -0.4226860
  C        4.5555360    -1.0893210    -0.3460000
  C       -1.9196720    -0.4880720     1.0459920
  C       -2.4970780     0.8728280    -0.8843220
  C       -3.1225630    -1.1795470     0.9070330
  C       -3.7017300     0.1773150    -1.0087090
  C       -4.0153870    -0.8504980    -0.1174150
  H        4.0120030     1.4769520     0.5152690
  H        1.7375180     2.5038470     0.8013060
  H        2.0412640    -2.1246280    -0.7760920
  H        5.1157190    -1.1239590     0.5937180
  H        4.4431578    -2.0217036    -0.6697609
  H        5.1668890    -0.5502680    -1.0765200
  H       -1.2183070    -0.7290930     1.8393240
  H       -2.2288450     1.6771480    -1.5635320
  H       -3.3650020    -1.9773860     1.6048690
  H       -4.3932510     0.4394220    -1.8057380
  H       -4.9525670    -1.3919050    -0.2175730
units angstrom
no_reorient  #important for SAPT in psi4, default
symmetry c1  #important for SAPT in psi4, default
}

set PROPERTIES_ORIGIN ["COM"]
properties('MP2/aug-cc-pvtz', properties = ['dipole'])
--------------------------------------------------------------------------

    Molecular point group: c1
  Charge       = 0
  Multiplicity = 1
  Basis Set: AUG-CC-PVTZ
    Blend: AUG-CC-PVTZ
  Basis Set: (AUG-CC-PVTZ AUX)
    Blend: AUG-CC-PVTZ-JKFIT

    Orbital Energies [Eh]
    ---------------------

    Doubly Occupied:

       1A    -20.598388     2A    -15.563215     3A    -11.340444
       4A    -11.295554     5A    -11.277113     6A    -11.260762
       7A    -11.242467     8A    -11.240817     9A    -11.236658
      10A    -11.236558    11A    -11.231982    12A    -11.231242
      13A    -11.230361    14A    -11.220466    15A     -1.430545
      16A     -1.253242    17A     -1.145777    18A     -1.103142
      19A     -1.054274    20A     -1.015190    21A     -1.004871
      22A     -0.949603    23A     -0.877439    24A     -0.843900
      25A     -0.831017    26A     -0.800842    27A     -0.736787
      28A     -0.704781    29A     -0.679746    30A     -0.655367
      31A     -0.646505    32A     -0.626760    33A     -0.610796
      34A     -0.597136    35A     -0.591759    36A     -0.585741
      37A     -0.569320    38A     -0.563295    39A     -0.561496
      40A     -0.523271    41A     -0.513391    42A     -0.511728
      43A     -0.492591    44A     -0.477398    45A     -0.427985
      46A     -0.384045    47A     -0.335346    48A     -0.332172
      49A     -0.313373

  @DF-RHF Final Energy:  -590.32559964712914

   => Energetics <=

    Nuclear Repulsion Energy =            802.1702440738019959
    One-Electron Energy =               -2393.0783677209542475
    Two-Electron Energy =                1000.5825240000231133
    Total Energy =                       -590.3255996471291382
  Basis Set: (AUG-CC-PVTZ AUX)
    Blend: AUG-CC-PVTZ-RI
    Molecular point group: c1

    Geometry (in Angstrom), charge = 0, multiplicity = 1:

       Center              X                  Y                   Z               Mass
    ------------   -----------------  -----------------  -----------------  -----------------
         O           -0.443230362508     1.295020905737     0.296453911139    15.994914619570
         N            0.832461637492    -0.575014094263    -0.281667088861    14.003074004430
         C            3.253952637492    -0.445040094263    -0.163027088861    12.000000000000
         C            0.776481637492     0.679414905737     0.147316911139    12.000000000000
         C           -1.586911362508     0.508822905737     0.136902911139    12.000000000000
         C            3.147954637492     0.881581905737     0.287010911139    12.000000000000
         C            1.899415637492     1.461958905737     0.449573911139    12.000000000000
         C            2.060361637492    -1.115084094263    -0.427071088861    12.000000000000
         C            4.589473637492    -1.110776094263    -0.350385088861    12.000000000000
         C           -1.885734362508    -0.509527094263     1.041606911139    12.000000000000
         C           -2.463140362508     0.851372905737    -0.888707088861    12.000000000000
         C           -3.088625362508    -1.201002094263     0.902647911139    12.000000000000
         C           -3.667792362508     0.155859905737    -1.013094088861    12.000000000000
         C           -3.981449362508    -0.871953094263    -0.121800088861    12.000000000000
         H            4.045940637492     1.455496905737     0.510883911139     1.007825032230
         H            1.771455637492     2.482391905737     0.796920911139     1.007825032230
         H            2.075201637492    -2.146083094263    -0.780477088861     1.007825032230
         H            5.149656637492    -1.145414094263     0.589332911139     1.007825032230
         H            4.477095437492    -2.043158694263    -0.674145988861     1.007825032230
         H            5.200826637492    -0.571723094263    -1.080905088861     1.007825032230
         H           -1.184369362508    -0.750548094263     1.834938911139     1.007825032230
         H           -2.194907362508     1.655692905737    -1.567917088861     1.007825032230
         H           -3.331064362508    -1.998841094263     1.600483911139     1.007825032230
         H           -4.359313362508     0.417966905737    -1.810123088861     1.007825032230
         H           -4.918629362508    -1.413360094263    -0.221958088861     1.007825032230

  Basis Set: AUG-CC-PVTZ
    Blend: AUG-CC-PVTZ
  Basis Set: (AUG-CC-PVTZ AUX)
    Blend: AUG-CC-PVTZ-JKFIT
	 Reference Energy          =    -590.3255996471291382 [Eh]
	 Singles Energy            =      -0.0000000000000000 [Eh]
	 Same-Spin Energy          =      -0.6439897842292972 [Eh]
	 Opposite-Spin Energy      =      -1.9809244485286492 [Eh]
	 Correlation Energy        =      -2.6249142327579467 [Eh]
	 Total Energy              =    -592.9505138798871258 [Eh]

	 ================> DF-SCS-MP2 Energies <==================
	-----------------------------------------------------------
	 SCS Same-Spin Scale       =       0.3333333333333333 [-]
	 SCS Opposite-Spin Scale   =       1.2000000000000000 [-]
	 SCS Same-Spin Energy      =      -0.2146632614097657 [Eh]
	 SCS Opposite-Spin Energy  =      -2.3771093382343791 [Eh]
	 SCS Correlation Energy    =      -2.5917725996441447 [Eh]
	 SCS Total Energy          =    -592.9173722467733114 [Eh]
	-----------------------------------------------------------

  Dipole Moment: [D]
     X:     2.0391      Y:    -0.2257      Z:     0.1424     Total:     2.0565

*** Psi4 exiting successfully. Buy a developer a beer!
