                               Psi4 1.4a3.dev225

  ==> Input File <==

--------------------------------------------------------------------------
#psi4
#
memory 32 gb

molecule  {
0 1
  O       -0.4771680     1.3164760     0.3008390
  N        0.7985240    -0.5535590    -0.2772820
  C        3.2200150    -0.4235850    -0.1586420
  C        0.7425440     0.7008700     0.1517020
  C       -1.6364509     0.5131623     0.1486133
  C        3.1140170     0.9030370     0.2913960
  C        1.8654780     1.4834140     0.4539590
  C        2.0264240    -1.0936290    -0.4226860
  C        4.5555360    -1.0893210    -0.3460000
  C       -1.9196720    -0.4880720     1.0459920
  C       -2.4970780     0.8728280    -0.8843220
  C       -3.1225630    -1.1795470     0.9070330
  C       -3.7017300     0.1773150    -1.0087090
  C       -4.0153870    -0.8504980    -0.1174150
  H        4.0120030     1.4769520     0.5152690
  H        1.7375180     2.5038470     0.8013060
  H        2.0412640    -2.1246280    -0.7760920
  H        5.1157190    -1.1239590     0.5937180
  H        4.4318450    -2.1155640    -0.7023530
  H        5.1668890    -0.5502680    -1.0765200
  H       -1.2183070    -0.7290930     1.8393240
  H       -2.2288450     1.6771480    -1.5635320
  H       -3.3650020    -1.9773860     1.6048690
  H       -4.3932510     0.4394220    -1.8057380
  H       -4.9525670    -1.3919050    -0.2175730
units angstrom
no_reorient  #important for SAPT in psi4, default
symmetry c1  #important for SAPT in psi4, default
}

set PROPERTIES_ORIGIN ["COM"]
properties('MP2/aug-cc-pvtz', properties = ['dipole'])
--------------------------------------------------------------------------

    Molecular point group: c1
  Charge       = 0
  Multiplicity = 1
  Basis Set: AUG-CC-PVTZ
    Blend: AUG-CC-PVTZ
  Basis Set: (AUG-CC-PVTZ AUX)
    Blend: AUG-CC-PVTZ-JKFIT

    Orbital Energies [Eh]
    ---------------------

    Doubly Occupied:

       1A    -20.595882     2A    -15.562090     3A    -11.339072
       4A    -11.294897     5A    -11.276369     6A    -11.260484
       7A    -11.242116     8A    -11.239892     9A    -11.237845
      10A    -11.237566    11A    -11.232739    12A    -11.232072
      13A    -11.231426    14A    -11.231196    15A     -1.422984
      16A     -1.251693    17A     -1.149239    18A     -1.101590
      19A     -1.051372    20A     -1.017837    21A     -1.005066
      22A     -0.941725    23A     -0.875860    24A     -0.841075
      25A     -0.831778    26A     -0.800842    27A     -0.734636
      28A     -0.703304    29A     -0.679481    30A     -0.653800
      31A     -0.642014    32A     -0.626141    33A     -0.609619
      34A     -0.594009    35A     -0.592968    36A     -0.586710
      37A     -0.569074    38A     -0.561635    39A     -0.548643
      40A     -0.520117    41A     -0.512954    42A     -0.510947
      43A     -0.495549    44A     -0.479470    45A     -0.427117
      46A     -0.383540    47A     -0.337060    48A     -0.332931
      49A     -0.314333

  @DF-RHF Final Energy:  -590.33070653732830

   => Energetics <=

    Nuclear Repulsion Energy =            801.6780768348987749
    One-Electron Energy =               -2392.1760458538847161
    Two-Electron Energy =                1000.1672624816576445
    Total Energy =                       -590.3307065373282967
  Basis Set: (AUG-CC-PVTZ AUX)
    Blend: AUG-CC-PVTZ-RI
    Molecular point group: c1

    Geometry (in Angstrom), charge = 0, multiplicity = 1:

       Center              X                  Y                   Z               Mass
    ------------   -----------------  -----------------  -----------------  -----------------
         O           -0.442157206242     1.296641700386     0.296156443790    15.994914619570
         N            0.833534793758    -0.573393299614    -0.281964556210    14.003074004430
         C            3.255025793758    -0.443419299614    -0.163324556210    12.000000000000
         C            0.777554793758     0.681035700386     0.147019443790    12.000000000000
         C           -1.601440106242     0.493328000386     0.143930743790    12.000000000000
         C            3.149027793758     0.883202700386     0.286713443790    12.000000000000
         C            1.900488793758     1.463579700386     0.449276443790    12.000000000000
         C            2.061434793758    -1.113463299614    -0.427368556210    12.000000000000
         C            4.590546793758    -1.109155299614    -0.350682556210    12.000000000000
         C           -1.884661206242    -0.507906299614     1.041309443790    12.000000000000
         C           -2.462067206242     0.852993700386    -0.889004556210    12.000000000000
         C           -3.087552206242    -1.199381299614     0.902350443790    12.000000000000
         C           -3.666719206242     0.157480700386    -1.013391556210    12.000000000000
         C           -3.980376206242    -0.870332299614    -0.122097556210    12.000000000000
         H            4.047013793758     1.457117700386     0.510586443790     1.007825032230
         H            1.772528793758     2.484012700386     0.796623443790     1.007825032230
         H            2.076274793758    -2.144462299614    -0.780774556210     1.007825032230
         H            5.150729793758    -1.143793299614     0.589035443790     1.007825032230
         H            4.466855793758    -2.135398299614    -0.707035556210     1.007825032230
         H            5.201899793758    -0.570102299614    -1.081202556210     1.007825032230
         H           -1.183296206242    -0.748927299614     1.834641443790     1.007825032230
         H           -2.193834206242     1.657313700386    -1.568214556210     1.007825032230
         H           -3.329991206242    -1.997220299614     1.600186443790     1.007825032230
         H           -4.358240206242     0.419587700386    -1.810420556210     1.007825032230
         H           -4.917556206242    -1.411739299614    -0.222255556210     1.007825032230

  Basis Set: AUG-CC-PVTZ
    Blend: AUG-CC-PVTZ
  Basis Set: (AUG-CC-PVTZ AUX)
    Blend: AUG-CC-PVTZ-JKFIT
	 Reference Energy          =    -590.3307065373282967 [Eh]
	 Singles Energy            =      -0.0000000000000000 [Eh]
	 Same-Spin Energy          =      -0.6439922765045322 [Eh]
	 Opposite-Spin Energy      =      -1.9816041234091810 [Eh]
	 Correlation Energy        =      -2.6255963999137131 [Eh]
	 Total Energy              =    -592.9563029372419578 [Eh]

	 ================> DF-SCS-MP2 Energies <==================
	-----------------------------------------------------------
	 SCS Same-Spin Scale       =       0.3333333333333333 [-]
	 SCS Opposite-Spin Scale   =       1.2000000000000000 [-]
	 SCS Same-Spin Energy      =      -0.2146640921681774 [Eh]
	 SCS Opposite-Spin Energy  =      -2.3779249480910170 [Eh]
	 SCS Correlation Energy    =      -2.5925890402591945 [Eh]
	 SCS Total Energy          =    -592.9232955775875098 [Eh]
	-----------------------------------------------------------

  Dipole Moment: [D]
     X:     1.8579      Y:    -0.2209      Z:     0.1563     Total:     1.8775

*** Psi4 exiting successfully. Buy a developer a beer!
