                               Psi4 1.4a3.dev225

  ==> Input File <==

--------------------------------------------------------------------------
#psi4
#
memory 32 gb

molecule  {
0 1
  O       -0.4771680     1.3164760     0.3008390
  N        0.7985240    -0.5535590    -0.2772820
  C        3.2200150    -0.4235850    -0.1586420
  C        0.7425440     0.7008700     0.1517020
  C       -1.6208490     0.5302780     0.1412880
  C        3.1140170     0.9030370     0.2913960
  C        1.8654780     1.4834140     0.4539590
  C        2.1081316    -1.2087723    -0.4595304
  C        4.5555360    -1.0893210    -0.3460000
  C       -1.9196720    -0.4880720     1.0459920
  C       -2.4970780     0.8728280    -0.8843220
  C       -3.1225630    -1.1795470     0.9070330
  C       -3.7017300     0.1773150    -1.0087090
  C       -4.0153870    -0.8504980    -0.1174150
  H        4.0120030     1.4769520     0.5152690
  H        1.7375180     2.5038470     0.8013060
  H        2.0412640    -2.1246280    -0.7760920
  H        5.1157190    -1.1239590     0.5937180
  H        4.4318450    -2.1155640    -0.7023530
  H        5.1668890    -0.5502680    -1.0765200
  H       -1.2183070    -0.7290930     1.8393240
  H       -2.2288450     1.6771480    -1.5635320
  H       -3.3650020    -1.9773860     1.6048690
  H       -4.3932510     0.4394220    -1.8057380
  H       -4.9525670    -1.3919050    -0.2175730
units angstrom
no_reorient  #important for SAPT in psi4, default
symmetry c1  #important for SAPT in psi4, default
}

set PROPERTIES_ORIGIN ["COM"]
properties('MP2/aug-cc-pvtz', properties = ['dipole'])
--------------------------------------------------------------------------

    Molecular point group: c1
  Charge       = 0
  Multiplicity = 1
  Basis Set: AUG-CC-PVTZ
    Blend: AUG-CC-PVTZ
  Basis Set: (AUG-CC-PVTZ AUX)
    Blend: AUG-CC-PVTZ-JKFIT

    Orbital Energies [Eh]
    ---------------------

    Doubly Occupied:

       1A    -20.597301     2A    -15.564440     3A    -11.338698
       4A    -11.294249     5A    -11.278354     6A    -11.264066
       7A    -11.250332     8A    -11.247172     9A    -11.235274
      10A    -11.235144    11A    -11.231163    12A    -11.230459
      13A    -11.229894    14A    -11.229053    15A     -1.428739
      16A     -1.222435    17A     -1.143931    18A     -1.097814
      19A     -1.055332    20A     -1.013714    21A     -1.003688
      22A     -0.941080    23A     -0.889247    24A     -0.838501
      25A     -0.829326    26A     -0.794046    27A     -0.740127
      28A     -0.698112    29A     -0.676858    30A     -0.655555
      31A     -0.653430    32A     -0.637988    33A     -0.614391
      34A     -0.597634    35A     -0.589739    36A     -0.585018
      37A     -0.567302    38A     -0.563099    39A     -0.545391
      40A     -0.523767    41A     -0.510489    42A     -0.505769
      43A     -0.490452    44A     -0.472025    45A     -0.418310
      46A     -0.373537    47A     -0.335201    48A     -0.333243
      49A     -0.315708

  @DF-RHF Final Energy:  -590.30001368263868

   => Energetics <=

    Nuclear Repulsion Energy =            799.0760602217613950
    One-Electron Energy =               -2386.9789497070137259
    Two-Electron Energy =                 997.6028758026135392
    Total Energy =                       -590.3000136826386779
  Basis Set: (AUG-CC-PVTZ AUX)
    Blend: AUG-CC-PVTZ-RI
    Molecular point group: c1

    Geometry (in Angstrom), charge = 0, multiplicity = 1:

       Center              X                  Y                   Z               Mass
    ------------   -----------------  -----------------  -----------------  -----------------
         O           -0.448466306955     1.302997359403     0.299020204119    15.994914619570
         N            0.827225693045    -0.567037640597    -0.279100795881    14.003074004430
         C            3.248716693045    -0.437063640597    -0.160460795881    12.000000000000
         C            0.771245693045     0.687391359403     0.149883204119    12.000000000000
         C           -1.592147306955     0.516799359403     0.139469204119    12.000000000000
         C            3.142718693045     0.889558359403     0.289577204119    12.000000000000
         C            1.894179693045     1.469935359403     0.452140204119    12.000000000000
         C            2.136833293045    -1.222250940597    -0.461349195881    12.000000000000
         C            4.584237693045    -1.102799640597    -0.347818795881    12.000000000000
         C           -1.890970306955    -0.501550640597     1.044173204119    12.000000000000
         C           -2.468376306955     0.859349359403    -0.886140795881    12.000000000000
         C           -3.093861306955    -1.193025640597     0.905214204119    12.000000000000
         C           -3.673028306955     0.163836359403    -1.010527795881    12.000000000000
         C           -3.986685306955    -0.863976640597    -0.119233795881    12.000000000000
         H            4.040704693045     1.463473359403     0.513450204119     1.007825032230
         H            1.766219693045     2.490368359403     0.799487204119     1.007825032230
         H            2.069965693045    -2.138106640597    -0.777910795881     1.007825032230
         H            5.144420693045    -1.137437640597     0.591899204119     1.007825032230
         H            4.460546693045    -2.129042640597    -0.704171795881     1.007825032230
         H            5.195590693045    -0.563746640597    -1.078338795881     1.007825032230
         H           -1.189605306955    -0.742571640597     1.837505204119     1.007825032230
         H           -2.200143306955     1.663669359403    -1.565350795881     1.007825032230
         H           -3.336300306955    -1.990864640597     1.603050204119     1.007825032230
         H           -4.364549306955     0.425943359403    -1.807556795881     1.007825032230
         H           -4.923865306955    -1.405383640597    -0.219391795881     1.007825032230

  Basis Set: AUG-CC-PVTZ
    Blend: AUG-CC-PVTZ
  Basis Set: (AUG-CC-PVTZ AUX)
    Blend: AUG-CC-PVTZ-JKFIT
	 Reference Energy          =    -590.3000136826386779 [Eh]
	 Singles Energy            =      -0.0000000000000000 [Eh]
	 Same-Spin Energy          =      -0.6446093144362397 [Eh]
	 Opposite-Spin Energy      =      -1.9855302722528436 [Eh]
	 Correlation Energy        =      -2.6301395866890833 [Eh]
	 Total Energy              =    -592.9301532693277750 [Eh]

	 ================> DF-SCS-MP2 Energies <==================
	-----------------------------------------------------------
	 SCS Same-Spin Scale       =       0.3333333333333333 [-]
	 SCS Opposite-Spin Scale   =       1.2000000000000000 [-]
	 SCS Same-Spin Energy      =      -0.2148697714787466 [Eh]
	 SCS Opposite-Spin Energy  =      -2.3826363267034121 [Eh]
	 SCS Correlation Energy    =      -2.5975060981821585 [Eh]
	 SCS Total Energy          =    -592.8975197808208577 [Eh]
	-----------------------------------------------------------

  Dipole Moment: [D]
     X:     2.1912      Y:    -0.2452      Z:     0.1422     Total:     2.2095

*** Psi4 exiting successfully. Buy a developer a beer!
