                               Psi4 1.4a3.dev225

  ==> Input File <==

--------------------------------------------------------------------------
#psi4
#
memory 32 gb

molecule  {
0 1
  O       -0.4771680     1.3164760     0.3008390
  N        0.7985240    -0.5535590    -0.2772820
  C        3.2200150    -0.4235850    -0.1586420
  C        0.7425440     0.7008700     0.1517020
  C       -1.6208490     0.5302780     0.1412880
  C        3.1140170     0.9030370     0.2913960
  C        1.8654780     1.4834140     0.4539590
  C        2.0264240    -1.0936290    -0.4226860
  C        4.5555360    -1.0893210    -0.3460000
  C       -1.9196720    -0.4880720     1.0459920
  C       -2.4970780     0.8728280    -0.8843220
  C       -3.1225630    -1.1795470     0.9070330
  C       -3.7017300     0.1773150    -1.0087090
  C       -4.0153870    -0.8504980    -0.1174150
  H        4.0120030     1.4769520     0.5152690
  H        1.7375180     2.5038470     0.8013060
  H        2.0412640    -2.1246280    -0.7760920
  H        5.1157190    -1.1239590     0.5937180
  H        4.4318450    -2.1155640    -0.7023530
  H        5.1668890    -0.5502680    -1.0765200
  H       -1.0891413    -0.7734802     1.9854267
  H       -2.2288450     1.6771480    -1.5635320
  H       -3.3650020    -1.9773860     1.6048690
  H       -4.3932510     0.4394220    -1.8057380
  H       -4.9525670    -1.3919050    -0.2175730
units angstrom
no_reorient  #important for SAPT in psi4, default
symmetry c1  #important for SAPT in psi4, default
}

set PROPERTIES_ORIGIN ["COM"]
properties('MP2/aug-cc-pvtz', properties = ['dipole'])
--------------------------------------------------------------------------

    Molecular point group: c1
  Charge       = 0
  Multiplicity = 1
  Basis Set: AUG-CC-PVTZ
    Blend: AUG-CC-PVTZ
  Basis Set: (AUG-CC-PVTZ AUX)
    Blend: AUG-CC-PVTZ-JKFIT

    Orbital Energies [Eh]
    ---------------------

    Doubly Occupied:

       1A    -20.598536     2A    -15.562822     3A    -11.340307
       4A    -11.298080     5A    -11.276855     6A    -11.261029
       7A    -11.253237     8A    -11.242843     9A    -11.240801
      10A    -11.238711    11A    -11.237733    12A    -11.233036
      13A    -11.232498    14A    -11.232095    15A     -1.430585
      16A     -1.253005    17A     -1.146659    18A     -1.102224
      19A     -1.052922    20A     -1.013161    21A     -1.003214
      22A     -0.942492    23A     -0.877211    24A     -0.839473
      25A     -0.828758    26A     -0.799554    27A     -0.735075
      28A     -0.704170    29A     -0.672140    30A     -0.654402
      31A     -0.642251    32A     -0.622003    33A     -0.610276
      34A     -0.594615    35A     -0.590748    36A     -0.577981
      37A     -0.565288    38A     -0.559322    39A     -0.549223
      40A     -0.520794    41A     -0.512886    42A     -0.506957
      43A     -0.491542    44A     -0.473321    45A     -0.427434
      46A     -0.383889    47A     -0.336715    48A     -0.333066
      49A     -0.313971

  @DF-RHF Final Energy:  -590.30896031163911

   => Energetics <=

    Nuclear Repulsion Energy =            800.8506524791797574
    One-Electron Energy =               -2390.4874043996028377
    Two-Electron Energy =                 999.3277916087840822
    Total Energy =                       -590.3089603116391118
  Basis Set: (AUG-CC-PVTZ AUX)
    Blend: AUG-CC-PVTZ-RI
    Molecular point group: c1

    Geometry (in Angstrom), charge = 0, multiplicity = 1:

       Center              X                  Y                   Z               Mass
    ------------   -----------------  -----------------  -----------------  -----------------
         O           -0.443872098486     1.295773695517     0.295835819977    15.994914619570
         N            0.831819901514    -0.574261304483    -0.282285180023    14.003074004430
         C            3.253310901514    -0.444287304483    -0.163645180023    12.000000000000
         C            0.775839901514     0.680167695517     0.146698819977    12.000000000000
         C           -1.587553098486     0.509575695517     0.136284819977    12.000000000000
         C            3.147312901514     0.882334695517     0.286392819977    12.000000000000
         C            1.898773901514     1.462711695517     0.448955819977    12.000000000000
         C            2.059719901514    -1.114331304483    -0.427689180023    12.000000000000
         C            4.588831901514    -1.110023304483    -0.351003180023    12.000000000000
         C           -1.886376098486    -0.508774304483     1.040988819977    12.000000000000
         C           -2.463782098486     0.852125695517    -0.889325180023    12.000000000000
         C           -3.089267098486    -1.200249304483     0.902029819977    12.000000000000
         C           -3.668434098486     0.156612695517    -1.013712180023    12.000000000000
         C           -3.982091098486    -0.871200304483    -0.122418180023    12.000000000000
         H            4.045298901514     1.456249695517     0.510265819977     1.007825032230
         H            1.770813901514     2.483144695517     0.796302819977     1.007825032230
         H            2.074559901514    -2.145330304483    -0.781095180023     1.007825032230
         H            5.149014901514    -1.144661304483     0.588714819977     1.007825032230
         H            4.465140901514    -2.136266304483    -0.707356180023     1.007825032230
         H            5.200184901514    -0.570970304483    -1.081523180023     1.007825032230
         H           -1.055845398486    -0.794182504483     1.980423519977     1.007825032230
         H           -2.195549098486     1.656445695517    -1.568535180023     1.007825032230
         H           -3.331706098486    -1.998088304483     1.599865819977     1.007825032230
         H           -4.359955098486     0.418719695517    -1.810741180023     1.007825032230
         H           -4.919271098486    -1.412607304483    -0.222576180023     1.007825032230

  Basis Set: AUG-CC-PVTZ
    Blend: AUG-CC-PVTZ
  Basis Set: (AUG-CC-PVTZ AUX)
    Blend: AUG-CC-PVTZ-JKFIT
	 Reference Energy          =    -590.3089603116391118 [Eh]
	 Singles Energy            =      -0.0000000000000000 [Eh]
	 Same-Spin Energy          =      -0.6446367080321365 [Eh]
	 Opposite-Spin Energy      =      -1.9837463611701256 [Eh]
	 Correlation Energy        =      -2.6283830692022621 [Eh]
	 Total Energy              =    -592.9373433808414120 [Eh]

	 ================> DF-SCS-MP2 Energies <==================
	-----------------------------------------------------------
	 SCS Same-Spin Scale       =       0.3333333333333333 [-]
	 SCS Opposite-Spin Scale   =       1.2000000000000000 [-]
	 SCS Same-Spin Energy      =      -0.2148789026773788 [Eh]
	 SCS Opposite-Spin Energy  =      -2.3804956334041507 [Eh]
	 SCS Correlation Energy    =      -2.5953745360815295 [Eh]
	 SCS Total Energy          =    -592.9043348477206337 [Eh]
	-----------------------------------------------------------

  Dipole Moment: [D]
     X:     1.9587      Y:    -0.1836      Z:     0.1124     Total:     1.9705

*** Psi4 exiting successfully. Buy a developer a beer!
