                               Psi4 1.4a3.dev225

  ==> Input File <==

--------------------------------------------------------------------------
#psi4
#
memory 32 gb

molecule  {
0 1
  O       -0.4771680     1.3164760     0.3008390
  N        0.7985240    -0.5535590    -0.2772820
  C        3.2200150    -0.4235850    -0.1586420
  C        0.7425440     0.7008700     0.1517020
  C       -1.6208490     0.5302780     0.1412880
  C        3.1140170     0.9030370     0.2913960
  C        1.8654780     1.4834140     0.4539590
  C        2.0264240    -1.0936290    -0.4226860
  C        4.5555360    -1.0893210    -0.3460000
  C       -1.9196720    -0.4880720     1.0459920
  C       -2.4970780     0.8728280    -0.8843220
  C       -3.1225630    -1.1795470     0.9070330
  C       -3.7017300     0.1773150    -1.0087090
  C       -3.9704547    -0.7032608    -0.2450955
  H        4.0120030     1.4769520     0.5152690
  H        1.7375180     2.5038470     0.8013060
  H        2.0412640    -2.1246280    -0.7760920
  H        5.1157190    -1.1239590     0.5937180
  H        4.4318450    -2.1155640    -0.7023530
  H        5.1668890    -0.5502680    -1.0765200
  H       -1.2183070    -0.7290930     1.8393240
  H       -2.2288450     1.6771480    -1.5635320
  H       -3.3650020    -1.9773860     1.6048690
  H       -4.3932510     0.4394220    -1.8057380
  H       -4.9525670    -1.3919050    -0.2175730
units angstrom
no_reorient  #important for SAPT in psi4, default
symmetry c1  #important for SAPT in psi4, default
}

set PROPERTIES_ORIGIN ["COM"]
properties('MP2/aug-cc-pvtz', properties = ['dipole'])
--------------------------------------------------------------------------

    Molecular point group: c1
  Charge       = 0
  Multiplicity = 1
  Basis Set: AUG-CC-PVTZ
    Blend: AUG-CC-PVTZ
  Basis Set: (AUG-CC-PVTZ AUX)
    Blend: AUG-CC-PVTZ-JKFIT

    Orbital Energies [Eh]
    ---------------------

    Doubly Occupied:

       1A    -20.598169     2A    -15.563729     3A    -11.340516
       4A    -11.294306     5A    -11.277414     6A    -11.261474
       7A    -11.245889     8A    -11.243313     9A    -11.241156
      10A    -11.234064    11A    -11.232837    12A    -11.229753
      13A    -11.225258    14A    -11.207658    15A     -1.430226
      16A     -1.253592    17A     -1.163105    18A     -1.102714
      19A     -1.058171    20A     -1.032677    21A     -0.995544
      22A     -0.942117    23A     -0.878467    24A     -0.841729
      25A     -0.834606    26A     -0.794030    27A     -0.738234
      28A     -0.704667    29A     -0.668614    30A     -0.659471
      31A     -0.642085    32A     -0.627241    33A     -0.614069
      34A     -0.603377    35A     -0.592563    36A     -0.585731
      37A     -0.570380    38A     -0.561977    39A     -0.548996
      40A     -0.525360    41A     -0.521205    42A     -0.506692
      43A     -0.488014    44A     -0.453190    45A     -0.428840
      46A     -0.384768    47A     -0.358842    48A     -0.323820
      49A     -0.313188

  @DF-RHF Final Energy:  -590.26968087996067

   => Energetics <=

    Nuclear Repulsion Energy =            804.0080088379880863
    One-Electron Energy =               -2396.6677075999523367
    Two-Electron Energy =                1002.3900178820034625
    Total Energy =                       -590.2696808799606742
  Basis Set: (AUG-CC-PVTZ AUX)
    Blend: AUG-CC-PVTZ-RI
    Molecular point group: c1

    Geometry (in Angstrom), charge = 0, multiplicity = 1:

       Center              X                  Y                   Z               Mass
    ------------   -----------------  -----------------  -----------------  -----------------
         O           -0.446081965534     1.285985813771     0.304909599330    15.994914619570
         N            0.829610034466    -0.584049186229    -0.273211400670    14.003074004430
         C            3.251101034466    -0.454075186229    -0.154571400670    12.000000000000
         C            0.773630034466     0.670379813771     0.155772599330    12.000000000000
         C           -1.589762965534     0.499787813771     0.145358599330    12.000000000000
         C            3.145103034466     0.872546813771     0.295466599330    12.000000000000
         C            1.896564034466     1.452923813771     0.458029599330    12.000000000000
         C            2.057510034466    -1.124119186229    -0.418615400670    12.000000000000
         C            4.586622034466    -1.119811186229    -0.341929400670    12.000000000000
         C           -1.888585965534    -0.518562186229     1.050062599330    12.000000000000
         C           -2.465991965534     0.842337813771    -0.880251400670    12.000000000000
         C           -3.091476965534    -1.210037186229     0.911103599330    12.000000000000
         C           -3.670643965534     0.146824813771    -1.004638400670    12.000000000000
         C           -3.939368665534    -0.733750986229    -0.241024900670    12.000000000000
         H            4.043089034466     1.446461813771     0.519339599330     1.007825032230
         H            1.768604034466     2.473356813771     0.805376599330     1.007825032230
         H            2.072350034466    -2.155118186229    -0.772021400670     1.007825032230
         H            5.146805034466    -1.154449186229     0.597788599330     1.007825032230
         H            4.462931034466    -2.146054186229    -0.698282400670     1.007825032230
         H            5.197975034466    -0.580758186229    -1.072449400670     1.007825032230
         H           -1.187220965534    -0.759583186229     1.843394599330     1.007825032230
         H           -2.197758965534     1.646657813771    -1.559461400670     1.007825032230
         H           -3.333915965534    -2.007876186229     1.608939599330     1.007825032230
         H           -4.362164965534     0.408931813771    -1.801667400670     1.007825032230
         H           -4.921480965534    -1.422395186229    -0.213502400670     1.007825032230

  Basis Set: AUG-CC-PVTZ
    Blend: AUG-CC-PVTZ
  Basis Set: (AUG-CC-PVTZ AUX)
    Blend: AUG-CC-PVTZ-JKFIT
	 Reference Energy          =    -590.2696808799606742 [Eh]
	 Singles Energy            =      -0.0000000000000000 [Eh]
	 Same-Spin Energy          =      -0.6432881356340242 [Eh]
	 Opposite-Spin Energy      =      -1.9827984904956439 [Eh]
	 Correlation Energy        =      -2.6260866261296680 [Eh]
	 Total Energy              =    -592.8957675060903512 [Eh]

	 ================> DF-SCS-MP2 Energies <==================
	-----------------------------------------------------------
	 SCS Same-Spin Scale       =       0.3333333333333333 [-]
	 SCS Opposite-Spin Scale   =       1.2000000000000000 [-]
	 SCS Same-Spin Energy      =      -0.2144293785446747 [Eh]
	 SCS Opposite-Spin Energy  =      -2.3793581885947725 [Eh]
	 SCS Correlation Energy    =      -2.5937875671394472 [Eh]
	 SCS Total Energy          =    -592.8634684471001037 [Eh]
	-----------------------------------------------------------

  Dipole Moment: [D]
     X:     2.0797      Y:    -0.1847      Z:     0.2103     Total:     2.0985

*** Psi4 exiting successfully. Buy a developer a beer!
