                               Psi4 1.4a3.dev225

  ==> Input File <==

--------------------------------------------------------------------------
#psi4
#
memory 32 gb

molecule  {
0 1
  O       -0.4771680     1.3164760     0.3008390
  N        0.7985240    -0.5535590    -0.2772820
  C        3.2200150    -0.4235850    -0.1586420
  C        0.7425440     0.7008700     0.1517020
  C       -1.6208490     0.5302780     0.1412880
  C        3.1140170     0.9030370     0.2913960
  C        1.8654780     1.4834140     0.4539590
  C        2.0264240    -1.0936290    -0.4226860
  C        4.5555360    -1.0893210    -0.3460000
  C       -1.9196720    -0.4880720     1.0459920
  C       -2.4970780     0.8728280    -0.8843220
  C       -3.1225630    -1.1795470     0.9070330
  C       -3.7017300     0.1773150    -1.0087090
  C       -3.9729875    -0.8426064    -0.0947260
  H        4.0120030     1.4769520     0.5152690
  H        1.7375180     2.5038470     0.8013060
  H        2.0412640    -2.1246280    -0.7760920
  H        5.1157190    -1.1239590     0.5937180
  H        4.4318450    -2.1155640    -0.7023530
  H        5.1668890    -0.5502680    -1.0765200
  H       -1.2183070    -0.7290930     1.8393240
  H       -2.2288450     1.6771480    -1.5635320
  H       -3.3650020    -1.9773860     1.6048690
  H       -4.3932510     0.4394220    -1.8057380
  H       -4.9525670    -1.3919050    -0.2175730
units angstrom
no_reorient  #important for SAPT in psi4, default
symmetry c1  #important for SAPT in psi4, default
}

set PROPERTIES_ORIGIN ["COM"]
properties('MP2/aug-cc-pvtz', properties = ['dipole'])
--------------------------------------------------------------------------

    Molecular point group: c1
  Charge       = 0
  Multiplicity = 1
  Basis Set: AUG-CC-PVTZ
    Blend: AUG-CC-PVTZ
  Basis Set: (AUG-CC-PVTZ AUX)
    Blend: AUG-CC-PVTZ-JKFIT

    Orbital Energies [Eh]
    ---------------------

    Doubly Occupied:

       1A    -20.598130     2A    -15.563166     3A    -11.340485
       4A    -11.294468     5A    -11.277161     6A    -11.261293
       7A    -11.243053     8A    -11.240984     9A    -11.236486
      10A    -11.232664    11A    -11.232517    12A    -11.231692
      13A    -11.231330    14A    -11.229332    15A     -1.430294
      16A     -1.253272    17A     -1.150366    18A     -1.102468
      19A     -1.053454    20A     -1.017965    21A     -1.003821
      22A     -0.942770    23A     -0.877085    24A     -0.843730
      25A     -0.830784    26A     -0.799552    27A     -0.737525
      28A     -0.704605    29A     -0.673858    30A     -0.657100
      31A     -0.642688    32A     -0.627021    33A     -0.611069
      34A     -0.596552    35A     -0.592833    36A     -0.587070
      37A     -0.569611    38A     -0.562488    39A     -0.548939
      40A     -0.520972    41A     -0.516874    42A     -0.501095
      43A     -0.494933    44A     -0.479494    45A     -0.428100
      46A     -0.384302    47A     -0.337650    48A     -0.332881
      49A     -0.313541

  @DF-RHF Final Energy:  -590.32863840794721

   => Energetics <=

    Nuclear Repulsion Energy =            802.6296627840878273
    One-Electron Energy =               -2394.0375580139493650
    Two-Electron Energy =                1001.0792568219142140
    Total Energy =                       -590.3286384079472100
  Basis Set: (AUG-CC-PVTZ AUX)
    Blend: AUG-CC-PVTZ-RI
    Molecular point group: c1

    Geometry (in Angstrom), charge = 0, multiplicity = 1:

       Center              X                  Y                   Z               Mass
    ------------   -----------------  -----------------  -----------------  -----------------
         O           -0.445917750424     1.295020341996     0.295160332099    15.994914619570
         N            0.829774249576    -0.575014658004    -0.282960667901    14.003074004430
         C            3.251265249576    -0.445040658004    -0.164320667901    12.000000000000
         C            0.773794249576     0.679414341996     0.146023332099    12.000000000000
         C           -1.589598750424     0.508822341996     0.135609332099    12.000000000000
         C            3.145267249576     0.881581341996     0.285717332099    12.000000000000
         C            1.896728249576     1.461958341996     0.448280332099    12.000000000000
         C            2.057674249576    -1.115084658004    -0.428364667901    12.000000000000
         C            4.586786249576    -1.110776658004    -0.351678667901    12.000000000000
         C           -1.888421750424    -0.509527658004     1.040313332099    12.000000000000
         C           -2.465827750424     0.851372341996    -0.890000667901    12.000000000000
         C           -3.091312750424    -1.201002658004     0.901354332099    12.000000000000
         C           -3.670479750424     0.155859341996    -1.014387667901    12.000000000000
         C           -3.941737250424    -0.864062058004    -0.100404667901    12.000000000000
         H            4.043253249576     1.455496341996     0.509590332099     1.007825032230
         H            1.768768249576     2.482391341996     0.795627332099     1.007825032230
         H            2.072514249576    -2.146083658004    -0.781770667901     1.007825032230
         H            5.146969249576    -1.145414658004     0.588039332099     1.007825032230
         H            4.463095249576    -2.137019658004    -0.708031667901     1.007825032230
         H            5.198139249576    -0.571723658004    -1.082198667901     1.007825032230
         H           -1.187056750424    -0.750548658004     1.833645332099     1.007825032230
         H           -2.197594750424     1.655692341996    -1.569210667901     1.007825032230
         H           -3.333751750424    -1.998841658004     1.599190332099     1.007825032230
         H           -4.362000750424     0.417966341996    -1.811416667901     1.007825032230
         H           -4.921316750424    -1.413360658004    -0.223251667901     1.007825032230

  Basis Set: AUG-CC-PVTZ
    Blend: AUG-CC-PVTZ
  Basis Set: (AUG-CC-PVTZ AUX)
    Blend: AUG-CC-PVTZ-JKFIT
	 Reference Energy          =    -590.3286384079472100 [Eh]
	 Singles Energy            =      -0.0000000000000000 [Eh]
	 Same-Spin Energy          =      -0.6441302310911957 [Eh]
	 Opposite-Spin Energy      =      -1.9815043040534217 [Eh]
	 Correlation Energy        =      -2.6256345351446173 [Eh]
	 Total Energy              =    -592.9542729430918371 [Eh]

	 ================> DF-SCS-MP2 Energies <==================
	-----------------------------------------------------------
	 SCS Same-Spin Scale       =       0.3333333333333333 [-]
	 SCS Opposite-Spin Scale   =       1.2000000000000000 [-]
	 SCS Same-Spin Energy      =      -0.2147100770303986 [Eh]
	 SCS Opposite-Spin Energy  =      -2.3778051648641059 [Eh]
	 SCS Correlation Energy    =      -2.5925152418945046 [Eh]
	 SCS Total Energy          =    -592.9211536498416990 [Eh]
	-----------------------------------------------------------

  Dipole Moment: [D]
     X:     2.0176      Y:    -0.1701      Z:     0.1519     Total:     2.0305

*** Psi4 exiting successfully. Buy a developer a beer!
