                               Psi4 1.4a3.dev225

  ==> Input File <==

--------------------------------------------------------------------------
#psi4
#
memory 32 gb

molecule  {
0 1
  O       -0.4771680     1.3164760     0.3008390
  N        0.7985240    -0.5535590    -0.2772820
  C        3.2200150    -0.4235850    -0.1586420
  C        0.7425440     0.7008700     0.1517020
  C       -1.6208490     0.5302780     0.1412880
  C        3.1140170     0.9030370     0.2913960
  C        1.8654780     1.4834140     0.4539590
  C        2.1174281    -1.1336555    -0.4334624
  C        4.5555360    -1.0893210    -0.3460000
  C       -1.9196720    -0.4880720     1.0459920
  C       -2.4970780     0.8728280    -0.8843220
  C       -3.1225630    -1.1795470     0.9070330
  C       -3.7017300     0.1773150    -1.0087090
  C       -4.0153870    -0.8504980    -0.1174150
  H        4.0120030     1.4769520     0.5152690
  H        1.7375180     2.5038470     0.8013060
  H        2.0412640    -2.1246280    -0.7760920
  H        5.1157190    -1.1239590     0.5937180
  H        4.4318450    -2.1155640    -0.7023530
  H        5.1668890    -0.5502680    -1.0765200
  H       -1.2183070    -0.7290930     1.8393240
  H       -2.2288450     1.6771480    -1.5635320
  H       -3.3650020    -1.9773860     1.6048690
  H       -4.3932510     0.4394220    -1.8057380
  H       -4.9525670    -1.3919050    -0.2175730
units angstrom
no_reorient  #important for SAPT in psi4, default
symmetry c1  #important for SAPT in psi4, default
}

set PROPERTIES_ORIGIN ["COM"]
properties('MP2/aug-cc-pvtz', properties = ['dipole'])
--------------------------------------------------------------------------

    Molecular point group: c1
  Charge       = 0
  Multiplicity = 1
  Basis Set: AUG-CC-PVTZ
    Blend: AUG-CC-PVTZ
  Basis Set: (AUG-CC-PVTZ AUX)
    Blend: AUG-CC-PVTZ-JKFIT

    Orbital Energies [Eh]
    ---------------------

    Doubly Occupied:

       1A    -20.598355     2A    -15.563419     3A    -11.339745
       4A    -11.294879     5A    -11.273106     6A    -11.264784
       7A    -11.245586     8A    -11.240870     9A    -11.235811
      10A    -11.235686    11A    -11.231875    12A    -11.231112
      13A    -11.230540    14A    -11.229604    15A     -1.429877
      16A     -1.231218    17A     -1.144745    18A     -1.102887
      19A     -1.056014    20A     -1.014309    21A     -1.004241
      22A     -0.942064    23A     -0.885350    24A     -0.839547
      25A     -0.829282    26A     -0.796175    27A     -0.736917
      28A     -0.699701    29A     -0.678298    30A     -0.654400
      31A     -0.645776    32A     -0.633296    33A     -0.612913
      34A     -0.596598    35A     -0.591423    36A     -0.585938
      37A     -0.568195    38A     -0.563342    39A     -0.545641
      40A     -0.518767    41A     -0.511247    42A     -0.508231
      43A     -0.490949    44A     -0.475025    45A     -0.427445
      46A     -0.374978    47A     -0.339703    48A     -0.333959
      49A     -0.317710

  @DF-RHF Final Energy:  -590.31897386486173

   => Energetics <=

    Nuclear Repulsion Energy =            800.5197357272968475
    One-Electron Energy =               -2389.8743583586297063
    Two-Electron Energy =                 999.0356487664711267
    Total Energy =                       -590.3189738648617322
  Basis Set: (AUG-CC-PVTZ AUX)
    Blend: AUG-CC-PVTZ-RI
    Molecular point group: c1

    Geometry (in Angstrom), charge = 0, multiplicity = 1:

       Center              X                  Y                   Z               Mass
    ------------   -----------------  -----------------  -----------------  -----------------
         O           -0.449069049285     1.298127131353     0.297330074817    15.994914619570
         N            0.826622950715    -0.571907868647    -0.280790925183    14.003074004430
         C            3.248113950715    -0.441933868647    -0.162150925183    12.000000000000
         C            0.770642950715     0.682521131353     0.148193074817    12.000000000000
         C           -1.592750049285     0.511929131353     0.137779074817    12.000000000000
         C            3.142115950715     0.884688131353     0.287887074817    12.000000000000
         C            1.893576950715     1.465065131353     0.450450074817    12.000000000000
         C            2.145527050715    -1.152004368647    -0.436971325183    12.000000000000
         C            4.583634950715    -1.107669868647    -0.349508925183    12.000000000000
         C           -1.891573049285    -0.506420868647     1.042483074817    12.000000000000
         C           -2.468979049285     0.854479131353    -0.887830925183    12.000000000000
         C           -3.094464049285    -1.197895868647     0.903524074817    12.000000000000
         C           -3.673631049285     0.158966131353    -1.012217925183    12.000000000000
         C           -3.987288049285    -0.868846868647    -0.120923925183    12.000000000000
         H            4.040101950715     1.458603131353     0.511760074817     1.007825032230
         H            1.765616950715     2.485498131353     0.797797074817     1.007825032230
         H            2.069362950715    -2.142976868647    -0.779600925183     1.007825032230
         H            5.143817950715    -1.142307868647     0.590209074817     1.007825032230
         H            4.459943950715    -2.133912868647    -0.705861925183     1.007825032230
         H            5.194987950715    -0.568616868647    -1.080028925183     1.007825032230
         H           -1.190208049285    -0.747441868647     1.835815074817     1.007825032230
         H           -2.200746049285     1.658799131353    -1.567040925183     1.007825032230
         H           -3.336903049285    -1.995734868647     1.601360074817     1.007825032230
         H           -4.365152049285     0.421073131353    -1.809246925183     1.007825032230
         H           -4.924468049285    -1.410253868647    -0.221081925183     1.007825032230

  Basis Set: AUG-CC-PVTZ
    Blend: AUG-CC-PVTZ
  Basis Set: (AUG-CC-PVTZ AUX)
    Blend: AUG-CC-PVTZ-JKFIT
	 Reference Energy          =    -590.3189738648617322 [Eh]
	 Singles Energy            =      -0.0000000000000000 [Eh]
	 Same-Spin Energy          =      -0.6437565562912326 [Eh]
	 Opposite-Spin Energy      =      -1.9834361357799075 [Eh]
	 Correlation Energy        =      -2.6271926920711399 [Eh]
	 Total Energy              =    -592.9461665569328943 [Eh]

	 ================> DF-SCS-MP2 Energies <==================
	-----------------------------------------------------------
	 SCS Same-Spin Scale       =       0.3333333333333333 [-]
	 SCS Opposite-Spin Scale   =       1.2000000000000000 [-]
	 SCS Same-Spin Energy      =      -0.2145855187637442 [Eh]
	 SCS Opposite-Spin Energy  =      -2.3801233629358891 [Eh]
	 SCS Correlation Energy    =      -2.5947088816996331 [Eh]
	 SCS Total Energy          =    -592.9136827465613351 [Eh]
	-----------------------------------------------------------

  Dipole Moment: [D]
     X:     2.1213      Y:    -0.1725      Z:     0.1668     Total:     2.1349

*** Psi4 exiting successfully. Buy a developer a beer!
