                               Psi4 1.4a3.dev225

  ==> Input File <==

--------------------------------------------------------------------------
#psi4
#
memory 32 gb

molecule  {
0 1
  O       -0.4771680     1.3164760     0.3008390
  N        0.7985240    -0.5535590    -0.2772820
  C        3.2200150    -0.4235850    -0.1586420
  C        0.7425440     0.7008700     0.1517020
  C       -1.6208490     0.5302780     0.1412880
  C        3.1140170     0.9030370     0.2913960
  C        1.8654780     1.4834140     0.4539590
  C        2.0264240    -1.0936290    -0.4226860
  C        4.5555360    -1.0893210    -0.3460000
  C       -1.9196720    -0.4880720     1.0459920
  C       -2.4970780     0.8728280    -0.8843220
  C       -3.1225630    -1.1795470     0.9070330
  C       -3.7017300     0.1773150    -1.0087090
  C       -4.0153870    -0.8504980    -0.1174150
  H        4.0120030     1.4769520     0.5152690
  H        1.7434121     2.4568440     0.7853066
  H        2.0412640    -2.1246280    -0.7760920
  H        5.1157190    -1.1239590     0.5937180
  H        4.4318450    -2.1155640    -0.7023530
  H        5.1668890    -0.5502680    -1.0765200
  H       -1.2183070    -0.7290930     1.8393240
  H       -2.2288450     1.6771480    -1.5635320
  H       -3.3650020    -1.9773860     1.6048690
  H       -4.3932510     0.4394220    -1.8057380
  H       -4.9525670    -1.3919050    -0.2175730
units angstrom
no_reorient  #important for SAPT in psi4, default
symmetry c1  #important for SAPT in psi4, default
}

set PROPERTIES_ORIGIN ["COM"]
properties('MP2/aug-cc-pvtz', properties = ['dipole'])
--------------------------------------------------------------------------

    Molecular point group: c1
  Charge       = 0
  Multiplicity = 1
  Basis Set: AUG-CC-PVTZ
    Blend: AUG-CC-PVTZ
  Basis Set: (AUG-CC-PVTZ AUX)
    Blend: AUG-CC-PVTZ-JKFIT

    Orbital Energies [Eh]
    ---------------------

    Doubly Occupied:

       1A    -20.598643     2A    -15.563063     3A    -11.340353
       4A    -11.295695     5A    -11.277193     6A    -11.261128
       7A    -11.242952     8A    -11.236747     9A    -11.236647
      10A    -11.235507    11A    -11.232612    12A    -11.232091
      13A    -11.231354    14A    -11.230451    15A     -1.430791
      16A     -1.253240    17A     -1.145893    18A     -1.102864
      19A     -1.054265    20A     -1.015267    21A     -1.003956
      22A     -0.942782    23A     -0.878588    24A     -0.843739
      25A     -0.831276    26A     -0.800903    27A     -0.736797
      28A     -0.705735    29A     -0.679142    30A     -0.655641
      31A     -0.651355    32A     -0.627206    33A     -0.612023
      34A     -0.594763    35A     -0.592079    36A     -0.586105
      37A     -0.569658    38A     -0.563350    39A     -0.549541
      40A     -0.522388    41A     -0.513506    42A     -0.511771
      43A     -0.492707    44A     -0.477555    45A     -0.428347
      46A     -0.384272    47A     -0.335437    48A     -0.332297
      49A     -0.313519

  @DF-RHF Final Energy:  -590.33079987547717

   => Energetics <=

    Nuclear Repulsion Energy =            801.9964665153041778
    One-Electron Energy =               -2392.7481397880565055
    Two-Electron Energy =                1000.4208733972750451
    Total Energy =                       -590.3307998754771688
  Basis Set: (AUG-CC-PVTZ AUX)
    Blend: AUG-CC-PVTZ-RI
    Molecular point group: c1

    Geometry (in Angstrom), charge = 0, multiplicity = 1:

       Center              X                  Y                   Z               Mass
    ------------   -----------------  -----------------  -----------------  -----------------
         O           -0.443200856448     1.295787939146     0.296718502963    15.994914619570
         N            0.832491143552    -0.574247060854    -0.281402497037    14.003074004430
         C            3.253982143552    -0.444273060854    -0.162762497037    12.000000000000
         C            0.776511143552     0.680181939146     0.147581502963    12.000000000000
         C           -1.586881856448     0.509589939146     0.137167502963    12.000000000000
         C            3.147984143552     0.882348939146     0.287275502963    12.000000000000
         C            1.899445143552     1.462725939146     0.449838502963    12.000000000000
         C            2.060391143552    -1.114317060854    -0.426806497037    12.000000000000
         C            4.589503143552    -1.110009060854    -0.350120497037    12.000000000000
         C           -1.885704856448    -0.508760060854     1.041871502963    12.000000000000
         C           -2.463110856448     0.852139939146    -0.888442497037    12.000000000000
         C           -3.088595856448    -1.200235060854     0.902912502963    12.000000000000
         C           -3.667762856448     0.156626939146    -1.012829497037    12.000000000000
         C           -3.981419856448    -0.871186060854    -0.121535497037    12.000000000000
         H            4.045970143552     1.456263939146     0.511148502963     1.007825032230
         H            1.777379243552     2.436155939146     0.781186102963     1.007825032230
         H            2.075231143552    -2.145316060854    -0.780212497037     1.007825032230
         H            5.149686143552    -1.144647060854     0.589597502963     1.007825032230
         H            4.465812143552    -2.136252060854    -0.706473497037     1.007825032230
         H            5.200856143552    -0.570956060854    -1.080640497037     1.007825032230
         H           -1.184339856448    -0.749781060854     1.835203502963     1.007825032230
         H           -2.194877856448     1.656459939146    -1.567652497037     1.007825032230
         H           -3.331034856448    -1.998074060854     1.600748502963     1.007825032230
         H           -4.359283856448     0.418733939146    -1.809858497037     1.007825032230
         H           -4.918599856448    -1.412593060854    -0.221693497037     1.007825032230

  Basis Set: AUG-CC-PVTZ
    Blend: AUG-CC-PVTZ
  Basis Set: (AUG-CC-PVTZ AUX)
    Blend: AUG-CC-PVTZ-JKFIT
	 Reference Energy          =    -590.3307998754771688 [Eh]
	 Singles Energy            =      -0.0000000000000000 [Eh]
	 Same-Spin Energy          =      -0.6438854653504102 [Eh]
	 Opposite-Spin Energy      =      -1.9811343278561602 [Eh]
	 Correlation Energy        =      -2.6250197932065706 [Eh]
	 Total Energy              =    -592.9558196686837164 [Eh]

	 ================> DF-SCS-MP2 Energies <==================
	-----------------------------------------------------------
	 SCS Same-Spin Scale       =       0.3333333333333333 [-]
	 SCS Opposite-Spin Scale   =       1.2000000000000000 [-]
	 SCS Same-Spin Energy      =      -0.2146284884501367 [Eh]
	 SCS Opposite-Spin Energy  =      -2.3773611934273919 [Eh]
	 SCS Correlation Energy    =      -2.5919896818775285 [Eh]
	 SCS Total Energy          =    -592.9227895573546903 [Eh]
	-----------------------------------------------------------

  Dipole Moment: [D]
     X:     2.0152      Y:    -0.1810      Z:     0.1574     Total:     2.0294

*** Psi4 exiting successfully. Buy a developer a beer!
