                               Psi4 1.4a3.dev225

  ==> Input File <==

--------------------------------------------------------------------------
#psi4
#
memory 32 gb

molecule  {
0 1
  O       -0.4771680     1.3164760     0.3008390
  N        0.7985240    -0.5535590    -0.2772820
  C        3.2200150    -0.4235850    -0.1586420
  C        0.7425440     0.7008700     0.1517020
  C       -1.6208490     0.5302780     0.1412880
  C        3.1140170     0.9030370     0.2913960
  C        1.8654780     1.4834140     0.4539590
  C        2.0264240    -1.0936290    -0.4226860
  C        4.5555360    -1.0893210    -0.3460000
  C       -1.9196720    -0.4880720     1.0459920
  C       -2.4970780     0.8728280    -0.8843220
  C       -3.2190377    -1.2817555     0.9478297
  C       -3.7017300     0.1773150    -1.0087090
  C       -4.0153870    -0.8504980    -0.1174150
  H        4.0120030     1.4769520     0.5152690
  H        1.7375180     2.5038470     0.8013060
  H        2.0412640    -2.1246280    -0.7760920
  H        5.1157190    -1.1239590     0.5937180
  H        4.4318450    -2.1155640    -0.7023530
  H        5.1668890    -0.5502680    -1.0765200
  H       -1.2183070    -0.7290930     1.8393240
  H       -2.2288450     1.6771480    -1.5635320
  H       -3.3650020    -1.9773860     1.6048690
  H       -4.3932510     0.4394220    -1.8057380
  H       -4.9525670    -1.3919050    -0.2175730
units angstrom
no_reorient  #important for SAPT in psi4, default
symmetry c1  #important for SAPT in psi4, default
}

set PROPERTIES_ORIGIN ["COM"]
properties('MP2/aug-cc-pvtz', properties = ['dipole'])
--------------------------------------------------------------------------

    Molecular point group: c1
  Charge       = 0
  Multiplicity = 1
  Basis Set: AUG-CC-PVTZ
    Blend: AUG-CC-PVTZ
  Basis Set: (AUG-CC-PVTZ AUX)
    Blend: AUG-CC-PVTZ-JKFIT

    Orbital Energies [Eh]
    ---------------------

    Doubly Occupied:

       1A    -20.598388     2A    -15.562721     3A    -11.340209
       4A    -11.294505     5A    -11.276857     6A    -11.261044
       7A    -11.244346     8A    -11.242793     9A    -11.241154
      10A    -11.240762    11A    -11.237833    12A    -11.235769
      13A    -11.234593    14A    -11.232480    15A     -1.430312
      16A     -1.252899    17A     -1.136228    18A     -1.102196
      19A     -1.052860    20A     -1.011421    21A     -0.999970
      22A     -0.942514    23A     -0.875901    24A     -0.848326
      25A     -0.835890    26A     -0.799187    27A     -0.740986
      28A     -0.704588    29A     -0.674340    30A     -0.651162
      31A     -0.649936    32A     -0.639968    33A     -0.611492
      34A     -0.602519    35A     -0.592617    36A     -0.584475
      37A     -0.565579    38A     -0.561470    39A     -0.548847
      40A     -0.523561    41A     -0.520473    42A     -0.492802
      43A     -0.485798    44A     -0.479086    45A     -0.427387
      46A     -0.383941    47A     -0.335874    48A     -0.325185
      49A     -0.312713

  @DF-RHF Final Energy:  -590.30203783767161

   => Energetics <=

    Nuclear Repulsion Energy =            799.0132176199164178
    One-Electron Energy =               -2386.7386001506251887
    Two-Electron Energy =                 997.4233446930372793
    Total Energy =                       -590.3020378376716053
  Basis Set: (AUG-CC-PVTZ AUX)
    Blend: AUG-CC-PVTZ-RI
    Molecular point group: c1

    Geometry (in Angstrom), charge = 0, multiplicity = 1:

       Center              X                  Y                   Z               Mass
    ------------   -----------------  -----------------  -----------------  -----------------
         O           -0.436913785608     1.302158726423     0.293986312060    15.994914619570
         N            0.838778214392    -0.567876273577    -0.284134687940    14.003074004430
         C            3.260269214392    -0.437902273577    -0.165494687940    12.000000000000
         C            0.782798214392     0.686552726423     0.144849312060    12.000000000000
         C           -1.580594785608     0.515960726423     0.134435312060    12.000000000000
         C            3.154271214392     0.888719726423     0.284543312060    12.000000000000
         C            1.905732214392     1.469096726423     0.447106312060    12.000000000000
         C            2.066678214392    -1.107946273577    -0.429538687940    12.000000000000
         C            4.595790214392    -1.103638273577    -0.352852687940    12.000000000000
         C           -1.879417785608    -0.502389273577     1.039139312060    12.000000000000
         C           -2.456823785608     0.858510726423    -0.891174687940    12.000000000000
         C           -3.178783485608    -1.296072773577     0.940977012060    12.000000000000
         C           -3.661475785608     0.162997726423    -1.015561687940    12.000000000000
         C           -3.975132785608    -0.864815273577    -0.124267687940    12.000000000000
         H            4.052257214392     1.462634726423     0.508416312060     1.007825032230
         H            1.777772214392     2.489529726423     0.794453312060     1.007825032230
         H            2.081518214392    -2.138945273577    -0.782944687940     1.007825032230
         H            5.155973214392    -1.138276273577     0.586865312060     1.007825032230
         H            4.472099214392    -2.129881273577    -0.709205687940     1.007825032230
         H            5.207143214392    -0.564585273577    -1.083372687940     1.007825032230
         H           -1.178052785608    -0.743410273577     1.832471312060     1.007825032230
         H           -2.188590785608     1.662830726423    -1.570384687940     1.007825032230
         H           -3.324747785608    -1.991703273577     1.598016312060     1.007825032230
         H           -4.352996785608     0.425104726423    -1.812590687940     1.007825032230
         H           -4.912312785608    -1.406222273577    -0.224425687940     1.007825032230

  Basis Set: AUG-CC-PVTZ
    Blend: AUG-CC-PVTZ
  Basis Set: (AUG-CC-PVTZ AUX)
    Blend: AUG-CC-PVTZ-JKFIT
	 Reference Energy          =    -590.3020378376716053 [Eh]
	 Singles Energy            =      -0.0000000000000000 [Eh]
	 Same-Spin Energy          =      -0.6443091206128093 [Eh]
	 Opposite-Spin Energy      =      -1.9839172784922192 [Eh]
	 Correlation Energy        =      -2.6282263991050288 [Eh]
	 Total Energy              =    -592.9302642367766794 [Eh]

	 ================> DF-SCS-MP2 Energies <==================
	-----------------------------------------------------------
	 SCS Same-Spin Scale       =       0.3333333333333333 [-]
	 SCS Opposite-Spin Scale   =       1.2000000000000000 [-]
	 SCS Same-Spin Energy      =      -0.2147697068709364 [Eh]
	 SCS Opposite-Spin Energy  =      -2.3807007341906630 [Eh]
	 SCS Correlation Energy    =      -2.5954704410615994 [Eh]
	 SCS Total Energy          =    -592.8975082787331985 [Eh]
	-----------------------------------------------------------

  Dipole Moment: [D]
     X:     1.9992      Y:    -0.2060      Z:     0.1549     Total:     2.0158

*** Psi4 exiting successfully. Buy a developer a beer!
