                               Psi4 1.4a3.dev225

  ==> Input File <==

--------------------------------------------------------------------------
#psi4
#
memory 32 gb

molecule  {
0 1
  O       -0.4771680     1.3164760     0.3008390
  N        0.7985240    -0.5535590    -0.2772820
  C        3.2200150    -0.4235850    -0.1586420
  C        0.6611037     0.8169999     0.1892140
  C       -1.6208490     0.5302780     0.1412880
  C        3.1140170     0.9030370     0.2913960
  C        1.8654780     1.4834140     0.4539590
  C        2.0264240    -1.0936290    -0.4226860
  C        4.5555360    -1.0893210    -0.3460000
  C       -1.9196720    -0.4880720     1.0459920
  C       -2.4970780     0.8728280    -0.8843220
  C       -3.1225630    -1.1795470     0.9070330
  C       -3.7017300     0.1773150    -1.0087090
  C       -4.0153870    -0.8504980    -0.1174150
  H        4.0120030     1.4769520     0.5152690
  H        1.7375180     2.5038470     0.8013060
  H        2.0412640    -2.1246280    -0.7760920
  H        5.1157190    -1.1239590     0.5937180
  H        4.4318450    -2.1155640    -0.7023530
  H        5.1668890    -0.5502680    -1.0765200
  H       -1.2183070    -0.7290930     1.8393240
  H       -2.2288450     1.6771480    -1.5635320
  H       -3.3650020    -1.9773860     1.6048690
  H       -4.3932510     0.4394220    -1.8057380
  H       -4.9525670    -1.3919050    -0.2175730
units angstrom
no_reorient  #important for SAPT in psi4, default
symmetry c1  #important for SAPT in psi4, default
}

set PROPERTIES_ORIGIN ["COM"]
properties('MP2/aug-cc-pvtz', properties = ['dipole'])
--------------------------------------------------------------------------

    Molecular point group: c1
  Charge       = 0
  Multiplicity = 1
  Basis Set: AUG-CC-PVTZ
    Blend: AUG-CC-PVTZ
  Basis Set: (AUG-CC-PVTZ AUX)
    Blend: AUG-CC-PVTZ-JKFIT

    Orbital Energies [Eh]
    ---------------------

    Doubly Occupied:

       1A    -20.622461     2A    -15.556014     3A    -11.348225
       4A    -11.309934     5A    -11.270080     6A    -11.255495
       7A    -11.243889     8A    -11.243583     9A    -11.241412
      10A    -11.241327    11A    -11.238196    12A    -11.231243
      13A    -11.230504    14A    -11.225648    15A     -1.495860
      16A     -1.213892    17A     -1.157611    18A     -1.083598
      19A     -1.055700    20A     -1.023314    21A     -1.013510
      22A     -0.936347    23A     -0.878437    24A     -0.850565
      25A     -0.837423    26A     -0.798991    27A     -0.754807
      28A     -0.710956    29A     -0.685306    30A     -0.677746
      31A     -0.642819    32A     -0.623721    33A     -0.613565
      34A     -0.601093    35A     -0.595277    36A     -0.589783
      37A     -0.576150    38A     -0.557779    39A     -0.539084
      40A     -0.521267    41A     -0.509834    42A     -0.508377
      43A     -0.503249    44A     -0.480257    45A     -0.404679
      46A     -0.372091    47A     -0.342304    48A     -0.335604
      49A     -0.300693

  @DF-RHF Final Energy:  -590.30349224610586

   => Energetics <=

    Nuclear Repulsion Energy =            801.4500923625056430
    One-Electron Energy =               -2391.4077640807581702
    Two-Electron Energy =                 999.6541794721467795
    Total Energy =                       -590.3034922461058613
  Basis Set: (AUG-CC-PVTZ AUX)
    Blend: AUG-CC-PVTZ-RI
    Molecular point group: c1

    Geometry (in Angstrom), charge = 0, multiplicity = 1:

       Center              X                  Y                   Z               Mass
    ------------   -----------------  -----------------  -----------------  -----------------
         O           -0.437888547001     1.288002668124     0.294199276910    15.994914619570
         N            0.837803452999    -0.582032331876    -0.283921723090    14.003074004430
         C            3.259294452999    -0.452058331876    -0.165281723090    12.000000000000
         C            0.700383152999     0.788526568124     0.182574276910    12.000000000000
         C           -1.581569547001     0.501804668124     0.134648276910    12.000000000000
         C            3.153296452999     0.874563668124     0.284756276910    12.000000000000
         C            1.904757452999     1.454940668124     0.447319276910    12.000000000000
         C            2.065703452999    -1.122102331876    -0.429325723090    12.000000000000
         C            4.594815452999    -1.117794331876    -0.352639723090    12.000000000000
         C           -1.880392547001    -0.516545331876     1.039352276910    12.000000000000
         C           -2.457798547001     0.844354668124    -0.890961723090    12.000000000000
         C           -3.083283547001    -1.208020331876     0.900393276910    12.000000000000
         C           -3.662450547001     0.148841668124    -1.015348723090    12.000000000000
         C           -3.976107547001    -0.878971331876    -0.124054723090    12.000000000000
         H            4.051282452999     1.448478668124     0.508629276910     1.007825032230
         H            1.776797452999     2.475373668124     0.794666276910     1.007825032230
         H            2.080543452999    -2.153101331876    -0.782731723090     1.007825032230
         H            5.154998452999    -1.152432331876     0.587078276910     1.007825032230
         H            4.471124452999    -2.144037331876    -0.708992723090     1.007825032230
         H            5.206168452999    -0.578741331876    -1.083159723090     1.007825032230
         H           -1.179027547001    -0.757566331876     1.832684276910     1.007825032230
         H           -2.189565547001     1.648674668124    -1.570171723090     1.007825032230
         H           -3.325722547001    -2.005859331876     1.598229276910     1.007825032230
         H           -4.353971547001     0.410948668124    -1.812377723090     1.007825032230
         H           -4.913287547001    -1.420378331876    -0.224212723090     1.007825032230

  Basis Set: AUG-CC-PVTZ
    Blend: AUG-CC-PVTZ
  Basis Set: (AUG-CC-PVTZ AUX)
    Blend: AUG-CC-PVTZ-JKFIT
	 Reference Energy          =    -590.3034922461058613 [Eh]
	 Singles Energy            =      -0.0000000000000000 [Eh]
	 Same-Spin Energy          =      -0.6451608261027321 [Eh]
	 Opposite-Spin Energy      =      -1.9832806252345427 [Eh]
	 Correlation Energy        =      -2.6284414513372747 [Eh]
	 Total Energy              =    -592.9319336974431280 [Eh]

	 ================> DF-SCS-MP2 Energies <==================
	-----------------------------------------------------------
	 SCS Same-Spin Scale       =       0.3333333333333333 [-]
	 SCS Opposite-Spin Scale   =       1.2000000000000000 [-]
	 SCS Same-Spin Energy      =      -0.2150536087009107 [Eh]
	 SCS Opposite-Spin Energy  =      -2.3799367502814510 [Eh]
	 SCS Correlation Energy    =      -2.5949903589823617 [Eh]
	 SCS Total Energy          =    -592.8984826050882475 [Eh]
	-----------------------------------------------------------

  Dipole Moment: [D]
     X:     0.6665      Y:     0.0539      Z:     0.2508     Total:     0.7142

*** Psi4 exiting successfully. Buy a developer a beer!
