                               Psi4 1.4a3.dev225

  ==> Input File <==

--------------------------------------------------------------------------
#psi4
#
memory 32 gb

molecule  {
0 1
  O       -0.4771680     1.3164760     0.3008390
  N        0.7985240    -0.5535590    -0.2772820
  C        3.2200150    -0.4235850    -0.1586420
  C        0.7425440     0.7008700     0.1517020
  C       -1.6208490     0.5302780     0.1412880
  C        3.1140170     0.9030370     0.2913960
  C        1.8654780     1.4834140     0.4539590
  C        2.0264240    -1.0936290    -0.4226860
  C        4.5555360    -1.0893210    -0.3460000
  C       -1.9196720    -0.4880720     1.0459920
  C       -2.4860393     0.8451064    -0.8457744
  C       -3.1225630    -1.1795470     0.9070330
  C       -3.7017300     0.1773150    -1.0087090
  C       -4.0153870    -0.8504980    -0.1174150
  H        4.0120030     1.4769520     0.5152690
  H        1.7375180     2.5038470     0.8013060
  H        2.0412640    -2.1246280    -0.7760920
  H        5.1157190    -1.1239590     0.5937180
  H        4.4318450    -2.1155640    -0.7023530
  H        5.1668890    -0.5502680    -1.0765200
  H       -1.2183070    -0.7290930     1.8393240
  H       -2.2288450     1.6771480    -1.5635320
  H       -3.3650020    -1.9773860     1.6048690
  H       -4.3932510     0.4394220    -1.8057380
  H       -4.9525670    -1.3919050    -0.2175730
units angstrom
no_reorient  #important for SAPT in psi4, default
symmetry c1  #important for SAPT in psi4, default
}

set PROPERTIES_ORIGIN ["COM"]
properties('MP2/aug-cc-pvtz', properties = ['dipole'])
--------------------------------------------------------------------------

    Molecular point group: c1
  Charge       = 0
  Multiplicity = 1
  Basis Set: AUG-CC-PVTZ
    Blend: AUG-CC-PVTZ
  Basis Set: (AUG-CC-PVTZ AUX)
    Blend: AUG-CC-PVTZ-JKFIT

    Orbital Energies [Eh]
    ---------------------

    Doubly Occupied:

       1A    -20.598450     2A    -15.563490     3A    -11.340734
       4A    -11.290393     5A    -11.277324     6A    -11.261431
       7A    -11.243213     8A    -11.241141     9A    -11.236490
      10A    -11.235723    11A    -11.232752    12A    -11.232582
      13A    -11.230802    14A    -11.229786    15A     -1.430761
      16A     -1.253598    17A     -1.150341    18A     -1.102628
      19A     -1.053521    20A     -1.014543    21A     -1.007310
      22A     -0.943119    23A     -0.877525    24A     -0.843725
      25A     -0.829692    26A     -0.801300    27A     -0.738724
      28A     -0.704555    29A     -0.676284    30A     -0.657003
      31A     -0.642905    32A     -0.625624    33A     -0.611264
      34A     -0.597219    35A     -0.591804    36A     -0.582858
      37A     -0.568156    38A     -0.563382    39A     -0.549558
      40A     -0.521283    41A     -0.515333    42A     -0.507773
      43A     -0.493250    44A     -0.478478    45A     -0.428305
      46A     -0.384472    47A     -0.336655    48A     -0.333464
      49A     -0.314889

  @DF-RHF Final Energy:  -590.32904541773246

   => Energetics <=

    Nuclear Repulsion Energy =            802.6550091137950176
    One-Electron Energy =               -2394.0768802094748935
    Two-Electron Energy =                1001.0928256779473031
    Total Energy =                       -590.3290454177324591
  Basis Set: (AUG-CC-PVTZ AUX)
    Blend: AUG-CC-PVTZ-RI
    Molecular point group: c1

    Geometry (in Angstrom), charge = 0, multiplicity = 1:

       Center              X                  Y                   Z               Mass
    ------------   -----------------  -----------------  -----------------  -----------------
         O           -0.443884460297     1.297329338194     0.294132133366    15.994914619570
         N            0.831807539703    -0.572705661806    -0.283988866634    14.003074004430
         C            3.253298539703    -0.442731661806    -0.165348866634    12.000000000000
         C            0.775827539703     0.681723338194     0.144995133366    12.000000000000
         C           -1.587565460297     0.511131338194     0.134581133366    12.000000000000
         C            3.147300539703     0.883890338194     0.284689133366    12.000000000000
         C            1.898761539703     1.464267338194     0.447252133366    12.000000000000
         C            2.059707539703    -1.112775661806    -0.429392866634    12.000000000000
         C            4.588819539703    -1.108467661806    -0.352706866634    12.000000000000
         C           -1.886388460297    -0.507218661806     1.039285133366    12.000000000000
         C           -2.452755760297     0.825959738194    -0.852481266634    12.000000000000
         C           -3.089279460297    -1.198693661806     0.900326133366    12.000000000000
         C           -3.668446460297     0.158168338194    -1.015415866634    12.000000000000
         C           -3.982103460297    -0.869644661806    -0.124121866634    12.000000000000
         H            4.045286539703     1.457805338194     0.508562133366     1.007825032230
         H            1.770801539703     2.484700338194     0.794599133366     1.007825032230
         H            2.074547539703    -2.143774661806    -0.782798866634     1.007825032230
         H            5.149002539703    -1.143105661806     0.587011133366     1.007825032230
         H            4.465128539703    -2.134710661806    -0.709059866634     1.007825032230
         H            5.200172539703    -0.569414661806    -1.083226866634     1.007825032230
         H           -1.185023460297    -0.748239661806     1.832617133366     1.007825032230
         H           -2.195561460297     1.658001338194    -1.570238866634     1.007825032230
         H           -3.331718460297    -1.996532661806     1.598162133366     1.007825032230
         H           -4.359967460297     0.420275338194    -1.812444866634     1.007825032230
         H           -4.919283460297    -1.411051661806    -0.224279866634     1.007825032230

  Basis Set: AUG-CC-PVTZ
    Blend: AUG-CC-PVTZ
  Basis Set: (AUG-CC-PVTZ AUX)
    Blend: AUG-CC-PVTZ-JKFIT
	 Reference Energy          =    -590.3290454177324591 [Eh]
	 Singles Energy            =      -0.0000000000000000 [Eh]
	 Same-Spin Energy          =      -0.6439888169698227 [Eh]
	 Opposite-Spin Energy      =      -1.9813703605277129 [Eh]
	 Correlation Energy        =      -2.6253591774975353 [Eh]
	 Total Energy              =    -592.9544045952300166 [Eh]

	 ================> DF-SCS-MP2 Energies <==================
	-----------------------------------------------------------
	 SCS Same-Spin Scale       =       0.3333333333333333 [-]
	 SCS Opposite-Spin Scale   =       1.2000000000000000 [-]
	 SCS Same-Spin Energy      =      -0.2146629389899409 [Eh]
	 SCS Opposite-Spin Energy  =      -2.3776444326332555 [Eh]
	 SCS Correlation Energy    =      -2.5923073716231966 [Eh]
	 SCS Total Energy          =    -592.9213527893556375 [Eh]
	-----------------------------------------------------------

  Dipole Moment: [D]
     X:     1.9891      Y:    -0.2018      Z:     0.1510     Total:     2.0050

*** Psi4 exiting successfully. Buy a developer a beer!
