                               Psi4 1.4a3.dev225

  ==> Input File <==

--------------------------------------------------------------------------
#psi4
#
memory 32 gb

molecule  {
0 1
  O       -0.4771680     1.3164760     0.3008390
  N        0.7985240    -0.5535590    -0.2772820
  C        3.2200150    -0.4235850    -0.1586420
  C        0.7425440     0.7008700     0.1517020
  C       -1.6208490     0.5302780     0.1412880
  C        3.1140170     0.9030370     0.2913960
  C        1.8654780     1.4834140     0.4539590
  C        2.0264240    -1.0936290    -0.4226860
  C        4.5555360    -1.0893210    -0.3460000
  C       -1.9196720    -0.4880720     1.0459920
  C       -2.4970780     0.8728280    -0.8843220
  C       -3.1225630    -1.1795470     0.9070330
  C       -3.7017300     0.1773150    -1.0087090
  C       -4.0026158    -0.8552048    -0.1027610
  H        4.0120030     1.4769520     0.5152690
  H        1.7375180     2.5038470     0.8013060
  H        2.0412640    -2.1246280    -0.7760920
  H        5.1157190    -1.1239590     0.5937180
  H        4.4318450    -2.1155640    -0.7023530
  H        5.1668890    -0.5502680    -1.0765200
  H       -1.2183070    -0.7290930     1.8393240
  H       -2.2288450     1.6771480    -1.5635320
  H       -3.3650020    -1.9773860     1.6048690
  H       -4.3932510     0.4394220    -1.8057380
  H       -4.9525670    -1.3919050    -0.2175730
units angstrom
no_reorient  #important for SAPT in psi4, default
symmetry c1  #important for SAPT in psi4, default
}

set PROPERTIES_ORIGIN ["COM"]
properties('MP2/aug-cc-pvtz', properties = ['dipole'])
--------------------------------------------------------------------------

    Molecular point group: c1
  Charge       = 0
  Multiplicity = 1
  Basis Set: AUG-CC-PVTZ
    Blend: AUG-CC-PVTZ
  Basis Set: (AUG-CC-PVTZ AUX)
    Blend: AUG-CC-PVTZ-JKFIT

    Orbital Energies [Eh]
    ---------------------

    Doubly Occupied:

       1A    -20.598446     2A    -15.563299     3A    -11.340650
       4A    -11.295330     5A    -11.277243     6A    -11.261377
       7A    -11.243151     8A    -11.241096     9A    -11.237692
      10A    -11.234485    11A    -11.232720    12A    -11.231851
      13A    -11.231549    14A    -11.230165    15A     -1.430607
      16A     -1.253393    17A     -1.146905    18A     -1.102561
      19A     -1.053149    20A     -1.016022    21A     -1.003561
      22A     -0.942908    23A     -0.877503    24A     -0.842908
      25A     -0.830157    26A     -0.800548    27A     -0.736975
      28A     -0.704665    29A     -0.677801    30A     -0.655975
      31A     -0.643104    32A     -0.626573    33A     -0.610989
      34A     -0.595323    35A     -0.592068    36A     -0.586470
      37A     -0.569616    38A     -0.563055    39A     -0.549354
      40A     -0.521097    41A     -0.515235    42A     -0.508344
      43A     -0.493292    44A     -0.478044    45A     -0.428139
      46A     -0.384390    47A     -0.336257    48A     -0.332480
      49A     -0.313251

  @DF-RHF Final Energy:  -590.33108721615895

   => Energetics <=

    Nuclear Repulsion Energy =            801.9393329223194087
    One-Electron Energy =               -2392.6572976119641680
    Two-Electron Energy =                1000.3868774734858107
    Total Energy =                       -590.3310872161589486
  Basis Set: (AUG-CC-PVTZ AUX)
    Blend: AUG-CC-PVTZ-RI
    Molecular point group: c1

    Geometry (in Angstrom), charge = 0, multiplicity = 1:

       Center              X                  Y                   Z               Mass
    ------------   -----------------  -----------------  -----------------  -----------------
         O           -0.443996787634     1.295837164346     0.295681284567    15.994914619570
         N            0.831695212366    -0.574197835654    -0.282439715433    14.003074004430
         C            3.253186212366    -0.444223835654    -0.163799715433    12.000000000000
         C            0.775715212366     0.680231164346     0.146544284567    12.000000000000
         C           -1.587677787634     0.509639164346     0.136130284567    12.000000000000
         C            3.147188212366     0.882398164346     0.286238284567    12.000000000000
         C            1.898649212366     1.462775164346     0.448801284567    12.000000000000
         C            2.059595212366    -1.114267835654    -0.427843715433    12.000000000000
         C            4.588707212366    -1.109959835654    -0.351157715433    12.000000000000
         C           -1.886500787634    -0.508710835654     1.040834284567    12.000000000000
         C           -2.463906787634     0.852189164346    -0.889479715433    12.000000000000
         C           -3.089391787634    -1.200185835654     0.901875284567    12.000000000000
         C           -3.668558787634     0.156676164346    -1.013866715433    12.000000000000
         C           -3.969444587634    -0.875843635654    -0.107918715433    12.000000000000
         H            4.045174212366     1.456313164346     0.510111284567     1.007825032230
         H            1.770689212366     2.483208164346     0.796148284567     1.007825032230
         H            2.074435212366    -2.145266835654    -0.781249715433     1.007825032230
         H            5.148890212366    -1.144597835654     0.588560284567     1.007825032230
         H            4.465016212366    -2.136202835654    -0.707510715433     1.007825032230
         H            5.200060212366    -0.570906835654    -1.081677715433     1.007825032230
         H           -1.185135787634    -0.749731835654     1.834166284567     1.007825032230
         H           -2.195673787634     1.656509164346    -1.568689715433     1.007825032230
         H           -3.331830787634    -1.998024835654     1.599711284567     1.007825032230
         H           -4.360079787634     0.418783164346    -1.810895715433     1.007825032230
         H           -4.919395787634    -1.412543835654    -0.222730715433     1.007825032230

  Basis Set: AUG-CC-PVTZ
    Blend: AUG-CC-PVTZ
  Basis Set: (AUG-CC-PVTZ AUX)
    Blend: AUG-CC-PVTZ-JKFIT
	 Reference Energy          =    -590.3310872161589486 [Eh]
	 Singles Energy            =      -0.0000000000000000 [Eh]
	 Same-Spin Energy          =      -0.6440380108530908 [Eh]
	 Opposite-Spin Energy      =      -1.9814858978283429 [Eh]
	 Correlation Energy        =      -2.6255239086814335 [Eh]
	 Total Energy              =    -592.9566111248403786 [Eh]

	 ================> DF-SCS-MP2 Energies <==================
	-----------------------------------------------------------
	 SCS Same-Spin Scale       =       0.3333333333333333 [-]
	 SCS Opposite-Spin Scale   =       1.2000000000000000 [-]
	 SCS Same-Spin Energy      =      -0.2146793369510303 [Eh]
	 SCS Opposite-Spin Energy  =      -2.3777830773940116 [Eh]
	 SCS Correlation Energy    =      -2.5924624143450417 [Eh]
	 SCS Total Energy          =    -592.9235496305039987 [Eh]
	-----------------------------------------------------------

  Dipole Moment: [D]
     X:     2.0138      Y:    -0.1788      Z:     0.1517     Total:     2.0274

*** Psi4 exiting successfully. Buy a developer a beer!
