                               Psi4 1.4a3.dev225

  ==> Input File <==

--------------------------------------------------------------------------
#psi4
#
memory 32 gb

molecule  {
0 1
  O       -0.4771680     1.3164760     0.3008390
  N        0.7985240    -0.5535590    -0.2772820
  C        3.2200150    -0.4235850    -0.1586420
  C        0.7280904     0.7196629     0.1577347
  C       -1.6208490     0.5302780     0.1412880
  C        3.1140170     0.9030370     0.2913960
  C        1.8654780     1.4834140     0.4539590
  C        2.0264240    -1.0936290    -0.4226860
  C        4.5555360    -1.0893210    -0.3460000
  C       -1.9196720    -0.4880720     1.0459920
  C       -2.4970780     0.8728280    -0.8843220
  C       -3.1225630    -1.1795470     0.9070330
  C       -3.7017300     0.1773150    -1.0087090
  C       -4.0153870    -0.8504980    -0.1174150
  H        4.0120030     1.4769520     0.5152690
  H        1.7375180     2.5038470     0.8013060
  H        2.0412640    -2.1246280    -0.7760920
  H        5.1157190    -1.1239590     0.5937180
  H        4.4318450    -2.1155640    -0.7023530
  H        5.1668890    -0.5502680    -1.0765200
  H       -1.2183070    -0.7290930     1.8393240
  H       -2.2288450     1.6771480    -1.5635320
  H       -3.3650020    -1.9773860     1.6048690
  H       -4.3932510     0.4394220    -1.8057380
  H       -4.9525670    -1.3919050    -0.2175730
units angstrom
no_reorient  #important for SAPT in psi4, default
symmetry c1  #important for SAPT in psi4, default
}

set PROPERTIES_ORIGIN ["COM"]
properties('MP2/aug-cc-pvtz', properties = ['dipole'])
--------------------------------------------------------------------------

    Molecular point group: c1
  Charge       = 0
  Multiplicity = 1
  Basis Set: AUG-CC-PVTZ
    Blend: AUG-CC-PVTZ
  Basis Set: (AUG-CC-PVTZ AUX)
    Blend: AUG-CC-PVTZ-JKFIT

    Orbital Energies [Eh]
    ---------------------

    Doubly Occupied:

       1A    -20.602599     2A    -15.562374     3A    -11.341850
       4A    -11.297912     5A    -11.276094     6A    -11.260427
       7A    -11.241338     8A    -11.239379     9A    -11.237853
      10A    -11.237740    11A    -11.233566    12A    -11.232932
      13A    -11.231681    14A    -11.231626    15A     -1.440461
      16A     -1.246166    17A     -1.147700    18A     -1.099415
      19A     -1.052927    20A     -1.016537    21A     -1.005668
      22A     -0.941497    23A     -0.877009    24A     -0.843499
      25A     -0.831723    26A     -0.800903    27A     -0.739974
      28A     -0.704686    29A     -0.679932    30A     -0.658492
      31A     -0.642817    32A     -0.626076    33A     -0.612661
      34A     -0.595462    35A     -0.592295    36A     -0.586287
      37A     -0.571427    38A     -0.562701    39A     -0.547940
      40A     -0.519497    41A     -0.513842    42A     -0.512008
      43A     -0.494575    44A     -0.478815    45A     -0.424584
      46A     -0.382085    47A     -0.336446    48A     -0.332446
      49A     -0.312332

  @DF-RHF Final Energy:  -590.33055219143750

   => Energetics <=

    Nuclear Repulsion Energy =            801.6512595283907103
    One-Electron Energy =               -2392.0471100589907110
    Two-Electron Energy =                1000.0652983391624957
    Total Energy =                       -590.3305521914375049
  Basis Set: (AUG-CC-PVTZ AUX)
    Blend: AUG-CC-PVTZ-RI
    Molecular point group: c1

    Geometry (in Angstrom), charge = 0, multiplicity = 1:

       Center              X                  Y                   Z               Mass
    ------------   -----------------  -----------------  -----------------  -----------------
         O           -0.442231656736     1.294313551810     0.296240250033    15.994914619570
         N            0.833460343264    -0.575721448190    -0.281880749967    14.003074004430
         C            3.254951343264    -0.445747448190    -0.163240749967    12.000000000000
         C            0.763026743264     0.697500451810     0.153135950033    12.000000000000
         C           -1.585912656736     0.508115551810     0.136689250033    12.000000000000
         C            3.148953343264     0.880874551810     0.286797250033    12.000000000000
         C            1.900414343264     1.461251551810     0.449360250033    12.000000000000
         C            2.061360343264    -1.115791448190    -0.427284749967    12.000000000000
         C            4.590472343264    -1.111483448190    -0.350598749967    12.000000000000
         C           -1.884735656736    -0.510234448190     1.041393250033    12.000000000000
         C           -2.462141656736     0.850665551810    -0.888920749967    12.000000000000
         C           -3.087626656736    -1.201709448190     0.902434250033    12.000000000000
         C           -3.666793656736     0.155152551810    -1.013307749967    12.000000000000
         C           -3.980450656736    -0.872660448190    -0.122013749967    12.000000000000
         H            4.046939343264     1.454789551810     0.510670250033     1.007825032230
         H            1.772454343264     2.481684551810     0.796707250033     1.007825032230
         H            2.076200343264    -2.146790448190    -0.780690749967     1.007825032230
         H            5.150655343264    -1.146121448190     0.589119250033     1.007825032230
         H            4.466781343264    -2.137726448190    -0.706951749967     1.007825032230
         H            5.201825343264    -0.572430448190    -1.081118749967     1.007825032230
         H           -1.183370656736    -0.751255448190     1.834725250033     1.007825032230
         H           -2.193908656736     1.654985551810    -1.568130749967     1.007825032230
         H           -3.330065656736    -1.999548448190     1.600270250033     1.007825032230
         H           -4.358314656736     0.417259551810    -1.810336749967     1.007825032230
         H           -4.917630656736    -1.414067448190    -0.222171749967     1.007825032230

  Basis Set: AUG-CC-PVTZ
    Blend: AUG-CC-PVTZ
  Basis Set: (AUG-CC-PVTZ AUX)
    Blend: AUG-CC-PVTZ-JKFIT
	 Reference Energy          =    -590.3305521914375049 [Eh]
	 Singles Energy            =      -0.0000000000000000 [Eh]
	 Same-Spin Energy          =      -0.6441320325924179 [Eh]
	 Opposite-Spin Energy      =      -1.9815842143772673 [Eh]
	 Correlation Energy        =      -2.6257162469696853 [Eh]
	 Total Energy              =    -592.9562684384071645 [Eh]

	 ================> DF-SCS-MP2 Energies <==================
	-----------------------------------------------------------
	 SCS Same-Spin Scale       =       0.3333333333333333 [-]
	 SCS Opposite-Spin Scale   =       1.2000000000000000 [-]
	 SCS Same-Spin Energy      =      -0.2147106775308060 [Eh]
	 SCS Opposite-Spin Energy  =      -2.3779010572527208 [Eh]
	 SCS Correlation Energy    =      -2.5926117347835267 [Eh]
	 SCS Total Energy          =    -592.9231639262210365 [Eh]
	-----------------------------------------------------------

  Dipole Moment: [D]
     X:     1.7997      Y:    -0.1425      Z:     0.1728     Total:     1.8136

*** Psi4 exiting successfully. Buy a developer a beer!
