                               Psi4 1.4a3.dev225

  ==> Input File <==

--------------------------------------------------------------------------
#psi4
#
memory 32 gb

molecule  {
0 1
  O       -0.4771680     1.3164760     0.3008390
  N        0.7985240    -0.5535590    -0.2772820
  C        3.2200150    -0.4235850    -0.1586420
  C        0.7724728     0.6640050     0.1399146
  C       -1.6208490     0.5302780     0.1412880
  C        3.1140170     0.9030370     0.2913960
  C        1.8654780     1.4834140     0.4539590
  C        2.0264240    -1.0936290    -0.4226860
  C        4.5555360    -1.0893210    -0.3460000
  C       -1.9196720    -0.4880720     1.0459920
  C       -2.4970780     0.8728280    -0.8843220
  C       -3.1225630    -1.1795470     0.9070330
  C       -3.7017300     0.1773150    -1.0087090
  C       -4.0153870    -0.8504980    -0.1174150
  H        4.0120030     1.4769520     0.5152690
  H        1.7375180     2.5038470     0.8013060
  H        2.0412640    -2.1246280    -0.7760920
  H        5.1157190    -1.1239590     0.5937180
  H        4.4318450    -2.1155640    -0.7023530
  H        5.1668890    -0.5502680    -1.0765200
  H       -1.2183070    -0.7290930     1.8393240
  H       -2.2288450     1.6771480    -1.5635320
  H       -3.3650020    -1.9773860     1.6048690
  H       -4.3932510     0.4394220    -1.8057380
  H       -4.9525670    -1.3919050    -0.2175730
units angstrom
no_reorient  #important for SAPT in psi4, default
symmetry c1  #important for SAPT in psi4, default
}

set PROPERTIES_ORIGIN ["COM"]
properties('MP2/aug-cc-pvtz', properties = ['dipole'])
--------------------------------------------------------------------------

    Molecular point group: c1
  Charge       = 0
  Multiplicity = 1
  Basis Set: AUG-CC-PVTZ
    Blend: AUG-CC-PVTZ
  Basis Set: (AUG-CC-PVTZ AUX)
    Blend: AUG-CC-PVTZ-JKFIT

    Orbital Energies [Eh]
    ---------------------

    Doubly Occupied:

       1A    -20.590263     2A    -15.565329     3A    -11.338716
       4A    -11.291241     5A    -11.279829     6A    -11.263490
       7A    -11.246849     8A    -11.244767     9A    -11.234983
      10A    -11.234573    11A    -11.234432    12A    -11.229134
      13A    -11.228190    14A    -11.227966    15A     -1.412784
      16A     -1.268720    17A     -1.142299    18A     -1.109055
      19A     -1.053646    20A     -1.012712    21A     -0.999870
      22A     -0.945957    23A     -0.879611    24A     -0.839735
      25A     -0.828532    26A     -0.800209    27A     -0.730673
      28A     -0.706123    29A     -0.677773    30A     -0.650224
      31A     -0.644585    32A     -0.626569    33A     -0.607131
      34A     -0.593720    35A     -0.593130    36A     -0.584850
      37A     -0.567360    38A     -0.564029    39A     -0.552557
      40A     -0.524109    41A     -0.514366    42A     -0.508856
      43A     -0.488762    44A     -0.474426    45A     -0.434948
      46A     -0.389575    47A     -0.334463    48A     -0.332209
      49A     -0.314492

  @DF-RHF Final Energy:  -590.32915311602119

   => Energetics <=

    Nuclear Repulsion Energy =            801.8780272175711161
    One-Electron Energy =               -2392.5787215871405351
    Two-Electron Energy =                1000.3715412535482301
    Total Energy =                       -590.3291531160211889
  Basis Set: (AUG-CC-PVTZ AUX)
    Blend: AUG-CC-PVTZ-RI
    Molecular point group: c1

    Geometry (in Angstrom), charge = 0, multiplicity = 1:

       Center              X                  Y                   Z               Mass
    ------------   -----------------  -----------------  -----------------  -----------------
         O           -0.445109207556     1.297922154224     0.297395623410    15.994914619570
         N            0.830582792444    -0.572112845776    -0.280725376590    14.003074004430
         C            3.252073792444    -0.442138845776    -0.162085376590    12.000000000000
         C            0.804531592444     0.645451154224     0.136471223410    12.000000000000
         C           -1.588790207556     0.511724154224     0.137844623410    12.000000000000
         C            3.146075792444     0.884483154224     0.287952623410    12.000000000000
         C            1.897536792444     1.464860154224     0.450515623410    12.000000000000
         C            2.058482792444    -1.112182845776    -0.426129376590    12.000000000000
         C            4.587594792444    -1.107874845776    -0.349443376590    12.000000000000
         C           -1.887613207556    -0.506625845776     1.042548623410    12.000000000000
         C           -2.465019207556     0.854274154224    -0.887765376590    12.000000000000
         C           -3.090504207556    -1.198100845776     0.903589623410    12.000000000000
         C           -3.669671207556     0.158761154224    -1.012152376590    12.000000000000
         C           -3.983328207556    -0.869051845776    -0.120858376590    12.000000000000
         H            4.044061792444     1.458398154224     0.511825623410     1.007825032230
         H            1.769576792444     2.485293154224     0.797862623410     1.007825032230
         H            2.073322792444    -2.143181845776    -0.779535376590     1.007825032230
         H            5.147777792444    -1.142512845776     0.590274623410     1.007825032230
         H            4.463903792444    -2.134117845776    -0.705796376590     1.007825032230
         H            5.198947792444    -0.568821845776    -1.079963376590     1.007825032230
         H           -1.186248207556    -0.747646845776     1.835880623410     1.007825032230
         H           -2.196786207556     1.658594154224    -1.566975376590     1.007825032230
         H           -3.332943207556    -1.995939845776     1.601425623410     1.007825032230
         H           -4.361192207556     0.420868154224    -1.809181376590     1.007825032230
         H           -4.920508207556    -1.410458845776    -0.221016376590     1.007825032230

  Basis Set: AUG-CC-PVTZ
    Blend: AUG-CC-PVTZ
  Basis Set: (AUG-CC-PVTZ AUX)
    Blend: AUG-CC-PVTZ-JKFIT
	 Reference Energy          =    -590.3291531160211889 [Eh]
	 Singles Energy            =      -0.0000000000000000 [Eh]
	 Same-Spin Energy          =      -0.6438321503432602 [Eh]
	 Opposite-Spin Energy      =      -1.9815238610916837 [Eh]
	 Correlation Energy        =      -2.6253560114349437 [Eh]
	 Total Energy              =    -592.9545091274561628 [Eh]

	 ================> DF-SCS-MP2 Energies <==================
	-----------------------------------------------------------
	 SCS Same-Spin Scale       =       0.3333333333333333 [-]
	 SCS Opposite-Spin Scale   =       1.2000000000000000 [-]
	 SCS Same-Spin Energy      =      -0.2146107167810867 [Eh]
	 SCS Opposite-Spin Energy  =      -2.3778286333100205 [Eh]
	 SCS Correlation Energy    =      -2.5924393500911074 [Eh]
	 SCS Total Energy          =    -592.9215924661123154 [Eh]
	-----------------------------------------------------------

  Dipole Moment: [D]
     X:     2.4442      Y:    -0.2692      Z:     0.1220     Total:     2.4620

*** Psi4 exiting successfully. Buy a developer a beer!
