                               Psi4 1.4a3.dev225

  ==> Input File <==

--------------------------------------------------------------------------
#psi4
#
memory 32 gb

molecule  {
0 1
  O       -0.4771680     1.3164760     0.3008390
  N        0.7985240    -0.5535590    -0.2772820
  C        3.2200150    -0.4235850    -0.1586420
  C        0.7425440     0.7008700     0.1517020
  C       -1.6208490     0.5302780     0.1412880
  C        3.1140170     0.9030370     0.2913960
  C        1.8654780     1.4834140     0.4539590
  C        2.0264240    -1.0936290    -0.4226860
  C        4.5555360    -1.0893210    -0.3460000
  C       -1.9196720    -0.4880720     1.0459920
  C       -2.4970780     0.8728280    -0.8843220
  C       -3.1225630    -1.1795470     0.9070330
  C       -3.7017300     0.1773150    -1.0087090
  C       -4.0153870    -0.8504980    -0.1174150
  H        4.0120030     1.4769520     0.5152690
  H        1.7375180     2.5038470     0.8013060
  H        2.0412640    -2.1246280    -0.7760920
  H        5.1157190    -1.1239590     0.5937180
  H        4.4318450    -2.1155640    -0.7023530
  H        5.1668890    -0.5502680    -1.0765200
  H       -1.2183070    -0.7290930     1.8393240
  H       -2.2288450     1.6771480    -1.5635320
  H       -3.3650020    -1.9773860     1.6048690
  H       -4.4250518     0.4514754    -1.8423908
  H       -4.9525670    -1.3919050    -0.2175730
units angstrom
no_reorient  #important for SAPT in psi4, default
symmetry c1  #important for SAPT in psi4, default
}

set PROPERTIES_ORIGIN ["COM"]
properties('MP2/aug-cc-pvtz', properties = ['dipole'])
--------------------------------------------------------------------------

    Molecular point group: c1
  Charge       = 0
  Multiplicity = 1
  Basis Set: AUG-CC-PVTZ
    Blend: AUG-CC-PVTZ
  Basis Set: (AUG-CC-PVTZ AUX)
    Blend: AUG-CC-PVTZ-JKFIT

    Orbital Energies [Eh]
    ---------------------

    Doubly Occupied:

       1A    -20.598790     2A    -15.563506     3A    -11.340839
       4A    -11.296014     5A    -11.277384     6A    -11.261513
       7A    -11.243301     8A    -11.242401     9A    -11.241256
      10A    -11.237048    11A    -11.232818    12A    -11.232277
      13A    -11.231863    14A    -11.230957    15A     -1.430926
      16A     -1.253577    17A     -1.145915    18A     -1.102706
      19A     -1.053084    20A     -1.014425    21A     -1.003631
      22A     -0.943013    23A     -0.877804    24A     -0.841319
      25A     -0.829736    26A     -0.800131    27A     -0.734859
      28A     -0.704704    29A     -0.679362    30A     -0.655699
      31A     -0.643174    32A     -0.623868    33A     -0.610688
      34A     -0.594453    35A     -0.591135    36A     -0.584087
      37A     -0.569844    38A     -0.563401    39A     -0.549667
      40A     -0.521187    41A     -0.512444    42A     -0.511393
      43A     -0.492547    44A     -0.476739    45A     -0.428313
      46A     -0.384544    47A     -0.335703    48A     -0.332577
      49A     -0.313767

  @DF-RHF Final Energy:  -590.32910481399290

   => Energetics <=

    Nuclear Repulsion Energy =            801.4600992665652939
    One-Electron Energy =               -2391.6976341430518005
    Two-Electron Energy =                 999.9084300624936077
    Total Energy =                       -590.3291048139928989
  Basis Set: (AUG-CC-PVTZ AUX)
    Blend: AUG-CC-PVTZ-RI
    Molecular point group: c1

    Geometry (in Angstrom), charge = 0, multiplicity = 1:

       Center              X                  Y                   Z               Mass
    ------------   -----------------  -----------------  -----------------  -----------------
         O           -0.442995599102     1.295466363550     0.296830965446    15.994914619570
         N            0.832696400898    -0.574568636450    -0.281290034554    14.003074004430
         C            3.254187400898    -0.444594636450    -0.162650034554    12.000000000000
         C            0.776716400898     0.679860363550     0.147693965446    12.000000000000
         C           -1.586676599102     0.509268363550     0.137279965446    12.000000000000
         C            3.148189400898     0.882027363550     0.287387965446    12.000000000000
         C            1.899650400898     1.462404363550     0.449950965446    12.000000000000
         C            2.060596400898    -1.114638636450    -0.426694034554    12.000000000000
         C            4.589708400898    -1.110330636450    -0.350008034554    12.000000000000
         C           -1.885499599102    -0.509081636450     1.041983965446    12.000000000000
         C           -2.462905599102     0.851818363550    -0.888330034554    12.000000000000
         C           -3.088390599102    -1.200556636450     0.903024965446    12.000000000000
         C           -3.667557599102     0.156305363550    -1.012717034554    12.000000000000
         C           -3.981214599102    -0.871507636450    -0.121423034554    12.000000000000
         H            4.046175400898     1.455942363550     0.511260965446     1.007825032230
         H            1.771690400898     2.482837363550     0.797297965446     1.007825032230
         H            2.075436400898    -2.145637636450    -0.780100034554     1.007825032230
         H            5.149891400898    -1.144968636450     0.589709965446     1.007825032230
         H            4.466017400898    -2.136573636450    -0.706361034554     1.007825032230
         H            5.201061400898    -0.571277636450    -1.080528034554     1.007825032230
         H           -1.184134599102    -0.750102636450     1.835315965446     1.007825032230
         H           -2.194672599102     1.656138363550    -1.567540034554     1.007825032230
         H           -3.330829599102    -1.998395636450     1.600860965446     1.007825032230
         H           -4.390879399102     0.430465763550    -1.846398834554     1.007825032230
         H           -4.918394599102    -1.412914636450    -0.221581034554     1.007825032230

  Basis Set: AUG-CC-PVTZ
    Blend: AUG-CC-PVTZ
  Basis Set: (AUG-CC-PVTZ AUX)
    Blend: AUG-CC-PVTZ-JKFIT
	 Reference Energy          =    -590.3291048139928989 [Eh]
	 Singles Energy            =      -0.0000000000000000 [Eh]
	 Same-Spin Energy          =      -0.6440953038191400 [Eh]
	 Opposite-Spin Energy      =      -1.9818990639294427 [Eh]
	 Correlation Energy        =      -2.6259943677485826 [Eh]
	 Total Energy              =    -592.9550991817415024 [Eh]

	 ================> DF-SCS-MP2 Energies <==================
	-----------------------------------------------------------
	 SCS Same-Spin Scale       =       0.3333333333333333 [-]
	 SCS Opposite-Spin Scale   =       1.2000000000000000 [-]
	 SCS Same-Spin Energy      =      -0.2146984346063800 [Eh]
	 SCS Opposite-Spin Energy  =      -2.3782788767153313 [Eh]
	 SCS Correlation Energy    =      -2.5929773113217114 [Eh]
	 SCS Total Energy          =    -592.9220821253146596 [Eh]
	-----------------------------------------------------------

  Dipole Moment: [D]
     X:     2.0356      Y:    -0.1893      Z:     0.1714     Total:     2.0516

*** Psi4 exiting successfully. Buy a developer a beer!
