                               Psi4 1.4a3.dev225

  ==> Input File <==

--------------------------------------------------------------------------
#psi4
#
memory 32 gb

molecule  {
0 1
  O       -0.4771680     1.3164760     0.3008390
  N        0.7985240    -0.5535590    -0.2772820
  C        3.2200150    -0.4235850    -0.1586420
  C        0.7425440     0.7008700     0.1517020
  C       -1.6208490     0.5302780     0.1412880
  C        3.1140170     0.9030370     0.2913960
  C        1.8654780     1.4834140     0.4539590
  C        2.0264240    -1.0936290    -0.4226860
  C        4.5555360    -1.0893210    -0.3460000
  C       -1.9196720    -0.4880720     1.0459920
  C       -2.4970780     0.8728280    -0.8843220
  C       -3.1225630    -1.1795470     0.9070330
  C       -3.7017300     0.1773150    -1.0087090
  C       -4.0281582    -0.8457912    -0.1320690
  H        4.0120030     1.4769520     0.5152690
  H        1.7375180     2.5038470     0.8013060
  H        2.0412640    -2.1246280    -0.7760920
  H        5.1157190    -1.1239590     0.5937180
  H        4.4318450    -2.1155640    -0.7023530
  H        5.1668890    -0.5502680    -1.0765200
  H       -1.2183070    -0.7290930     1.8393240
  H       -2.2288450     1.6771480    -1.5635320
  H       -3.3650020    -1.9773860     1.6048690
  H       -4.3932510     0.4394220    -1.8057380
  H       -4.9525670    -1.3919050    -0.2175730
units angstrom
no_reorient  #important for SAPT in psi4, default
symmetry c1  #important for SAPT in psi4, default
}

set PROPERTIES_ORIGIN ["COM"]
properties('MP2/aug-cc-pvtz', properties = ['dipole'])
--------------------------------------------------------------------------

    Molecular point group: c1
  Charge       = 0
  Multiplicity = 1
  Basis Set: AUG-CC-PVTZ
    Blend: AUG-CC-PVTZ
  Basis Set: (AUG-CC-PVTZ AUX)
    Blend: AUG-CC-PVTZ-JKFIT

    Orbital Energies [Eh]
    ---------------------

    Doubly Occupied:

       1A    -20.598704     2A    -15.563495     3A    -11.340792
       4A    -11.295991     5A    -11.277353     6A    -11.261479
       7A    -11.243274     8A    -11.241219     9A    -11.238819
      10A    -11.235698    11A    -11.232795    12A    -11.232255
      13A    -11.231125    14A    -11.230629    15A     -1.430853
      16A     -1.253543    17A     -1.144928    18A     -1.102678
      19A     -1.052951    20A     -1.014998    21A     -1.003548
      22A     -0.942912    23A     -0.877872    24A     -0.841458
      25A     -0.830995    26A     -0.801125    27A     -0.736648
      28A     -0.704792    29A     -0.680610    30A     -0.655042
      31A     -0.643385    32A     -0.626367    33A     -0.611125
      34A     -0.594808    35A     -0.591840    36A     -0.585701
      37A     -0.569780    38A     -0.563581    39A     -0.549796
      40A     -0.521212    41A     -0.514973    42A     -0.511805
      43A     -0.491862    44A     -0.476888    45A     -0.428278
      46A     -0.384520    47A     -0.336056    48A     -0.331052
      49A     -0.313792

  @DF-RHF Final Energy:  -590.33104478305552

   => Energetics <=

    Nuclear Repulsion Energy =            801.5009678020061301
    One-Electron Energy =               -2391.7732167249459962
    Two-Electron Energy =                 999.9412041398844622
    Total Energy =                       -590.3310447830555177
  Basis Set: (AUG-CC-PVTZ AUX)
    Blend: AUG-CC-PVTZ-RI
    Molecular point group: c1

    Geometry (in Angstrom), charge = 0, multiplicity = 1:

       Center              X                  Y                   Z               Mass
    ------------   -----------------  -----------------  -----------------  -----------------
         O           -0.442340735819     1.295226829790     0.297581480578    15.994914619570
         N            0.833351264181    -0.574808170210    -0.280539519422    14.003074004430
         C            3.254842264181    -0.444834170210    -0.161899519422    12.000000000000
         C            0.777371264181     0.679620829790     0.148444480578    12.000000000000
         C           -1.586021735819     0.509028829790     0.138030480578    12.000000000000
         C            3.148844264181     0.881787829790     0.288138480578    12.000000000000
         C            1.900305264181     1.462164829790     0.450701480578    12.000000000000
         C            2.061251264181    -1.114878170210    -0.425943519422    12.000000000000
         C            4.590363264181    -1.110570170210    -0.349257519422    12.000000000000
         C           -1.884844735819    -0.509321170210     1.042734480578    12.000000000000
         C           -2.462250735819     0.851578829790    -0.887579519422    12.000000000000
         C           -3.087735735819    -1.200796170210     0.903775480578    12.000000000000
         C           -3.666902735819     0.156065829790    -1.011966519422    12.000000000000
         C           -3.993330935819    -0.867040370210    -0.135326519422    12.000000000000
         H            4.046830264181     1.455702829790     0.512011480578     1.007825032230
         H            1.772345264181     2.482597829790     0.798048480578     1.007825032230
         H            2.076091264181    -2.145877170210    -0.779349519422     1.007825032230
         H            5.150546264181    -1.145208170210     0.590460480578     1.007825032230
         H            4.466672264181    -2.136813170210    -0.705610519422     1.007825032230
         H            5.201716264181    -0.571517170210    -1.079777519422     1.007825032230
         H           -1.183479735819    -0.750342170210     1.836066480578     1.007825032230
         H           -2.194017735819     1.655898829790    -1.566789519422     1.007825032230
         H           -3.330174735819    -1.998635170210     1.601611480578     1.007825032230
         H           -4.358423735819     0.418172829790    -1.808995519422     1.007825032230
         H           -4.917739735819    -1.413154170210    -0.220830519422     1.007825032230

  Basis Set: AUG-CC-PVTZ
    Blend: AUG-CC-PVTZ
  Basis Set: (AUG-CC-PVTZ AUX)
    Blend: AUG-CC-PVTZ-JKFIT
	 Reference Energy          =    -590.3310447830555177 [Eh]
	 Singles Energy            =      -0.0000000000000000 [Eh]
	 Same-Spin Energy          =      -0.6439485438876136 [Eh]
	 Opposite-Spin Energy      =      -1.9815223724254631 [Eh]
	 Correlation Energy        =      -2.6254709163130769 [Eh]
	 Total Energy              =    -592.9565156993685378 [Eh]

	 ================> DF-SCS-MP2 Energies <==================
	-----------------------------------------------------------
	 SCS Same-Spin Scale       =       0.3333333333333333 [-]
	 SCS Opposite-Spin Scale   =       1.2000000000000000 [-]
	 SCS Same-Spin Energy      =      -0.2146495146292045 [Eh]
	 SCS Opposite-Spin Energy  =      -2.3778268469105557 [Eh]
	 SCS Correlation Energy    =      -2.5924763615397604 [Eh]
	 SCS Total Energy          =    -592.9235211445952700 [Eh]
	-----------------------------------------------------------

  Dipole Moment: [D]
     X:     2.0201      Y:    -0.1885      Z:     0.1608     Total:     2.0353

*** Psi4 exiting successfully. Buy a developer a beer!
