                               Psi4 1.4a3.dev225

  ==> Input File <==

--------------------------------------------------------------------------
#psi4
#
memory 32 gb

molecule  {
0 1
  O       -0.4771680     1.3164760     0.3008390
  N        0.7985240    -0.5535590    -0.2772820
  C        3.2255886    -0.4200722    -0.1332334
  C        0.7425440     0.7008700     0.1517020
  C       -1.6208490     0.5302780     0.1412880
  C        3.1140170     0.9030370     0.2913960
  C        1.8654780     1.4834140     0.4539590
  C        2.0264240    -1.0936290    -0.4226860
  C        4.5555360    -1.0893210    -0.3460000
  C       -1.9196720    -0.4880720     1.0459920
  C       -2.4970780     0.8728280    -0.8843220
  C       -3.1225630    -1.1795470     0.9070330
  C       -3.7017300     0.1773150    -1.0087090
  C       -4.0153870    -0.8504980    -0.1174150
  H        4.0120030     1.4769520     0.5152690
  H        1.7375180     2.5038470     0.8013060
  H        2.0412640    -2.1246280    -0.7760920
  H        5.1157190    -1.1239590     0.5937180
  H        4.4318450    -2.1155640    -0.7023530
  H        5.1668890    -0.5502680    -1.0765200
  H       -1.2183070    -0.7290930     1.8393240
  H       -2.2288450     1.6771480    -1.5635320
  H       -3.3650020    -1.9773860     1.6048690
  H       -4.3932510     0.4394220    -1.8057380
  H       -4.9525670    -1.3919050    -0.2175730
units angstrom
no_reorient  #important for SAPT in psi4, default
symmetry c1  #important for SAPT in psi4, default
}

set PROPERTIES_ORIGIN ["COM"]
properties('MP2/aug-cc-pvtz', properties = ['dipole'])
--------------------------------------------------------------------------

    Molecular point group: c1
  Charge       = 0
  Multiplicity = 1
  Basis Set: AUG-CC-PVTZ
    Blend: AUG-CC-PVTZ
  Basis Set: (AUG-CC-PVTZ AUX)
    Blend: AUG-CC-PVTZ-JKFIT

    Orbital Energies [Eh]
    ---------------------

    Doubly Occupied:

       1A    -20.598279     2A    -15.564048     3A    -11.340317
       4A    -11.295599     5A    -11.279364     6A    -11.259902
       7A    -11.243519     8A    -11.240645     9A    -11.236731
      10A    -11.236631    11A    -11.232845    12A    -11.232044
      13A    -11.231280    14A    -11.230414    15A     -1.430504
      16A     -1.253531    17A     -1.145823    18A     -1.103799
      19A     -1.052210    20A     -1.015232    21A     -1.003643
      22A     -0.942707    23A     -0.877439    24A     -0.842536
      25A     -0.830817    26A     -0.800330    27A     -0.736789
      28A     -0.704476    29A     -0.679219    30A     -0.655404
      31A     -0.643514    32A     -0.626490    33A     -0.610859
      34A     -0.594561    35A     -0.592131    36A     -0.586187
      37A     -0.569891    38A     -0.562018    39A     -0.549146
      40A     -0.523781    41A     -0.513515    42A     -0.511757
      43A     -0.492630    44A     -0.477424    45A     -0.427721
      46A     -0.385427    47A     -0.335373    48A     -0.331937
      49A     -0.312779

  @DF-RHF Final Energy:  -590.33097442840381

   => Energetics <=

    Nuclear Repulsion Energy =            801.6892116070167731
    One-Electron Energy =               -2392.1539363308074826
    Two-Electron Energy =                1000.1337502953870171
    Total Energy =                       -590.3309744284038061
  Basis Set: (AUG-CC-PVTZ AUX)
    Blend: AUG-CC-PVTZ-RI
    Molecular point group: c1

    Geometry (in Angstrom), charge = 0, multiplicity = 1:

       Center              X                  Y                   Z               Mass
    ------------   -----------------  -----------------  -----------------  -----------------
         O           -0.443530128332     1.295304243262     0.294984005735    15.994914619570
         N            0.832161871668    -0.574730756738    -0.283136994265    14.003074004430
         C            3.259226471668    -0.441243956738    -0.139088394265    12.000000000000
         C            0.776181871668     0.679698243262     0.145847005735    12.000000000000
         C           -1.587211128332     0.509106243262     0.135433005735    12.000000000000
         C            3.147654871668     0.881865243262     0.285541005735    12.000000000000
         C            1.899115871668     1.462242243262     0.448104005735    12.000000000000
         C            2.060061871668    -1.114800756738    -0.428540994265    12.000000000000
         C            4.589173871668    -1.110492756738    -0.351854994265    12.000000000000
         C           -1.886034128332    -0.509243756738     1.040137005735    12.000000000000
         C           -2.463440128332     0.851656243262    -0.890176994265    12.000000000000
         C           -3.088925128332    -1.200718756738     0.901178005735    12.000000000000
         C           -3.668092128332     0.156143243262    -1.014563994265    12.000000000000
         C           -3.981749128332    -0.871669756738    -0.123269994265    12.000000000000
         H            4.045640871668     1.455780243262     0.509414005735     1.007825032230
         H            1.771155871668     2.482675243262     0.795451005735     1.007825032230
         H            2.074901871668    -2.145799756738    -0.781946994265     1.007825032230
         H            5.149356871668    -1.145130756738     0.587863005735     1.007825032230
         H            4.465482871668    -2.136735756738    -0.708207994265     1.007825032230
         H            5.200526871668    -0.571439756738    -1.082374994265     1.007825032230
         H           -1.184669128332    -0.750264756738     1.833469005735     1.007825032230
         H           -2.195207128332     1.655976243262    -1.569386994265     1.007825032230
         H           -3.331364128332    -1.998557756738     1.599014005735     1.007825032230
         H           -4.359613128332     0.418250243262    -1.811592994265     1.007825032230
         H           -4.918929128332    -1.413076756738    -0.223427994265     1.007825032230

  Basis Set: AUG-CC-PVTZ
    Blend: AUG-CC-PVTZ
  Basis Set: (AUG-CC-PVTZ AUX)
    Blend: AUG-CC-PVTZ-JKFIT
	 Reference Energy          =    -590.3309744284038061 [Eh]
	 Singles Energy            =      -0.0000000000000000 [Eh]
	 Same-Spin Energy          =      -0.6441276164883811 [Eh]
	 Opposite-Spin Energy      =      -1.9816071327945535 [Eh]
	 Correlation Energy        =      -2.6257347492829348 [Eh]
	 Total Energy              =    -592.9567091776867755 [Eh]

	 ================> DF-SCS-MP2 Energies <==================
	-----------------------------------------------------------
	 SCS Same-Spin Scale       =       0.3333333333333333 [-]
	 SCS Opposite-Spin Scale   =       1.2000000000000000 [-]
	 SCS Same-Spin Energy      =      -0.2147092054961270 [Eh]
	 SCS Opposite-Spin Energy  =      -2.3779285593534643 [Eh]
	 SCS Correlation Energy    =      -2.5926377648495911 [Eh]
	 SCS Total Energy          =    -592.9236121932533479 [Eh]
	-----------------------------------------------------------

  Dipole Moment: [D]
     X:     2.0192      Y:    -0.1993      Z:     0.1433     Total:     2.0341

*** Psi4 exiting successfully. Buy a developer a beer!
