                               Psi4 1.4a3.dev225

  ==> Input File <==

--------------------------------------------------------------------------
#psi4
#
memory 32 gb

molecule  {
0 1
  O       -0.4771680     1.3164760     0.3008390
  N        0.7985240    -0.5535590    -0.2772820
  C        3.2200150    -0.4235850    -0.1586420
  C        0.7425440     0.7008700     0.1517020
  C       -1.6208490     0.5302780     0.1412880
  C        3.1140170     0.9030370     0.2913960
  C        1.8654780     1.4834140     0.4539590
  C        2.0264240    -1.0936290    -0.4226860
  C        4.5555360    -1.0893210    -0.3460000
  C       -1.9196720    -0.4880720     1.0459920
  C       -2.4970780     0.8728280    -0.8843220
  C       -3.0636200    -1.1093343     0.8735669
  C       -3.7017300     0.1773150    -1.0087090
  C       -4.0153870    -0.8504980    -0.1174150
  H        4.0120030     1.4769520     0.5152690
  H        1.7375180     2.5038470     0.8013060
  H        2.0412640    -2.1246280    -0.7760920
  H        5.1157190    -1.1239590     0.5937180
  H        4.4318450    -2.1155640    -0.7023530
  H        5.1668890    -0.5502680    -1.0765200
  H       -1.2183070    -0.7290930     1.8393240
  H       -2.2288450     1.6771480    -1.5635320
  H       -3.3650020    -1.9773860     1.6048690
  H       -4.3932510     0.4394220    -1.8057380
  H       -4.9525670    -1.3919050    -0.2175730
units angstrom
no_reorient  #important for SAPT in psi4, default
symmetry c1  #important for SAPT in psi4, default
}

set PROPERTIES_ORIGIN ["COM"]
properties('MP2/aug-cc-pvtz', properties = ['dipole'])
--------------------------------------------------------------------------

    Molecular point group: c1
  Charge       = 0
  Multiplicity = 1
  Basis Set: AUG-CC-PVTZ
    Blend: AUG-CC-PVTZ
  Basis Set: (AUG-CC-PVTZ AUX)
    Blend: AUG-CC-PVTZ-JKFIT

    Orbital Energies [Eh]
    ---------------------

    Doubly Occupied:

       1A    -20.598894     2A    -15.564054     3A    -11.341254
       4A    -11.296902     5A    -11.277747     6A    -11.261834
       7A    -11.243639     8A    -11.241580     9A    -11.236621
      10A    -11.234412    11A    -11.233042    12A    -11.229533
      13A    -11.228926    14A    -11.223086    15A     -1.431260
      16A     -1.254055    17A     -1.155786    18A     -1.103054
      19A     -1.053378    20A     -1.024826    21A     -1.002591
      22A     -0.943255    23A     -0.879310    24A     -0.842827
      25A     -0.824802    26A     -0.803390    27A     -0.736135
      28A     -0.704993    29A     -0.683017    30A     -0.659599
      31A     -0.643299    32A     -0.620846    33A     -0.610639
      34A     -0.596535    35A     -0.591078    36A     -0.579560
      37A     -0.571992    38A     -0.563924    39A     -0.550276
      40A     -0.525007    41A     -0.520851    42A     -0.509524
      43A     -0.493726    44A     -0.465567    45A     -0.428851
      46A     -0.384973    47A     -0.344922    48A     -0.331078
      49A     -0.313092

  @DF-RHF Final Energy:  -590.31951622059569

   => Energetics <=

    Nuclear Repulsion Energy =            803.6873324777048992
    One-Electron Energy =               -2396.0946187245945111
    Two-Electron Energy =                1002.0877700262940380
    Total Energy =                       -590.3195162205956876
  Basis Set: (AUG-CC-PVTZ AUX)
    Blend: AUG-CC-PVTZ-RI
    Molecular point group: c1

    Geometry (in Angstrom), charge = 0, multiplicity = 1:

       Center              X                  Y                   Z               Mass
    ------------   -----------------  -----------------  -----------------  -----------------
         O           -0.446990354925     1.290979728321     0.298801170675    15.994914619570
         N            0.828701645075    -0.579055271679    -0.279319829325    14.003074004430
         C            3.250192645075    -0.449081271679    -0.160679829325    12.000000000000
         C            0.772721645075     0.675373728321     0.149664170675    12.000000000000
         C           -1.590671354925     0.504781728321     0.139250170675    12.000000000000
         C            3.144194645075     0.877540728321     0.289358170675    12.000000000000
         C            1.895655645075     1.457917728321     0.451921170675    12.000000000000
         C            2.056601645075    -1.119125271679    -0.424723829325    12.000000000000
         C            4.585713645075    -1.114817271679    -0.348037829325    12.000000000000
         C           -1.889494354925    -0.513568271679     1.043954170675    12.000000000000
         C           -2.466900354925     0.847331728321    -0.886359829325    12.000000000000
         C           -3.033442354925    -1.134830571679     0.871529070675    12.000000000000
         C           -3.671552354925     0.151818728321    -1.010746829325    12.000000000000
         C           -3.985209354925    -0.875994271679    -0.119452829325    12.000000000000
         H            4.042180645075     1.451455728321     0.513231170675     1.007825032230
         H            1.767695645075     2.478350728321     0.799268170675     1.007825032230
         H            2.071441645075    -2.150124271679    -0.778129829325     1.007825032230
         H            5.145896645075    -1.149455271679     0.591680170675     1.007825032230
         H            4.462022645075    -2.141060271679    -0.704390829325     1.007825032230
         H            5.197066645075    -0.575764271679    -1.078557829325     1.007825032230
         H           -1.188129354925    -0.754589271679     1.837286170675     1.007825032230
         H           -2.198667354925     1.651651728321    -1.565569829325     1.007825032230
         H           -3.334824354925    -2.002882271679     1.602831170675     1.007825032230
         H           -4.363073354925     0.413925728321    -1.807775829325     1.007825032230
         H           -4.922389354925    -1.417401271679    -0.219610829325     1.007825032230

  Basis Set: AUG-CC-PVTZ
    Blend: AUG-CC-PVTZ
  Basis Set: (AUG-CC-PVTZ AUX)
    Blend: AUG-CC-PVTZ-JKFIT
	 Reference Energy          =    -590.3195162205956876 [Eh]
	 Singles Energy            =      -0.0000000000000000 [Eh]
	 Same-Spin Energy          =      -0.6441124181312938 [Eh]
	 Opposite-Spin Energy      =      -1.9816449413846366 [Eh]
	 Correlation Energy        =      -2.6257573595159305 [Eh]
	 Total Energy              =    -592.9452735801115750 [Eh]

	 ================> DF-SCS-MP2 Energies <==================
	-----------------------------------------------------------
	 SCS Same-Spin Scale       =       0.3333333333333333 [-]
	 SCS Opposite-Spin Scale   =       1.2000000000000000 [-]
	 SCS Same-Spin Energy      =      -0.2147041393770979 [Eh]
	 SCS Opposite-Spin Energy  =      -2.3779739296615641 [Eh]
	 SCS Correlation Energy    =      -2.5926780690386622 [Eh]
	 SCS Total Energy          =    -592.9121942896343853 [Eh]
	-----------------------------------------------------------

  Dipole Moment: [D]
     X:     2.0405      Y:    -0.1289      Z:     0.1186     Total:     2.0480

*** Psi4 exiting successfully. Buy a developer a beer!
