                               Psi4 1.4a3.dev225

  ==> Input File <==

--------------------------------------------------------------------------
#psi4
#
memory 32 gb

molecule  {
0 1
  O       -0.4771680     1.3164760     0.3008390
  N        0.7985240    -0.5535590    -0.2772820
  C        3.2200150    -0.4235850    -0.1586420
  C        0.7425440     0.7008700     0.1517020
  C       -1.7058975     0.5118399     0.0976788
  C        3.1140170     0.9030370     0.2913960
  C        1.8654780     1.4834140     0.4539590
  C        2.0264240    -1.0936290    -0.4226860
  C        4.5555360    -1.0893210    -0.3460000
  C       -1.9196720    -0.4880720     1.0459920
  C       -2.4970780     0.8728280    -0.8843220
  C       -3.1225630    -1.1795470     0.9070330
  C       -3.7017300     0.1773150    -1.0087090
  C       -4.0153870    -0.8504980    -0.1174150
  H        4.0120030     1.4769520     0.5152690
  H        1.7375180     2.5038470     0.8013060
  H        2.0412640    -2.1246280    -0.7760920
  H        5.1157190    -1.1239590     0.5937180
  H        4.4318450    -2.1155640    -0.7023530
  H        5.1668890    -0.5502680    -1.0765200
  H       -1.2183070    -0.7290930     1.8393240
  H       -2.2288450     1.6771480    -1.5635320
  H       -3.3650020    -1.9773860     1.6048690
  H       -4.3932510     0.4394220    -1.8057380
  H       -4.9525670    -1.3919050    -0.2175730
units angstrom
no_reorient  #important for SAPT in psi4, default
symmetry c1  #important for SAPT in psi4, default
}

set PROPERTIES_ORIGIN ["COM"]
properties('MP2/aug-cc-pvtz', properties = ['dipole'])
--------------------------------------------------------------------------

    Molecular point group: c1
  Charge       = 0
  Multiplicity = 1
  Basis Set: AUG-CC-PVTZ
    Blend: AUG-CC-PVTZ
  Basis Set: (AUG-CC-PVTZ AUX)
    Blend: AUG-CC-PVTZ-JKFIT

    Orbital Energies [Eh]
    ---------------------

    Doubly Occupied:

       1A    -20.586042     2A    -15.558085     3A    -11.334663
       4A    -11.293670     5A    -11.273446     6A    -11.257589
       7A    -11.241376     8A    -11.240172     9A    -11.238682
      10A    -11.237892    11A    -11.236150    12A    -11.234508
      13A    -11.229924    14A    -11.228109    15A     -1.400895
      16A     -1.246450    17A     -1.160691    18A     -1.098391
      19A     -1.047750    20A     -1.027308    21A     -1.007646
      22A     -0.938028    23A     -0.870667    24A     -0.844718
      25A     -0.828595    26A     -0.801098    27A     -0.730115
      28A     -0.698765    29A     -0.679242    30A     -0.651983
      31A     -0.638461    32A     -0.626350    33A     -0.604584
      34A     -0.603237    35A     -0.587474    36A     -0.585243
      37A     -0.566494    38A     -0.556829    39A     -0.546024
      40A     -0.517816    41A     -0.514907    42A     -0.509816
      43A     -0.497012    44A     -0.481163    45A     -0.423503
      46A     -0.380664    47A     -0.347042    48A     -0.334068
      49A     -0.312942

  @DF-RHF Final Energy:  -590.31990186185885

   => Energetics <=

    Nuclear Repulsion Energy =            801.3982452886656347
    One-Electron Energy =               -2391.7237332745348795
    Two-Electron Energy =                1000.0055861240102786
    Total Energy =                       -590.3199018618588525
  Basis Set: (AUG-CC-PVTZ AUX)
    Blend: AUG-CC-PVTZ-RI
    Molecular point group: c1

    Geometry (in Angstrom), charge = 0, multiplicity = 1:

       Center              X                  Y                   Z               Mass
    ------------   -----------------  -----------------  -----------------  -----------------
         O           -0.437654607898     1.296727438724     0.299458802658    15.994914619570
         N            0.838037392102    -0.573307561276    -0.278662197342    14.003074004430
         C            3.259528392102    -0.443333561276    -0.160022197342    12.000000000000
         C            0.782057392102     0.681121438724     0.150321802658    12.000000000000
         C           -1.666384107898     0.492091338724     0.096298602658    12.000000000000
         C            3.153530392102     0.883288438724     0.290015802658    12.000000000000
         C            1.904991392102     1.463665438724     0.452578802658    12.000000000000
         C            2.065937392102    -1.113377561276    -0.424066197342    12.000000000000
         C            4.595049392102    -1.109069561276    -0.347380197342    12.000000000000
         C           -1.880158607898    -0.507820561276     1.044611802658    12.000000000000
         C           -2.457564607898     0.853079438724    -0.885702197342    12.000000000000
         C           -3.083049607898    -1.199295561276     0.905652802658    12.000000000000
         C           -3.662216607898     0.157566438724    -1.010089197342    12.000000000000
         C           -3.975873607898    -0.870246561276    -0.118795197342    12.000000000000
         H            4.051516392102     1.457203438724     0.513888802658     1.007825032230
         H            1.777031392102     2.484098438724     0.799925802658     1.007825032230
         H            2.080777392102    -2.144376561276    -0.777472197342     1.007825032230
         H            5.155232392102    -1.143707561276     0.592337802658     1.007825032230
         H            4.471358392102    -2.135312561276    -0.703733197342     1.007825032230
         H            5.206402392102    -0.570016561276    -1.077900197342     1.007825032230
         H           -1.178793607898    -0.748841561276     1.837943802658     1.007825032230
         H           -2.189331607898     1.657399438724    -1.564912197342     1.007825032230
         H           -3.325488607898    -1.997134561276     1.603488802658     1.007825032230
         H           -4.353737607898     0.419673438724    -1.807118197342     1.007825032230
         H           -4.913053607898    -1.411653561276    -0.218953197342     1.007825032230

  Basis Set: AUG-CC-PVTZ
    Blend: AUG-CC-PVTZ
  Basis Set: (AUG-CC-PVTZ AUX)
    Blend: AUG-CC-PVTZ-JKFIT
	 Reference Energy          =    -590.3199018618588525 [Eh]
	 Singles Energy            =      -0.0000000000000000 [Eh]
	 Same-Spin Energy          =      -0.6439079691410559 [Eh]
	 Opposite-Spin Energy      =      -1.9821866626334281 [Eh]
	 Correlation Energy        =      -2.6260946317744840 [Eh]
	 Total Energy              =    -592.9459964936332881 [Eh]

	 ================> DF-SCS-MP2 Energies <==================
	-----------------------------------------------------------
	 SCS Same-Spin Scale       =       0.3333333333333333 [-]
	 SCS Opposite-Spin Scale   =       1.2000000000000000 [-]
	 SCS Same-Spin Energy      =      -0.2146359897136853 [Eh]
	 SCS Opposite-Spin Energy  =      -2.3786239951601136 [Eh]
	 SCS Correlation Energy    =      -2.5932599848737987 [Eh]
	 SCS Total Energy          =    -592.9131618467326916 [Eh]
	-----------------------------------------------------------

  Dipole Moment: [D]
     X:     1.3497      Y:    -0.3009      Z:     0.0990     Total:     1.3863

*** Psi4 exiting successfully. Buy a developer a beer!
