                               Psi4 1.4a3.dev225

  ==> Input File <==

--------------------------------------------------------------------------
#psi4
#
memory 32 gb

molecule  {
0 1
  O       -0.4771680     1.3164760     0.3008390
  N        0.7985240    -0.5535590    -0.2772820
  C        3.2200150    -0.4235850    -0.1586420
  C        0.7425440     0.7008700     0.1517020
  C       -1.6208490     0.5302780     0.1412880
  C        3.1140170     0.9030370     0.2913960
  C        1.8654780     1.4834140     0.4539590
  C        2.0264240    -1.0936290    -0.4226860
  C        4.5555360    -1.0893210    -0.3460000
  C       -1.9196720    -0.4880720     1.0459920
  C       -2.4970780     0.8728280    -0.8843220
  C       -3.1225630    -1.1795470     0.9070330
  C       -3.7017300     0.1773150    -1.0087090
  C       -4.0153870    -0.8504980    -0.1174150
  H        4.0120030     1.4769520     0.5152690
  H        1.7375180     2.5038470     0.8013060
  H        2.0412640    -2.1246280    -0.7760920
  H        5.1157190    -1.1239590     0.5937180
  H        4.4205322    -2.2094244    -0.7349451
  H        5.1668890    -0.5502680    -1.0765200
  H       -1.2183070    -0.7290930     1.8393240
  H       -2.2288450     1.6771480    -1.5635320
  H       -3.3650020    -1.9773860     1.6048690
  H       -4.3932510     0.4394220    -1.8057380
  H       -4.9525670    -1.3919050    -0.2175730
units angstrom
no_reorient  #important for SAPT in psi4, default
symmetry c1  #important for SAPT in psi4, default
}

set PROPERTIES_ORIGIN ["COM"]
properties('MP2/aug-cc-pvtz', properties = ['dipole'])
--------------------------------------------------------------------------

    Molecular point group: c1
  Charge       = 0
  Multiplicity = 1
  Basis Set: AUG-CC-PVTZ
    Blend: AUG-CC-PVTZ
  Basis Set: (AUG-CC-PVTZ AUX)
    Blend: AUG-CC-PVTZ-JKFIT

    Orbital Energies [Eh]
    ---------------------

    Doubly Occupied:

       1A    -20.598822     2A    -15.563656     3A    -11.341093
       4A    -11.295791     5A    -11.277586     6A    -11.262273
       7A    -11.244703     8A    -11.243947     9A    -11.241596
      10A    -11.236839    11A    -11.236740    12A    -11.232199
      13A    -11.231458    14A    -11.230544    15A     -1.430976
      16A     -1.253789    17A     -1.145984    18A     -1.102652
      19A     -1.052403    20A     -1.015351    21A     -1.003199
      22A     -0.938243    23A     -0.877989    24A     -0.840911
      25A     -0.830277    26A     -0.800999    27A     -0.736940
      28A     -0.704790    29A     -0.678894    30A     -0.655658
      31A     -0.641522    32A     -0.626296    33A     -0.611419
      34A     -0.593902    35A     -0.592470    36A     -0.586685
      37A     -0.570259    38A     -0.563921    39A     -0.539370
      40A     -0.515581    41A     -0.513570    42A     -0.510524
      43A     -0.492822    44A     -0.477816    45A     -0.428503
      46A     -0.384986    47A     -0.335554    48A     -0.332598
      49A     -0.313868

  @DF-RHF Final Energy:  -590.32490662949863

   => Energetics <=

    Nuclear Repulsion Energy =            801.3170304732784643
    One-Electron Energy =               -2391.4079397166024137
    Two-Electron Energy =                 999.7660026138253215
    Total Energy =                       -590.3249066294986278
  Basis Set: (AUG-CC-PVTZ AUX)
    Blend: AUG-CC-PVTZ-RI
    Molecular point group: c1

    Geometry (in Angstrom), charge = 0, multiplicity = 1:

       Center              X                  Y                   Z               Mass
    ------------   -----------------  -----------------  -----------------  -----------------
         O           -0.443107160945     1.296043088399     0.296808854007    15.994914619570
         N            0.832584839055    -0.573991911601    -0.281312145993    14.003074004430
         C            3.254075839055    -0.444017911601    -0.162672145993    12.000000000000
         C            0.776604839055     0.680437088399     0.147671854007    12.000000000000
         C           -1.586788160945     0.509845088399     0.137257854007    12.000000000000
         C            3.148077839055     0.882604088399     0.287365854007    12.000000000000
         C            1.899538839055     1.462981088399     0.449928854007    12.000000000000
         C            2.060484839055    -1.114061911601    -0.426716145993    12.000000000000
         C            4.589596839055    -1.109753911601    -0.350030145993    12.000000000000
         C           -1.885611160945    -0.508504911601     1.041961854007    12.000000000000
         C           -2.463017160945     0.852395088399    -0.888352145993    12.000000000000
         C           -3.088502160945    -1.199979911601     0.903002854007    12.000000000000
         C           -3.667669160945     0.156882088399    -1.012739145993    12.000000000000
         C           -3.981326160945    -0.870930911601    -0.121445145993    12.000000000000
         H            4.046063839055     1.456519088399     0.511238854007     1.007825032230
         H            1.771578839055     2.483414088399     0.797275854007     1.007825032230
         H            2.075324839055    -2.145060911601    -0.780122145993     1.007825032230
         H            5.149779839055    -1.144391911601     0.589687854007     1.007825032230
         H            4.454593039055    -2.229857311601    -0.738975245993     1.007825032230
         H            5.200949839055    -0.570700911601    -1.080550145993     1.007825032230
         H           -1.184246160945    -0.749525911601     1.835293854007     1.007825032230
         H           -2.194784160945     1.656715088399    -1.567562145993     1.007825032230
         H           -3.330941160945    -1.997818911601     1.600838854007     1.007825032230
         H           -4.359190160945     0.418989088399    -1.809768145993     1.007825032230
         H           -4.918506160945    -1.412337911601    -0.221603145993     1.007825032230

  Basis Set: AUG-CC-PVTZ
    Blend: AUG-CC-PVTZ
  Basis Set: (AUG-CC-PVTZ AUX)
    Blend: AUG-CC-PVTZ-JKFIT
	 Reference Energy          =    -590.3249066294986278 [Eh]
	 Singles Energy            =      -0.0000000000000000 [Eh]
	 Same-Spin Energy          =      -0.6440380987511606 [Eh]
	 Opposite-Spin Energy      =      -1.9822822613503848 [Eh]
	 Correlation Energy        =      -2.6263203601015452 [Eh]
	 Total Energy              =    -592.9512269896001726 [Eh]

	 ================> DF-SCS-MP2 Energies <==================
	-----------------------------------------------------------
	 SCS Same-Spin Scale       =       0.3333333333333333 [-]
	 SCS Opposite-Spin Scale   =       1.2000000000000000 [-]
	 SCS Same-Spin Energy      =      -0.2146793662503869 [Eh]
	 SCS Opposite-Spin Energy  =      -2.3787387136204616 [Eh]
	 SCS Correlation Energy    =      -2.5934180798708484 [Eh]
	 SCS Total Energy          =    -592.9183247093694717 [Eh]
	-----------------------------------------------------------

  Dipole Moment: [D]
     X:     1.9898      Y:    -0.1294      Z:     0.1745     Total:     2.0016

*** Psi4 exiting successfully. Buy a developer a beer!
