                               Psi4 1.4a3.dev225

  ==> Input File <==

--------------------------------------------------------------------------
#psi4
#
memory 32 gb

molecule  {
0 1
  O       -0.4771680     1.3164760     0.3008390
  N        0.7985240    -0.5535590    -0.2772820
  C        3.2200150    -0.4235850    -0.1586420
  C        0.7425440     0.7008700     0.1517020
  C       -1.6208490     0.5302780     0.1412880
  C        3.1140170     0.9030370     0.2913960
  C        1.8654780     1.4834140     0.4539590
  C        2.0264240    -1.0936290    -0.4226860
  C        4.5555360    -1.0893210    -0.3460000
  C       -1.9196720    -0.4880720     1.0459920
  C       -2.4970780     0.8728280    -0.8843220
  C       -3.1536174    -1.2141723     0.9218135
  C       -3.7017300     0.1773150    -1.0087090
  C       -4.0153870    -0.8504980    -0.1174150
  H        4.0120030     1.4769520     0.5152690
  H        1.7375180     2.5038470     0.8013060
  H        2.0412640    -2.1246280    -0.7760920
  H        5.1157190    -1.1239590     0.5937180
  H        4.4318450    -2.1155640    -0.7023530
  H        5.1668890    -0.5502680    -1.0765200
  H       -1.2183070    -0.7290930     1.8393240
  H       -2.2288450     1.6771480    -1.5635320
  H       -3.3650020    -1.9773860     1.6048690
  H       -4.3932510     0.4394220    -1.8057380
  H       -4.9525670    -1.3919050    -0.2175730
units angstrom
no_reorient  #important for SAPT in psi4, default
symmetry c1  #important for SAPT in psi4, default
}

set PROPERTIES_ORIGIN ["COM"]
properties('MP2/aug-cc-pvtz', properties = ['dipole'])
--------------------------------------------------------------------------

    Molecular point group: c1
  Charge       = 0
  Multiplicity = 1
  Basis Set: AUG-CC-PVTZ
    Blend: AUG-CC-PVTZ
  Basis Set: (AUG-CC-PVTZ AUX)
    Blend: AUG-CC-PVTZ-JKFIT

    Orbital Energies [Eh]
    ---------------------

    Doubly Occupied:

       1A    -20.598488     2A    -15.563138     3A    -11.340520
       4A    -11.295212     5A    -11.277126     6A    -11.261276
       7A    -11.243049     8A    -11.241001     9A    -11.238140
      10A    -11.236934    11A    -11.236351    12A    -11.232724
      13A    -11.232649    14A    -11.231464    15A     -1.430555
      16A     -1.253245    17A     -1.142029    18A     -1.102454
      19A     -1.052922    20A     -1.012154    21A     -1.003628
      22A     -0.942765    23A     -0.876991    24A     -0.842823
      25A     -0.833239    26A     -0.799898    27A     -0.737770
      28A     -0.704670    29A     -0.677368    30A     -0.653574
      31A     -0.643678    32A     -0.631719    33A     -0.611274
      34A     -0.597841    35A     -0.592449    36A     -0.585761
      37A     -0.568142    38A     -0.562894    39A     -0.549294
      40A     -0.520842    41A     -0.516391    42A     -0.504947
      43A     -0.492403    44A     -0.479277    45A     -0.427930
      46A     -0.384255    47A     -0.333321    48A     -0.331321
      49A     -0.313654

  @DF-RHF Final Energy:  -590.32792484563788

   => Energetics <=

    Nuclear Repulsion Energy =            800.7821316049178222
    One-Electron Energy =               -2390.3370109757206592
    Two-Electron Energy =                 999.2269545251649561
    Total Energy =                       -590.3279248456378809
  Basis Set: (AUG-CC-PVTZ AUX)
    Blend: AUG-CC-PVTZ-RI
    Molecular point group: c1

    Geometry (in Angstrom), charge = 0, multiplicity = 1:

       Center              X                  Y                   Z               Mass
    ------------   -----------------  -----------------  -----------------  -----------------
         O           -0.441155337167     1.297776942370     0.295673082889    15.994914619570
         N            0.834536662833    -0.572258057630    -0.282447917111    14.003074004430
         C            3.256027662833    -0.442284057630    -0.163807917111    12.000000000000
         C            0.778556662833     0.682170942370     0.146536082889    12.000000000000
         C           -1.584836337167     0.511578942370     0.136122082889    12.000000000000
         C            3.150029662833     0.884337942370     0.286230082889    12.000000000000
         C            1.901490662833     1.464714942370     0.448793082889    12.000000000000
         C            2.062436662833    -1.112328057630    -0.427851917111    12.000000000000
         C            4.591548662833    -1.108020057630    -0.351165917111    12.000000000000
         C           -1.883659337167    -0.506771057630     1.040826082889    12.000000000000
         C           -2.461065337167     0.854128942370    -0.889487917111    12.000000000000
         C           -3.117604737167    -1.232871357630     0.916647582889    12.000000000000
         C           -3.665717337167     0.158615942370    -1.013874917111    12.000000000000
         C           -3.979374337167    -0.869197057630    -0.122580917111    12.000000000000
         H            4.048015662833     1.458252942370     0.510103082889     1.007825032230
         H            1.773530662833     2.485147942370     0.796140082889     1.007825032230
         H            2.077276662833    -2.143327057630    -0.781257917111     1.007825032230
         H            5.151731662833    -1.142658057630     0.588552082889     1.007825032230
         H            4.467857662833    -2.134263057630    -0.707518917111     1.007825032230
         H            5.202901662833    -0.568967057630    -1.081685917111     1.007825032230
         H           -1.182294337167    -0.747792057630     1.834158082889     1.007825032230
         H           -2.192832337167     1.658448942370    -1.568697917111     1.007825032230
         H           -3.328989337167    -1.996085057630     1.599703082889     1.007825032230
         H           -4.357238337167     0.420722942370    -1.810903917111     1.007825032230
         H           -4.916554337167    -1.410604057630    -0.222738917111     1.007825032230

  Basis Set: AUG-CC-PVTZ
    Blend: AUG-CC-PVTZ
  Basis Set: (AUG-CC-PVTZ AUX)
    Blend: AUG-CC-PVTZ-JKFIT
	 Reference Energy          =    -590.3279248456378809 [Eh]
	 Singles Energy            =      -0.0000000000000000 [Eh]
	 Same-Spin Energy          =      -0.6440409997190367 [Eh]
	 Opposite-Spin Energy      =      -1.9819342217653155 [Eh]
	 Correlation Energy        =      -2.6259752214843521 [Eh]
	 Total Energy              =    -592.9539000671222766 [Eh]

	 ================> DF-SCS-MP2 Energies <==================
	-----------------------------------------------------------
	 SCS Same-Spin Scale       =       0.3333333333333333 [-]
	 SCS Opposite-Spin Scale   =       1.2000000000000000 [-]
	 SCS Same-Spin Energy      =      -0.2146803332396789 [Eh]
	 SCS Opposite-Spin Energy  =      -2.3783210661183785 [Eh]
	 SCS Correlation Energy    =      -2.5930013993580574 [Eh]
	 SCS Total Energy          =    -592.9209262449959397 [Eh]
	-----------------------------------------------------------

  Dipole Moment: [D]
     X:     2.0098      Y:    -0.1977      Z:     0.1627     Total:     2.0261

*** Psi4 exiting successfully. Buy a developer a beer!
