                               Psi4 1.4a3.dev225

  ==> Input File <==

--------------------------------------------------------------------------
#psi4
#
memory 32 gb

molecule  {
0 1
  O       -0.4771680     1.3164760     0.3008390
  N        0.7985240    -0.5535590    -0.2772820
  C        3.2200150    -0.4235850    -0.1586420
  C        0.7425440     0.7008700     0.1517020
  C       -1.6208490     0.5302780     0.1412880
  C        3.1140170     0.9030370     0.2913960
  C        1.8654780     1.4834140     0.4539590
  C        2.0264240    -1.0936290    -0.4226860
  C        4.5555360    -1.0893210    -0.3460000
  C       -1.9196720    -0.4880720     1.0459920
  C       -2.4970780     0.8728280    -0.8843220
  C       -3.1857217    -1.2483545     0.9353278
  C       -3.7017300     0.1773150    -1.0087090
  C       -4.0153870    -0.8504980    -0.1174150
  H        4.0120030     1.4769520     0.5152690
  H        1.7375180     2.5038470     0.8013060
  H        2.0412640    -2.1246280    -0.7760920
  H        5.1157190    -1.1239590     0.5937180
  H        4.4318450    -2.1155640    -0.7023530
  H        5.1668890    -0.5502680    -1.0765200
  H       -1.2183070    -0.7290930     1.8393240
  H       -2.2288450     1.6771480    -1.5635320
  H       -3.3650020    -1.9773860     1.6048690
  H       -4.3932510     0.4394220    -1.8057380
  H       -4.9525670    -1.3919050    -0.2175730
units angstrom
no_reorient  #important for SAPT in psi4, default
symmetry c1  #important for SAPT in psi4, default
}

set PROPERTIES_ORIGIN ["COM"]
properties('MP2/aug-cc-pvtz', properties = ['dipole'])
--------------------------------------------------------------------------

    Molecular point group: c1
  Charge       = 0
  Multiplicity = 1
  Basis Set: AUG-CC-PVTZ
    Blend: AUG-CC-PVTZ
  Basis Set: (AUG-CC-PVTZ AUX)
    Blend: AUG-CC-PVTZ-JKFIT

    Orbital Energies [Eh]
    ---------------------

    Doubly Occupied:

       1A    -20.598432     2A    -15.562915     3A    -11.340353
       4A    -11.294841     5A    -11.276981     6A    -11.261151
       7A    -11.242912     8A    -11.240872     9A    -11.240732
      10A    -11.239366    11A    -11.237311    12A    -11.234212
      13A    -11.232852    14A    -11.232559    15A     -1.430422
      16A     -1.253059    17A     -1.138843    18A     -1.102316
      19A     -1.052870    20A     -1.011016    21A     -1.002218
      22A     -0.942637    23A     -0.876399    24A     -0.844872
      25A     -0.835006    26A     -0.799299    27A     -0.739173
      28A     -0.704632    29A     -0.675707    30A     -0.651743
      31A     -0.645577    32A     -0.637284    33A     -0.611427
      34A     -0.600628    35A     -0.592514    36A     -0.585056
      37A     -0.566719    38A     -0.562297    39A     -0.549055
      40A     -0.520720    41A     -0.520023    42A     -0.496487
      43A     -0.492039    44A     -0.479513    45A     -0.427665
      46A     -0.384087    47A     -0.334487    48A     -0.327856
      49A     -0.313427

  @DF-RHF Final Energy:  -590.31801688937185

   => Energetics <=

    Nuclear Repulsion Energy =            799.8808799116501405
    One-Electron Energy =               -2388.5126722085947222
    Two-Electron Energy =                 998.3137754075728481
    Total Energy =                       -590.3180168893718474
  Basis Set: (AUG-CC-PVTZ AUX)
    Blend: AUG-CC-PVTZ-RI
    Molecular point group: c1

    Geometry (in Angstrom), charge = 0, multiplicity = 1:

       Center              X                  Y                   Z               Mass
    ------------   -----------------  -----------------  -----------------  -----------------
         O           -0.439073841917     1.299993159106     0.294796877793    15.994914619570
         N            0.836618158083    -0.570041840894    -0.283324122207    14.003074004430
         C            3.258109158083    -0.440067840894    -0.164684122207    12.000000000000
         C            0.780638158083     0.684387159106     0.145659877793    12.000000000000
         C           -1.582754841917     0.513795159106     0.135245877793    12.000000000000
         C            3.152111158083     0.886554159106     0.285353877793    12.000000000000
         C            1.903572158083     1.466931159106     0.447916877793    12.000000000000
         C            2.064518158083    -1.110111840894    -0.428728122207    12.000000000000
         C            4.593630158083    -1.105803840894    -0.352042122207    12.000000000000
         C           -1.881577841917    -0.504554840894     1.039949877793    12.000000000000
         C           -2.458983841917     0.856345159106    -0.890364122207    12.000000000000
         C           -3.147627541917    -1.264837340894     0.929285677793    12.000000000000
         C           -3.663635841917     0.160832159106    -1.014751122207    12.000000000000
         C           -3.977292841917    -0.866980840894    -0.123457122207    12.000000000000
         H            4.050097158083     1.460469159106     0.509226877793     1.007825032230
         H            1.775612158083     2.487364159106     0.795263877793     1.007825032230
         H            2.079358158083    -2.141110840894    -0.782134122207     1.007825032230
         H            5.153813158083    -1.140441840894     0.587675877793     1.007825032230
         H            4.469939158083    -2.132046840894    -0.708395122207     1.007825032230
         H            5.204983158083    -0.566750840894    -1.082562122207     1.007825032230
         H           -1.180212841917    -0.745575840894     1.833281877793     1.007825032230
         H           -2.190750841917     1.660665159106    -1.569574122207     1.007825032230
         H           -3.326907841917    -1.993868840894     1.598826877793     1.007825032230
         H           -4.355156841917     0.422939159106    -1.811780122207     1.007825032230
         H           -4.914472841917    -1.408387840894    -0.223615122207     1.007825032230

  Basis Set: AUG-CC-PVTZ
    Blend: AUG-CC-PVTZ
  Basis Set: (AUG-CC-PVTZ AUX)
    Blend: AUG-CC-PVTZ-JKFIT
	 Reference Energy          =    -590.3180168893718474 [Eh]
	 Singles Energy            =      -0.0000000000000000 [Eh]
	 Same-Spin Energy          =      -0.6441436903927135 [Eh]
	 Opposite-Spin Energy      =      -1.9827534562258575 [Eh]
	 Correlation Energy        =      -2.6268971466185711 [Eh]
	 Total Energy              =    -592.9449140359904504 [Eh]

	 ================> DF-SCS-MP2 Energies <==================
	-----------------------------------------------------------
	 SCS Same-Spin Scale       =       0.3333333333333333 [-]
	 SCS Opposite-Spin Scale   =       1.2000000000000000 [-]
	 SCS Same-Spin Energy      =      -0.2147145634642378 [Eh]
	 SCS Opposite-Spin Energy  =      -2.3793041474710290 [Eh]
	 SCS Correlation Energy    =      -2.5940187109352668 [Eh]
	 SCS Total Energy          =    -592.9120356003071493 [Eh]
	-----------------------------------------------------------

  Dipole Moment: [D]
     X:     2.0044      Y:    -0.2045      Z:     0.1620     Total:     2.0213

*** Psi4 exiting successfully. Buy a developer a beer!
