                               Psi4 1.4a3.dev225

  ==> Input File <==

--------------------------------------------------------------------------
#psi4
#
memory 32 gb

molecule  {
0 1
  O       -0.4771680     1.3164760     0.3008390
  N        0.7985240    -0.5535590    -0.2772820
  C        3.2594949    -0.4055852    -0.0073163
  C        0.7425440     0.7008700     0.1517020
  C       -1.6208490     0.5302780     0.1412880
  C        3.1140170     0.9030370     0.2913960
  C        1.8654780     1.4834140     0.4539590
  C        2.0264240    -1.0936290    -0.4226860
  C        4.5555360    -1.0893210    -0.3460000
  C       -1.9196720    -0.4880720     1.0459920
  C       -2.4970780     0.8728280    -0.8843220
  C       -3.1225630    -1.1795470     0.9070330
  C       -3.7017300     0.1773150    -1.0087090
  C       -4.0153870    -0.8504980    -0.1174150
  H        4.0120030     1.4769520     0.5152690
  H        1.7375180     2.5038470     0.8013060
  H        2.0412640    -2.1246280    -0.7760920
  H        5.1157190    -1.1239590     0.5937180
  H        4.4318450    -2.1155640    -0.7023530
  H        5.1668890    -0.5502680    -1.0765200
  H       -1.2183070    -0.7290930     1.8393240
  H       -2.2288450     1.6771480    -1.5635320
  H       -3.3650020    -1.9773860     1.6048690
  H       -4.3932510     0.4394220    -1.8057380
  H       -4.9525670    -1.3919050    -0.2175730
units angstrom
no_reorient  #important for SAPT in psi4, default
symmetry c1  #important for SAPT in psi4, default
}

set PROPERTIES_ORIGIN ["COM"]
properties('MP2/aug-cc-pvtz', properties = ['dipole'])
--------------------------------------------------------------------------

    Molecular point group: c1
  Charge       = 0
  Multiplicity = 1
  Basis Set: AUG-CC-PVTZ
    Blend: AUG-CC-PVTZ
  Basis Set: (AUG-CC-PVTZ AUX)
    Blend: AUG-CC-PVTZ-JKFIT

    Orbital Energies [Eh]
    ---------------------

    Doubly Occupied:

       1A    -20.597550     2A    -15.567085     3A    -11.339380
       4A    -11.295588     5A    -11.290533     6A    -11.253387
       7A    -11.245934     8A    -11.237661     9A    -11.236904
      10A    -11.236791    11A    -11.233320    12A    -11.232134
      13A    -11.231248    14A    -11.230493    15A     -1.429972
      16A     -1.253675    17A     -1.145848    18A     -1.108905
      19A     -1.048439    20A     -1.015350    21A     -1.003162
      22A     -0.942029    23A     -0.876767    24A     -0.843427
      25A     -0.831483    26A     -0.796964    27A     -0.736675
      28A     -0.702536    29A     -0.679296    30A     -0.655251
      31A     -0.645118    32A     -0.626398    33A     -0.609800
      34A     -0.593292    35A     -0.591948    36A     -0.586573
      37A     -0.571779    38A     -0.557154    39A     -0.546599
      40A     -0.532706    41A     -0.513102    42A     -0.511418
      43A     -0.492521    44A     -0.476488    45A     -0.423727
      46A     -0.390127    47A     -0.335419    48A     -0.330401
      49A     -0.308608

  @DF-RHF Final Energy:  -590.31667026710670

   => Energetics <=

    Nuclear Repulsion Energy =            801.2790466864151995
    One-Electron Energy =               -2391.3095072410555986
    Two-Electron Energy =                 999.7137902875335840
    Total Energy =                       -590.3166702671067014
  Basis Set: (AUG-CC-PVTZ AUX)
    Blend: AUG-CC-PVTZ-RI
    Molecular point group: c1

    Geometry (in Angstrom), charge = 0, multiplicity = 1:

       Center              X                  Y                   Z               Mass
    ------------   -----------------  -----------------  -----------------  -----------------
         O           -0.445728456980     1.294364972769     0.286820119728    15.994914619570
         N            0.829963543020    -0.575670027231    -0.291300880272    14.003074004430
         C            3.290934443020    -0.427696227231    -0.021335180272    12.000000000000
         C            0.773983543020     0.678758972769     0.137683119728    12.000000000000
         C           -1.589409456980     0.508166972769     0.127269119728    12.000000000000
         C            3.145456543020     0.880925972769     0.277377119728    12.000000000000
         C            1.896917543020     1.461302972769     0.439940119728    12.000000000000
         C            2.057863543020    -1.115740027231    -0.436704880272    12.000000000000
         C            4.586975543020    -1.111432027231    -0.360018880272    12.000000000000
         C           -1.888232456980    -0.510183027231     1.031973119728    12.000000000000
         C           -2.465638456980     0.850716972769    -0.898340880272    12.000000000000
         C           -3.091123456980    -1.201658027231     0.893014119728    12.000000000000
         C           -3.670290456980     0.155203972769    -1.022727880272    12.000000000000
         C           -3.983947456980    -0.872609027231    -0.131433880272    12.000000000000
         H            4.043442543020     1.454840972769     0.501250119728     1.007825032230
         H            1.768957543020     2.481735972769     0.787287119728     1.007825032230
         H            2.072703543020    -2.146739027231    -0.790110880272     1.007825032230
         H            5.147158543020    -1.146070027231     0.579699119728     1.007825032230
         H            4.463284543020    -2.137675027231    -0.716371880272     1.007825032230
         H            5.198328543020    -0.572379027231    -1.090538880272     1.007825032230
         H           -1.186867456980    -0.751204027231     1.825305119728     1.007825032230
         H           -2.197405456980     1.655036972769    -1.577550880272     1.007825032230
         H           -3.333562456980    -1.999497027231     1.590850119728     1.007825032230
         H           -4.361811456980     0.417310972769    -1.819756880272     1.007825032230
         H           -4.921127456980    -1.414016027231    -0.231591880272     1.007825032230

  Basis Set: AUG-CC-PVTZ
    Blend: AUG-CC-PVTZ
  Basis Set: (AUG-CC-PVTZ AUX)
    Blend: AUG-CC-PVTZ-JKFIT
	 Reference Energy          =    -590.3166702671067014 [Eh]
	 Singles Energy            =      -0.0000000000000000 [Eh]
	 Same-Spin Energy          =      -0.6447672524181212 [Eh]
	 Opposite-Spin Energy      =      -1.9829821669177241 [Eh]
	 Correlation Energy        =      -2.6277494193358453 [Eh]
	 Total Energy              =    -592.9444196864425294 [Eh]

	 ================> DF-SCS-MP2 Energies <==================
	-----------------------------------------------------------
	 SCS Same-Spin Scale       =       0.3333333333333333 [-]
	 SCS Opposite-Spin Scale   =       1.2000000000000000 [-]
	 SCS Same-Spin Energy      =      -0.2149224174727070 [Eh]
	 SCS Opposite-Spin Energy  =      -2.3795786003012687 [Eh]
	 SCS Correlation Energy    =      -2.5945010177739758 [Eh]
	 SCS Total Energy          =    -592.9111712848806519 [Eh]
	-----------------------------------------------------------

  Dipole Moment: [D]
     X:     1.9842      Y:    -0.2670      Z:     0.0837     Total:     2.0038

*** Psi4 exiting successfully. Buy a developer a beer!
