                               Psi4 1.4a3.dev225

  ==> Input File <==

--------------------------------------------------------------------------
#psi4
#
memory 32 gb

molecule  {
0 1
  O       -0.4771680     1.3164760     0.3008390
  N        0.7985240    -0.5535590    -0.2772820
  C        3.2200150    -0.4235850    -0.1586420
  C        0.7425440     0.7008700     0.1517020
  C       -1.6208490     0.5302780     0.1412880
  C        3.1140170     0.9030370     0.2913960
  C        1.8654780     1.4834140     0.4539590
  C        2.0264240    -1.0936290    -0.4226860
  C        4.5555360    -1.0893210    -0.3460000
  C       -1.9196720    -0.4880720     1.0459920
  C       -2.4970780     0.8728280    -0.8843220
  C       -3.1225630    -1.1795470     0.9070330
  C       -3.7017300     0.1773150    -1.0087090
  C       -4.0153870    -0.8504980    -0.1174150
  H        4.0120030     1.4769520     0.5152690
  H        1.7375180     2.5038470     0.8013060
  H        2.0412640    -2.1246280    -0.7760920
  H        5.1157190    -1.1239590     0.5937180
  H        4.4318450    -2.1155640    -0.7023530
  H        5.1110336    -0.5995178    -1.0097770
  H       -1.2183070    -0.7290930     1.8393240
  H       -2.2288450     1.6771480    -1.5635320
  H       -3.3650020    -1.9773860     1.6048690
  H       -4.3932510     0.4394220    -1.8057380
  H       -4.9525670    -1.3919050    -0.2175730
units angstrom
no_reorient  #important for SAPT in psi4, default
symmetry c1  #important for SAPT in psi4, default
}

set PROPERTIES_ORIGIN ["COM"]
properties('MP2/aug-cc-pvtz', properties = ['dipole'])
--------------------------------------------------------------------------

    Molecular point group: c1
  Charge       = 0
  Multiplicity = 1
  Basis Set: AUG-CC-PVTZ
    Blend: AUG-CC-PVTZ
  Basis Set: (AUG-CC-PVTZ AUX)
    Blend: AUG-CC-PVTZ-JKFIT

    Orbital Energies [Eh]
    ---------------------

    Doubly Occupied:

       1A    -20.598300     2A    -15.563102     3A    -11.340347
       4A    -11.295495     5A    -11.276785     6A    -11.261182
       7A    -11.242548     8A    -11.240905     9A    -11.236604
      10A    -11.236503    11A    -11.231919    12A    -11.231188
      13A    -11.230305    14A    -11.220439    15A     -1.430470
      16A     -1.253140    17A     -1.145717    18A     -1.103427
      19A     -1.053893    20A     -1.015132    21A     -1.004653
      22A     -0.950018    23A     -0.877487    24A     -0.843508
      25A     -0.830820    26A     -0.801209    27A     -0.736609
      28A     -0.705011    29A     -0.678989    30A     -0.655311
      31A     -0.644002    32A     -0.626390    33A     -0.612659
      34A     -0.599642    35A     -0.593766    36A     -0.588561
      37A     -0.574115    38A     -0.563335    39A     -0.551431
      40A     -0.520399    41A     -0.514306    42A     -0.511560
      43A     -0.492541    44A     -0.477775    45A     -0.427983
      46A     -0.384432    47A     -0.335307    48A     -0.332339
      49A     -0.313531

  @DF-RHF Final Energy:  -590.32551027649822

   => Energetics <=

    Nuclear Repulsion Energy =            802.1921097240646077
    One-Electron Energy =               -2393.1250602762925155
    Two-Electron Energy =                1000.6074402757295729
    Total Energy =                       -590.3255102764982212
  Basis Set: (AUG-CC-PVTZ AUX)
    Blend: AUG-CC-PVTZ-RI
    Molecular point group: c1

    Geometry (in Angstrom), charge = 0, multiplicity = 1:

       Center              X                  Y                   Z               Mass
    ------------   -----------------  -----------------  -----------------  -----------------
         O           -0.442864616307     1.295800173486     0.296267951683    15.994914619570
         N            0.832827383693    -0.574234826514    -0.281853048317    14.003074004430
         C            3.254318383693    -0.444260826514    -0.163213048317    12.000000000000
         C            0.776847383693     0.680194173486     0.147130951683    12.000000000000
         C           -1.586545616307     0.509602173486     0.136716951683    12.000000000000
         C            3.148320383693     0.882361173486     0.286824951683    12.000000000000
         C            1.899781383693     1.462738173486     0.449387951683    12.000000000000
         C            2.060727383693    -1.114304826514    -0.427257048317    12.000000000000
         C            4.589839383693    -1.109996826514    -0.350571048317    12.000000000000
         C           -1.885368616307    -0.508747826514     1.041420951683    12.000000000000
         C           -2.462774616307     0.852152173486    -0.888893048317    12.000000000000
         C           -3.088259616307    -1.200222826514     0.902461951683    12.000000000000
         C           -3.667426616307     0.156639173486    -1.013280048317    12.000000000000
         C           -3.981083616307    -0.871173826514    -0.121986048317    12.000000000000
         H            4.046306383693     1.456276173486     0.510697951683     1.007825032230
         H            1.771821383693     2.483171173486     0.796734951683     1.007825032230
         H            2.075567383693    -2.145303826514    -0.780663048317     1.007825032230
         H            5.150022383693    -1.144634826514     0.589146951683     1.007825032230
         H            4.466148383693    -2.136239826514    -0.706924048317     1.007825032230
         H            5.145336983693    -0.620193626514    -1.014348048317     1.007825032230
         H           -1.184003616307    -0.749768826514     1.834752951683     1.007825032230
         H           -2.194541616307     1.656472173486    -1.568103048317     1.007825032230
         H           -3.330698616307    -1.998061826514     1.600297951683     1.007825032230
         H           -4.358947616307     0.418746173486    -1.810309048317     1.007825032230
         H           -4.918263616307    -1.412580826514    -0.222144048317     1.007825032230

  Basis Set: AUG-CC-PVTZ
    Blend: AUG-CC-PVTZ
  Basis Set: (AUG-CC-PVTZ AUX)
    Blend: AUG-CC-PVTZ-JKFIT
	 Reference Energy          =    -590.3255102764982212 [Eh]
	 Singles Energy            =      -0.0000000000000000 [Eh]
	 Same-Spin Energy          =      -0.6440528349218538 [Eh]
	 Opposite-Spin Energy      =      -1.9810421669624012 [Eh]
	 Correlation Energy        =      -2.6250950018842549 [Eh]
	 Total Energy              =    -592.9506052783824543 [Eh]

	 ================> DF-SCS-MP2 Energies <==================
	-----------------------------------------------------------
	 SCS Same-Spin Scale       =       0.3333333333333333 [-]
	 SCS Opposite-Spin Scale   =       1.2000000000000000 [-]
	 SCS Same-Spin Energy      =      -0.2146842783072846 [Eh]
	 SCS Opposite-Spin Energy  =      -2.3772506003548814 [Eh]
	 SCS Correlation Energy    =      -2.5919348786621659 [Eh]
	 SCS Total Energy          =    -592.9174451551604079 [Eh]
	-----------------------------------------------------------

  Dipole Moment: [D]
     X:     2.0605      Y:    -0.1806      Z:     0.1350     Total:     2.0728

*** Psi4 exiting successfully. Buy a developer a beer!
