                               Psi4 1.4a3.dev225

  ==> Input File <==

--------------------------------------------------------------------------
#psi4
#
memory 32 gb

molecule  {
0 1
  O       -0.4771680     1.3164760     0.3008390
  N        0.7985240    -0.5535590    -0.2772820
  C        3.2200150    -0.4235850    -0.1586420
  C        0.7425440     0.7008700     0.1517020
  C       -1.6208490     0.5302780     0.1412880
  C        3.1140170     0.9030370     0.2913960
  C        1.8654780     1.4834140     0.4539590
  C        2.0264240    -1.0936290    -0.4226860
  C        4.5555360    -1.0893210    -0.3460000
  C       -1.9196720    -0.4880720     1.0459920
  C       -2.4970780     0.8728280    -0.8843220
  C       -3.1225630    -1.1795470     0.9070330
  C       -3.7017300     0.1773150    -1.0087090
  C       -4.0153870    -0.8504980    -0.1174150
  H        4.0120030     1.4769520     0.5152690
  H        1.7375180     2.5038470     0.8013060
  H        2.0412640    -2.1246280    -0.7760920
  H        5.1157190    -1.1239590     0.5937180
  H        4.4544706    -1.9278432    -0.6371688
  H        5.1668890    -0.5502680    -1.0765200
  H       -1.2183070    -0.7290930     1.8393240
  H       -2.2288450     1.6771480    -1.5635320
  H       -3.3650020    -1.9773860     1.6048690
  H       -4.3932510     0.4394220    -1.8057380
  H       -4.9525670    -1.3919050    -0.2175730
units angstrom
no_reorient  #important for SAPT in psi4, default
symmetry c1  #important for SAPT in psi4, default
}

set PROPERTIES_ORIGIN ["COM"]
properties('MP2/aug-cc-pvtz', properties = ['dipole'])
--------------------------------------------------------------------------

    Molecular point group: c1
  Charge       = 0
  Multiplicity = 1
  Basis Set: AUG-CC-PVTZ
    Blend: AUG-CC-PVTZ
  Basis Set: (AUG-CC-PVTZ AUX)
    Blend: AUG-CC-PVTZ-JKFIT

    Orbital Energies [Eh]
    ---------------------

    Doubly Occupied:

       1A    -20.598263     2A    -15.563105     3A    -11.340255
       4A    -11.295485     5A    -11.277019     6A    -11.260272
       7A    -11.241947     8A    -11.240572     9A    -11.236606
      10A    -11.236506    11A    -11.231920    12A    -11.231179
      13A    -11.230307    14A    -11.208259    15A     -1.430421
      16A     -1.253110    17A     -1.145722    18A     -1.104505
      19A     -1.056467    20A     -1.015185    21A     -1.006791
      22A     -0.958240    23A     -0.877273    24A     -0.846168
      25A     -0.831367    26A     -0.800920    27A     -0.736881
      28A     -0.704992    29A     -0.680818    30A     -0.655306
      31A     -0.651670    32A     -0.627140    33A     -0.610666
      34A     -0.600966    35A     -0.591547    36A     -0.585521
      37A     -0.572253    38A     -0.568512    39A     -0.562433
      40A     -0.524071    41A     -0.513292    42A     -0.511700
      43A     -0.492523    44A     -0.477287    45A     -0.427841
      46A     -0.383753    47A     -0.335288    48A     -0.332058
      49A     -0.313239

  @DF-RHF Final Energy:  -590.29763290017740

   => Energetics <=

    Nuclear Repulsion Energy =            802.6910625023567718
    One-Electron Energy =               -2394.0221481353410127
    Two-Electron Energy =                1001.0334527328068361
    Total Energy =                       -590.2976329001774047
  Basis Set: (AUG-CC-PVTZ AUX)
    Blend: AUG-CC-PVTZ-RI
    Molecular point group: c1

    Geometry (in Angstrom), charge = 0, multiplicity = 1:

       Center              X                  Y                   Z               Mass
    ------------   -----------------  -----------------  -----------------  -----------------
         O           -0.443291963290     1.294509814405     0.296276439705    15.994914619570
         N            0.832400036710    -0.575525185595    -0.281844560295    14.003074004430
         C            3.253891036710    -0.445551185595    -0.163204560295    12.000000000000
         C            0.776420036710     0.678903814405     0.147139439705    12.000000000000
         C           -1.586972963290     0.508311814405     0.136725439705    12.000000000000
         C            3.147893036710     0.881070814405     0.286833439705    12.000000000000
         C            1.899354036710     1.461447814405     0.449396439705    12.000000000000
         C            2.060300036710    -1.115595185595    -0.427248560295    12.000000000000
         C            4.589412036710    -1.111287185595    -0.350562560295    12.000000000000
         C           -1.885795963290    -0.510038185595     1.041429439705    12.000000000000
         C           -2.463201963290     0.850861814405    -0.888884560295    12.000000000000
         C           -3.088686963290    -1.201513185595     0.902470439705    12.000000000000
         C           -3.667853963290     0.155348814405    -1.013271560295    12.000000000000
         C           -3.981510963290    -0.872464185595    -0.121977560295    12.000000000000
         H            4.045879036710     1.454985814405     0.510706439705     1.007825032230
         H            1.771394036710     2.481880814405     0.796743439705     1.007825032230
         H            2.075140036710    -2.146594185595    -0.780654560295     1.007825032230
         H            5.149595036710    -1.145925185595     0.589155439705     1.007825032230
         H            4.488346636710    -1.949809385595    -0.641731360295     1.007825032230
         H            5.200765036710    -0.572234185595    -1.081082560295     1.007825032230
         H           -1.184430963290    -0.751059185595     1.834761439705     1.007825032230
         H           -2.194968963290     1.655181814405    -1.568094560295     1.007825032230
         H           -3.331125963290    -1.999352185595     1.600306439705     1.007825032230
         H           -4.359374963290     0.417455814405    -1.810300560295     1.007825032230
         H           -4.918690963290    -1.413871185595    -0.222135560295     1.007825032230

  Basis Set: AUG-CC-PVTZ
    Blend: AUG-CC-PVTZ
  Basis Set: (AUG-CC-PVTZ AUX)
    Blend: AUG-CC-PVTZ-JKFIT
	 Reference Energy          =    -590.2976329001774047 [Eh]
	 Singles Energy            =      -0.0000000000000000 [Eh]
	 Same-Spin Energy          =      -0.6440429197773272 [Eh]
	 Opposite-Spin Energy      =      -1.9807293971326425 [Eh]
	 Correlation Energy        =      -2.6247723169099695 [Eh]
	 Total Energy              =    -592.9224052170874302 [Eh]

	 ================> DF-SCS-MP2 Energies <==================
	-----------------------------------------------------------
	 SCS Same-Spin Scale       =       0.3333333333333333 [-]
	 SCS Opposite-Spin Scale   =       1.2000000000000000 [-]
	 SCS Same-Spin Energy      =      -0.2146809732591091 [Eh]
	 SCS Opposite-Spin Energy  =      -2.3768752765591707 [Eh]
	 SCS Correlation Energy    =      -2.5915562498182796 [Eh]
	 SCS Total Energy          =    -592.8891891499956728 [Eh]
	-----------------------------------------------------------

  Dipole Moment: [D]
     X:     2.0573      Y:    -0.2545      Z:     0.1329     Total:     2.0772

*** Psi4 exiting successfully. Buy a developer a beer!
