                               Psi4 1.4a3.dev225

  ==> Input File <==

--------------------------------------------------------------------------
#psi4
#
memory 32 gb

molecule  {
0 1
  O       -0.4771680     1.3164760     0.3008390
  N        0.7985240    -0.5535590    -0.2772820
  C        3.2200150    -0.4235850    -0.1586420
  C        0.7425440     0.7008700     0.1517020
  C       -1.6208490     0.5302780     0.1412880
  C        3.1140170     0.9030370     0.2913960
  C        1.8654780     1.4834140     0.4539590
  C        2.0082232    -1.0856237    -0.4205307
  C        4.5555360    -1.0893210    -0.3460000
  C       -1.9196720    -0.4880720     1.0459920
  C       -2.4970780     0.8728280    -0.8843220
  C       -3.1225630    -1.1795470     0.9070330
  C       -3.7017300     0.1773150    -1.0087090
  C       -4.0153870    -0.8504980    -0.1174150
  H        4.0120030     1.4769520     0.5152690
  H        1.7375180     2.5038470     0.8013060
  H        2.0412640    -2.1246280    -0.7760920
  H        5.1157190    -1.1239590     0.5937180
  H        4.4318450    -2.1155640    -0.7023530
  H        5.1668890    -0.5502680    -1.0765200
  H       -1.2183070    -0.7290930     1.8393240
  H       -2.2288450     1.6771480    -1.5635320
  H       -3.3650020    -1.9773860     1.6048690
  H       -4.3932510     0.4394220    -1.8057380
  H       -4.9525670    -1.3919050    -0.2175730
units angstrom
no_reorient  #important for SAPT in psi4, default
symmetry c1  #important for SAPT in psi4, default
}

set PROPERTIES_ORIGIN ["COM"]
properties('MP2/aug-cc-pvtz', properties = ['dipole'])
--------------------------------------------------------------------------

    Molecular point group: c1
  Charge       = 0
  Multiplicity = 1
  Basis Set: AUG-CC-PVTZ
    Blend: AUG-CC-PVTZ
  Basis Set: (AUG-CC-PVTZ AUX)
    Blend: AUG-CC-PVTZ-JKFIT

    Orbital Energies [Eh]
    ---------------------

    Doubly Occupied:

       1A    -20.598598     2A    -15.563150     3A    -11.340876
       4A    -11.295825     5A    -11.278076     6A    -11.260644
       7A    -11.243686     8A    -11.240311     9A    -11.236943
      10A    -11.236843    11A    -11.232945    12A    -11.232287
      13A    -11.231508    14A    -11.230622    15A     -1.430919
      16A     -1.259045    17A     -1.146125    18A     -1.102701
      19A     -1.052357    20A     -1.015457    21A     -1.003675
      22A     -0.943084    23A     -0.876057    24A     -0.842827
      25A     -0.830989    26A     -0.801877    27A     -0.736959
      28A     -0.705491    29A     -0.679436    30A     -0.655743
      31A     -0.642896    32A     -0.625611    33A     -0.610135
      34A     -0.594402    35A     -0.592394    36A     -0.586225
      37A     -0.570001    38A     -0.563428    39A     -0.550449
      40A     -0.521581    41A     -0.514677    42A     -0.511877
      43A     -0.492986    44A     -0.478224    45A     -0.427193
      46A     -0.386513    47A     -0.335589    48A     -0.331606
      49A     -0.312289

  @DF-RHF Final Energy:  -590.33143556593200

   => Energetics <=

    Nuclear Repulsion Energy =            801.9817287850985394
    One-Electron Energy =               -2392.7200622284226483
    Two-Electron Energy =                1000.4068978773921117
    Total Energy =                       -590.3314355659319972
  Basis Set: (AUG-CC-PVTZ AUX)
    Blend: AUG-CC-PVTZ-RI
    Molecular point group: c1

    Geometry (in Angstrom), charge = 0, multiplicity = 1:

       Center              X                  Y                   Z               Mass
    ------------   -----------------  -----------------  -----------------  -----------------
         O           -0.441988705511     1.295012970211     0.296491642827    15.994914619570
         N            0.833703294489    -0.575022029789    -0.281629357173    14.003074004430
         C            3.255194294489    -0.445048029789    -0.162989357173    12.000000000000
         C            0.777723294489     0.679406970211     0.147354642827    12.000000000000
         C           -1.585669705511     0.508814970211     0.136940642827    12.000000000000
         C            3.149196294489     0.881573970211     0.287048642827    12.000000000000
         C            1.900657294489     1.461950970211     0.449611642827    12.000000000000
         C            2.043402494489    -1.107086729789    -0.424878057173    12.000000000000
         C            4.590715294489    -1.110784029789    -0.350347357173    12.000000000000
         C           -1.884492705511    -0.509535029789     1.041644642827    12.000000000000
         C           -2.461898705511     0.851364970211    -0.888669357173    12.000000000000
         C           -3.087383705511    -1.201010029789     0.902685642827    12.000000000000
         C           -3.666550705511     0.155851970211    -1.013056357173    12.000000000000
         C           -3.980207705511    -0.871961029789    -0.121762357173    12.000000000000
         H            4.047182294489     1.455488970211     0.510921642827     1.007825032230
         H            1.772697294489     2.482383970211     0.796958642827     1.007825032230
         H            2.076443294489    -2.146091029789    -0.780439357173     1.007825032230
         H            5.150898294489    -1.145422029789     0.589370642827     1.007825032230
         H            4.467024294489    -2.137027029789    -0.706700357173     1.007825032230
         H            5.202068294489    -0.571731029789    -1.080867357173     1.007825032230
         H           -1.183127705511    -0.750556029789     1.834976642827     1.007825032230
         H           -2.193665705511     1.655684970211    -1.567879357173     1.007825032230
         H           -3.329822705511    -1.998849029789     1.600521642827     1.007825032230
         H           -4.358071705511     0.417958970211    -1.810085357173     1.007825032230
         H           -4.917387705511    -1.413368029789    -0.221920357173     1.007825032230

  Basis Set: AUG-CC-PVTZ
    Blend: AUG-CC-PVTZ
  Basis Set: (AUG-CC-PVTZ AUX)
    Blend: AUG-CC-PVTZ-JKFIT
	 Reference Energy          =    -590.3314355659319972 [Eh]
	 Singles Energy            =      -0.0000000000000000 [Eh]
	 Same-Spin Energy          =      -0.6440196470321339 [Eh]
	 Opposite-Spin Energy      =      -1.9812046823639171 [Eh]
	 Correlation Energy        =      -2.6252243293960511 [Eh]
	 Total Energy              =    -592.9566598953280163 [Eh]

	 ================> DF-SCS-MP2 Energies <==================
	-----------------------------------------------------------
	 SCS Same-Spin Scale       =       0.3333333333333333 [-]
	 SCS Opposite-Spin Scale   =       1.2000000000000000 [-]
	 SCS Same-Spin Energy      =      -0.2146732156773780 [Eh]
	 SCS Opposite-Spin Energy  =      -2.3774456188367004 [Eh]
	 SCS Correlation Energy    =      -2.5921188345140784 [Eh]
	 SCS Total Energy          =    -592.9235544004460507 [Eh]
	-----------------------------------------------------------

  Dipole Moment: [D]
     X:     1.9910      Y:    -0.1855      Z:     0.1542     Total:     2.0056

*** Psi4 exiting successfully. Buy a developer a beer!
