                               Psi4 1.4a3.dev225

  ==> Input File <==

--------------------------------------------------------------------------
#psi4
#
memory 32 gb

molecule  {
0 1
  O       -0.4771680     1.3164760     0.3008390
  N        0.7985240    -0.5535590    -0.2772820
  C        3.2200150    -0.4235850    -0.1586420
  C        0.7425440     0.7008700     0.1517020
  C       -1.6208490     0.5302780     0.1412880
  C        3.1140170     0.9030370     0.2913960
  C        1.8654780     1.4834140     0.4539590
  C        2.0264240    -1.0936290    -0.4226860
  C        4.5555360    -1.0893210    -0.3460000
  C       -1.9196720    -0.4880720     1.0459920
  C       -2.4970780     0.8728280    -0.8843220
  C       -3.1074079    -1.1621309     0.8991284
  C       -3.7017300     0.1773150    -1.0087090
  C       -4.0153870    -0.8504980    -0.1174150
  H        4.0120030     1.4769520     0.5152690
  H        1.7375180     2.5038470     0.8013060
  H        2.0412640    -2.1246280    -0.7760920
  H        5.1157190    -1.1239590     0.5937180
  H        4.4318450    -2.1155640    -0.7023530
  H        5.1668890    -0.5502680    -1.0765200
  H       -1.2183070    -0.7290930     1.8393240
  H       -2.2288450     1.6771480    -1.5635320
  H       -3.3650020    -1.9773860     1.6048690
  H       -4.3932510     0.4394220    -1.8057380
  H       -4.9525670    -1.3919050    -0.2175730
units angstrom
no_reorient  #important for SAPT in psi4, default
symmetry c1  #important for SAPT in psi4, default
}

set PROPERTIES_ORIGIN ["COM"]
properties('MP2/aug-cc-pvtz', properties = ['dipole'])
--------------------------------------------------------------------------

    Molecular point group: c1
  Charge       = 0
  Multiplicity = 1
  Basis Set: AUG-CC-PVTZ
    Blend: AUG-CC-PVTZ
  Basis Set: (AUG-CC-PVTZ AUX)
    Blend: AUG-CC-PVTZ-JKFIT

    Orbital Energies [Eh]
    ---------------------

    Doubly Occupied:

       1A    -20.598629     2A    -15.563541     3A    -11.340834
       4A    -11.295913     5A    -11.277395     6A    -11.261515
       7A    -11.243304     8A    -11.241247     9A    -11.236616
      10A    -11.236035    11A    -11.232818    12A    -11.230683
      13A    -11.230089    14A    -11.229820    15A     -1.430834
      16A     -1.253594    17A     -1.148048    18A     -1.102713
      19A     -1.053089    20A     -1.017331    21A     -1.003562
      22A     -0.942982    23A     -0.878049    24A     -0.842118
      25A     -0.829176    26A     -0.801441    27A     -0.736491
      28A     -0.704762    29A     -0.680110    30A     -0.656477
      31A     -0.643193    32A     -0.624471    33A     -0.610934
      34A     -0.594292    35A     -0.591483    36A     -0.585608
      37A     -0.570389    38A     -0.563511    39A     -0.549727
      40A     -0.521382    41A     -0.515858    42A     -0.511117
      43A     -0.492904    44A     -0.475817    45A     -0.428354
      46A     -0.384567    47A     -0.337663    48A     -0.331954
      49A     -0.313479

  @DF-RHF Final Energy:  -590.33098232241764

   => Energetics <=

    Nuclear Repulsion Energy =            802.1981546100321339
    One-Electron Energy =               -2393.1664375753734930
    Two-Electron Energy =                1000.6373006429237194
    Total Energy =                       -590.3309823224176398
  Basis Set: (AUG-CC-PVTZ AUX)
    Blend: AUG-CC-PVTZ-RI
    Molecular point group: c1

    Geometry (in Angstrom), charge = 0, multiplicity = 1:

       Center              X                  Y                   Z               Mass
    ------------   -----------------  -----------------  -----------------  -----------------
         O           -0.444151348752     1.294402817194     0.297143880504    15.994914619570
         N            0.831540651248    -0.575632182806    -0.280977119496    14.003074004430
         C            3.253031651248    -0.445658182806    -0.162337119496    12.000000000000
         C            0.775560651248     0.678796817194     0.148006880504    12.000000000000
         C           -1.587832348752     0.508204817194     0.137592880504    12.000000000000
         C            3.147033651248     0.880963817194     0.287700880504    12.000000000000
         C            1.898494651248     1.461340817194     0.450263880504    12.000000000000
         C            2.059440651248    -1.115702182806    -0.426381119496    12.000000000000
         C            4.588552651248    -1.111394182806    -0.349695119496    12.000000000000
         C           -1.886655348752    -0.510145182806     1.042296880504    12.000000000000
         C           -2.464061348752     0.850754817194    -0.888017119496    12.000000000000
         C           -3.074391248752    -1.184204082806     0.895433280504    12.000000000000
         C           -3.668713348752     0.155241817194    -1.012404119496    12.000000000000
         C           -3.982370348752    -0.872571182806    -0.121110119496    12.000000000000
         H            4.045019651248     1.454878817194     0.511573880504     1.007825032230
         H            1.770534651248     2.481773817194     0.797610880504     1.007825032230
         H            2.074280651248    -2.146701182806    -0.779787119496     1.007825032230
         H            5.148735651248    -1.146032182806     0.590022880504     1.007825032230
         H            4.464861651248    -2.137637182806    -0.706048119496     1.007825032230
         H            5.199905651248    -0.572341182806    -1.080215119496     1.007825032230
         H           -1.185290348752    -0.751166182806     1.835628880504     1.007825032230
         H           -2.195828348752     1.655074817194    -1.567227119496     1.007825032230
         H           -3.331985348752    -1.999459182806     1.601173880504     1.007825032230
         H           -4.360234348752     0.417348817194    -1.809433119496     1.007825032230
         H           -4.919550348752    -1.413978182806    -0.221268119496     1.007825032230

  Basis Set: AUG-CC-PVTZ
    Blend: AUG-CC-PVTZ
  Basis Set: (AUG-CC-PVTZ AUX)
    Blend: AUG-CC-PVTZ-JKFIT
	 Reference Energy          =    -590.3309823224176398 [Eh]
	 Singles Energy            =      -0.0000000000000000 [Eh]
	 Same-Spin Energy          =      -0.6440029242845638 [Eh]
	 Opposite-Spin Energy      =      -1.9813943169256067 [Eh]
	 Correlation Energy        =      -2.6253972412101705 [Eh]
	 Total Energy              =    -592.9563795636278201 [Eh]

	 ================> DF-SCS-MP2 Energies <==================
	-----------------------------------------------------------
	 SCS Same-Spin Scale       =       0.3333333333333333 [-]
	 SCS Opposite-Spin Scale   =       1.2000000000000000 [-]
	 SCS Same-Spin Energy      =      -0.2146676414281879 [Eh]
	 SCS Opposite-Spin Energy  =      -2.3776731803107278 [Eh]
	 SCS Correlation Energy    =      -2.5923408217389157 [Eh]
	 SCS Total Energy          =    -592.9233231441565977 [Eh]
	-----------------------------------------------------------

  Dipole Moment: [D]
     X:     2.0211      Y:    -0.1737      Z:     0.1502     Total:     2.0341

*** Psi4 exiting successfully. Buy a developer a beer!
