                               Psi4 1.4a3.dev225

  ==> Input File <==

--------------------------------------------------------------------------
#psi4
#
memory 32 gb

molecule  {
0 1
  O       -0.4771680     1.3164760     0.3008390
  N        0.7985240    -0.5535590    -0.2772820
  C        3.2200150    -0.4235850    -0.1586420
  C        0.7425440     0.7008700     0.1517020
  C       -1.7488385     0.5007875     0.0775944
  C        3.1140170     0.9030370     0.2913960
  C        1.8654780     1.4834140     0.4539590
  C        2.0264240    -1.0936290    -0.4226860
  C        4.5555360    -1.0893210    -0.3460000
  C       -1.9196720    -0.4880720     1.0459920
  C       -2.4970780     0.8728280    -0.8843220
  C       -3.1225630    -1.1795470     0.9070330
  C       -3.7017300     0.1773150    -1.0087090
  C       -4.0153870    -0.8504980    -0.1174150
  H        4.0120030     1.4769520     0.5152690
  H        1.7375180     2.5038470     0.8013060
  H        2.0412640    -2.1246280    -0.7760920
  H        5.1157190    -1.1239590     0.5937180
  H        4.4318450    -2.1155640    -0.7023530
  H        5.1668890    -0.5502680    -1.0765200
  H       -1.2183070    -0.7290930     1.8393240
  H       -2.2288450     1.6771480    -1.5635320
  H       -3.3650020    -1.9773860     1.6048690
  H       -4.3932510     0.4394220    -1.8057380
  H       -4.9525670    -1.3919050    -0.2175730
units angstrom
no_reorient  #important for SAPT in psi4, default
symmetry c1  #important for SAPT in psi4, default
}

set PROPERTIES_ORIGIN ["COM"]
properties('MP2/aug-cc-pvtz', properties = ['dipole'])
--------------------------------------------------------------------------

    Molecular point group: c1
  Charge       = 0
  Multiplicity = 1
  Basis Set: AUG-CC-PVTZ
    Blend: AUG-CC-PVTZ
  Basis Set: (AUG-CC-PVTZ AUX)
    Blend: AUG-CC-PVTZ-JKFIT

    Orbital Energies [Eh]
    ---------------------

    Doubly Occupied:

       1A    -20.578924     2A    -15.555335     3A    -11.331390
       4A    -11.293526     5A    -11.271433     6A    -11.255539
       7A    -11.244087     8A    -11.242311     9A    -11.240921
      10A    -11.236559    11A    -11.236332    12A    -11.233500
      13A    -11.228445    14A    -11.226461    15A     -1.387634
      16A     -1.242909    17A     -1.169256    18A     -1.096183
      19A     -1.046782    20A     -1.033278    21A     -1.008945
      22A     -0.935493    23A     -0.867317    24A     -0.848642
      25A     -0.825799    26A     -0.801023    27A     -0.727877
      28A     -0.695978    29A     -0.678438    30A     -0.652732
      31A     -0.636314    32A     -0.626820    33A     -0.609212
      34A     -0.600332    35A     -0.585599    36A     -0.582349
      37A     -0.564293    38A     -0.554179    39A     -0.544766
      40A     -0.518709    41A     -0.517817    42A     -0.510915
      43A     -0.491577    44A     -0.479514    45A     -0.420925
      46A     -0.378686    47A     -0.354640    48A     -0.334872
      49A     -0.310981

  @DF-RHF Final Energy:  -590.30537169311026

   => Energetics <=

    Nuclear Repulsion Energy =            801.3096011882913672
    One-Electron Energy =               -2391.5988425632799590
    Two-Electron Energy =                 999.9838696818784456
    Total Energy =                       -590.3053716931102599
  Basis Set: (AUG-CC-PVTZ AUX)
    Blend: AUG-CC-PVTZ-RI
    Molecular point group: c1

    Geometry (in Angstrom), charge = 0, multiplicity = 1:

       Center              X                  Y                   Z               Mass
    ------------   -----------------  -----------------  -----------------  -----------------
         O           -0.434870510829     1.297444025540     0.300760982840    15.994914619570
         N            0.840821489171    -0.572590974460    -0.277360017160    14.003074004430
         C            3.262312489171    -0.442616974460    -0.158720017160    12.000000000000
         C            0.784841489171     0.681838025540     0.151623982840    12.000000000000
         C           -1.706541010829     0.481755525540     0.077516382840    12.000000000000
         C            3.156314489171     0.884005025540     0.291317982840    12.000000000000
         C            1.907775489171     1.464382025540     0.453880982840    12.000000000000
         C            2.068721489171    -1.112660974460    -0.422764017160    12.000000000000
         C            4.597833489171    -1.108352974460    -0.346078017160    12.000000000000
         C           -1.877374510829    -0.507103974460     1.045913982840    12.000000000000
         C           -2.454780510829     0.853796025540    -0.884400017160    12.000000000000
         C           -3.080265510829    -1.198578974460     0.906954982840    12.000000000000
         C           -3.659432510829     0.158283025540    -1.008787017160    12.000000000000
         C           -3.973089510829    -0.869529974460    -0.117493017160    12.000000000000
         H            4.054300489171     1.457920025540     0.515190982840     1.007825032230
         H            1.779815489171     2.484815025540     0.801227982840     1.007825032230
         H            2.083561489171    -2.143659974460    -0.776170017160     1.007825032230
         H            5.158016489171    -1.142990974460     0.593639982840     1.007825032230
         H            4.474142489171    -2.134595974460    -0.702431017160     1.007825032230
         H            5.209186489171    -0.569299974460    -1.076598017160     1.007825032230
         H           -1.176009510829    -0.748124974460     1.839245982840     1.007825032230
         H           -2.186547510829     1.658116025540    -1.563610017160     1.007825032230
         H           -3.322704510829    -1.996417974460     1.604790982840     1.007825032230
         H           -4.350953510829     0.420390025540    -1.805816017160     1.007825032230
         H           -4.910269510829    -1.410936974460    -0.217651017160     1.007825032230

  Basis Set: AUG-CC-PVTZ
    Blend: AUG-CC-PVTZ
  Basis Set: (AUG-CC-PVTZ AUX)
    Blend: AUG-CC-PVTZ-JKFIT
	 Reference Energy          =    -590.3053716931102599 [Eh]
	 Singles Energy            =      -0.0000000000000000 [Eh]
	 Same-Spin Energy          =      -0.6440966987526466 [Eh]
	 Opposite-Spin Energy      =      -1.9830268676666249 [Eh]
	 Correlation Energy        =      -2.6271235664192716 [Eh]
	 Total Energy              =    -592.9324952595295599 [Eh]

	 ================> DF-SCS-MP2 Energies <==================
	-----------------------------------------------------------
	 SCS Same-Spin Scale       =       0.3333333333333333 [-]
	 SCS Opposite-Spin Scale   =       1.2000000000000000 [-]
	 SCS Same-Spin Energy      =      -0.2146988995842155 [Eh]
	 SCS Opposite-Spin Energy  =      -2.3796322411999498 [Eh]
	 SCS Correlation Energy    =      -2.5943311407841652 [Eh]
	 SCS Total Energy          =    -592.8997028338944801 [Eh]
	-----------------------------------------------------------

  Dipole Moment: [D]
     X:     1.0107      Y:    -0.3559      Z:     0.0667     Total:     1.0736

*** Psi4 exiting successfully. Buy a developer a beer!
