                               Psi4 1.4a3.dev225

  ==> Input File <==

--------------------------------------------------------------------------
#psi4
#
memory 32 gb

molecule  {
0 1
  O       -0.4771680     1.3164760     0.3008390
  N        0.7985240    -0.5535590    -0.2772820
  C        3.2200150    -0.4235850    -0.1586420
  C        0.7425440     0.7008700     0.1517020
  C       -1.6208490     0.5302780     0.1412880
  C        3.1140170     0.9030370     0.2913960
  C        1.8654780     1.4834140     0.4539590
  C        2.0264240    -1.0936290    -0.4226860
  C        4.5555360    -1.0893210    -0.3460000
  C       -1.9196720    -0.4880720     1.0459920
  C       -2.4970780     0.8728280    -0.8843220
  C       -3.1225630    -1.1795470     0.9070330
  C       -3.7017300     0.1773150    -1.0087090
  C       -4.0153870    -0.8504980    -0.1174150
  H        4.0120030     1.4769520     0.5152690
  H        1.7375180     2.5038470     0.8013060
  H        2.0412640    -2.1246280    -0.7760920
  H        5.1054833    -1.1233261     0.5765474
  H        4.4318450    -2.1155640    -0.7023530
  H        5.1668890    -0.5502680    -1.0765200
  H       -1.2183070    -0.7290930     1.8393240
  H       -2.2288450     1.6771480    -1.5635320
  H       -3.3650020    -1.9773860     1.6048690
  H       -4.3932510     0.4394220    -1.8057380
  H       -4.9525670    -1.3919050    -0.2175730
units angstrom
no_reorient  #important for SAPT in psi4, default
symmetry c1  #important for SAPT in psi4, default
}

set PROPERTIES_ORIGIN ["COM"]
properties('MP2/aug-cc-pvtz', properties = ['dipole'])
--------------------------------------------------------------------------

    Molecular point group: c1
  Charge       = 0
  Multiplicity = 1
  Basis Set: AUG-CC-PVTZ
    Blend: AUG-CC-PVTZ
  Basis Set: (AUG-CC-PVTZ AUX)
    Blend: AUG-CC-PVTZ-JKFIT

    Orbital Energies [Eh]
    ---------------------

    Doubly Occupied:

       1A    -20.598506     2A    -15.563326     3A    -11.340629
       4A    -11.295617     5A    -11.277175     6A    -11.261365
       7A    -11.243062     8A    -11.241098     9A    -11.236705
      10A    -11.236605    11A    -11.232039    12A    -11.231298
      13A    -11.230407    14A    -11.230329    15A     -1.430665
      16A     -1.253387    17A     -1.145829    18A     -1.102727
      19A     -1.053140    20A     -1.015221    21A     -1.003900
      22A     -0.944151    23A     -0.877624    24A     -0.842362
      25A     -0.830664    26A     -0.800917    27A     -0.736760
      28A     -0.704749    29A     -0.679130    30A     -0.655462
      31A     -0.643303    32A     -0.626419    33A     -0.611020
      34A     -0.594765    35A     -0.593334    36A     -0.586897
      37A     -0.570210    38A     -0.563458    39A     -0.550355
      40A     -0.520974    41A     -0.513619    42A     -0.511710
      43A     -0.492659    44A     -0.477650    45A     -0.428154
      46A     -0.384441    47A     -0.335402    48A     -0.332335
      49A     -0.313568

  @DF-RHF Final Energy:  -590.33157666721354

   => Energetics <=

    Nuclear Repulsion Energy =            801.8075487856674499
    One-Electron Energy =               -2392.3880106555402563
    Two-Electron Energy =                1000.2488852026592667
    Total Energy =                       -590.3315766672135396
  Basis Set: (AUG-CC-PVTZ AUX)
    Blend: AUG-CC-PVTZ-RI
    Molecular point group: c1

    Geometry (in Angstrom), charge = 0, multiplicity = 1:

       Center              X                  Y                   Z               Mass
    ------------   -----------------  -----------------  -----------------  -----------------
         O           -0.443113026000     1.295528550783     0.296724880414    15.994914619570
         N            0.832578974000    -0.574506449217    -0.281396119586    14.003074004430
         C            3.254069974000    -0.444532449217    -0.162756119586    12.000000000000
         C            0.776598974000     0.679922550783     0.147587880414    12.000000000000
         C           -1.586794026000     0.509330550783     0.137173880414    12.000000000000
         C            3.148071974000     0.882089550783     0.287281880414    12.000000000000
         C            1.899532974000     1.462466550783     0.449844880414    12.000000000000
         C            2.060478974000    -1.114576449217    -0.426800119586    12.000000000000
         C            4.589590974000    -1.110268449217    -0.350114119586    12.000000000000
         C           -1.885617026000    -0.509019449217     1.041877880414    12.000000000000
         C           -2.463023026000     0.851880550783    -0.888436119586    12.000000000000
         C           -3.088508026000    -1.200494449217     0.902918880414    12.000000000000
         C           -3.667675026000     0.156367550783    -1.012823119586    12.000000000000
         C           -3.981332026000    -0.871445449217    -0.121529119586    12.000000000000
         H            4.046057974000     1.456004550783     0.511154880414     1.007825032230
         H            1.771572974000     2.482899550783     0.797191880414     1.007825032230
         H            2.075318974000    -2.145575449217    -0.780206119586     1.007825032230
         H            5.139538274000    -1.144273549217     0.572433280414     1.007825032230
         H            4.465899974000    -2.136511449217    -0.706467119586     1.007825032230
         H            5.200943974000    -0.571215449217    -1.080634119586     1.007825032230
         H           -1.184252026000    -0.750040449217     1.835209880414     1.007825032230
         H           -2.194790026000     1.656200550783    -1.567646119586     1.007825032230
         H           -3.330947026000    -1.998333449217     1.600754880414     1.007825032230
         H           -4.359196026000     0.418474550783    -1.809852119586     1.007825032230
         H           -4.918512026000    -1.412852449217    -0.221687119586     1.007825032230

  Basis Set: AUG-CC-PVTZ
    Blend: AUG-CC-PVTZ
  Basis Set: (AUG-CC-PVTZ AUX)
    Blend: AUG-CC-PVTZ-JKFIT
	 Reference Energy          =    -590.3315766672135396 [Eh]
	 Singles Energy            =      -0.0000000000000000 [Eh]
	 Same-Spin Energy          =      -0.6440083314684095 [Eh]
	 Opposite-Spin Energy      =      -1.9813753708645383 [Eh]
	 Correlation Energy        =      -2.6253837023329476 [Eh]
	 Total Energy              =    -592.9569603695464366 [Eh]

	 ================> DF-SCS-MP2 Energies <==================
	-----------------------------------------------------------
	 SCS Same-Spin Scale       =       0.3333333333333333 [-]
	 SCS Opposite-Spin Scale   =       1.2000000000000000 [-]
	 SCS Same-Spin Energy      =      -0.2146694438228032 [Eh]
	 SCS Opposite-Spin Energy  =      -2.3776504450374460 [Eh]
	 SCS Correlation Energy    =      -2.5923198888602492 [Eh]
	 SCS Total Energy          =    -592.9238965560738279 [Eh]
	-----------------------------------------------------------

  Dipole Moment: [D]
     X:     2.0268      Y:    -0.1865      Z:     0.1614     Total:     2.0418

*** Psi4 exiting successfully. Buy a developer a beer!
