                               Psi4 1.4a3.dev225

  ==> Input File <==

--------------------------------------------------------------------------
#psi4
#
memory 32 gb

molecule  {
0 1
  O       -0.4771680     1.3164760     0.3008390
  N        0.7985240    -0.5535590    -0.2772820
  C        3.2200150    -0.4235850    -0.1586420
  C        0.7425440     0.7008700     0.1517020
  C       -1.6208490     0.5302780     0.1412880
  C        3.1140170     0.9030370     0.2913960
  C        1.8654780     1.4834140     0.4539590
  C        2.0264240    -1.0936290    -0.4226860
  C        4.5732959    -1.0981741    -0.3484915
  C       -1.9196720    -0.4880720     1.0459920
  C       -2.4970780     0.8728280    -0.8843220
  C       -3.1225630    -1.1795470     0.9070330
  C       -3.7017300     0.1773150    -1.0087090
  C       -4.0153870    -0.8504980    -0.1174150
  H        4.0120030     1.4769520     0.5152690
  H        1.7375180     2.5038470     0.8013060
  H        2.0412640    -2.1246280    -0.7760920
  H        5.1157190    -1.1239590     0.5937180
  H        4.4318450    -2.1155640    -0.7023530
  H        5.1668890    -0.5502680    -1.0765200
  H       -1.2183070    -0.7290930     1.8393240
  H       -2.2288450     1.6771480    -1.5635320
  H       -3.3650020    -1.9773860     1.6048690
  H       -4.3932510     0.4394220    -1.8057380
  H       -4.9525670    -1.3919050    -0.2175730
units angstrom
no_reorient  #important for SAPT in psi4, default
symmetry c1  #important for SAPT in psi4, default
}

set PROPERTIES_ORIGIN ["COM"]
properties('MP2/aug-cc-pvtz', properties = ['dipole'])
--------------------------------------------------------------------------

    Molecular point group: c1
  Charge       = 0
  Multiplicity = 1
  Basis Set: AUG-CC-PVTZ
    Blend: AUG-CC-PVTZ
  Basis Set: (AUG-CC-PVTZ AUX)
    Blend: AUG-CC-PVTZ-JKFIT

    Orbital Energies [Eh]
    ---------------------

    Doubly Occupied:

       1A    -20.598471     2A    -15.563313     3A    -11.340584
       4A    -11.295599     5A    -11.277229     6A    -11.261348
       7A    -11.244020     8A    -11.241018     9A    -11.236691
      10A    -11.236591    11A    -11.232272    12A    -11.232023
      13A    -11.231283    14A    -11.230394    15A     -1.430632
      16A     -1.253273    17A     -1.145806    18A     -1.101124
      19A     -1.052023    20A     -1.015195    21A     -1.003438
      22A     -0.943489    23A     -0.877366    24A     -0.842393
      25A     -0.830646    26A     -0.800764    27A     -0.736706
      28A     -0.704391    29A     -0.679010    30A     -0.655406
      31A     -0.641284    32A     -0.626352    33A     -0.610794
      34A     -0.594730    35A     -0.592691    36A     -0.586764
      37A     -0.570565    38A     -0.562414    39A     -0.552691
      40A     -0.518246    41A     -0.513898    42A     -0.511686
      43A     -0.492590    44A     -0.477801    45A     -0.427977
      46A     -0.384487    47A     -0.335400    48A     -0.332456
      49A     -0.313696

  @DF-RHF Final Energy:  -590.33146795837411

   => Energetics <=

    Nuclear Repulsion Energy =            801.3558304220632635
    One-Electron Energy =               -2391.4965588209324778
    Two-Electron Energy =                 999.8092604404951089
    Total Energy =                       -590.3314679583741054
  Basis Set: (AUG-CC-PVTZ AUX)
    Blend: AUG-CC-PVTZ-RI
    Molecular point group: c1

    Geometry (in Angstrom), charge = 0, multiplicity = 1:

       Center              X                  Y                   Z               Mass
    ------------   -----------------  -----------------  -----------------  -----------------
         O           -0.444320232012     1.296105991380     0.296792919981    15.994914619570
         N            0.831371767988    -0.573929008620    -0.281328080019    14.003074004430
         C            3.252862767988    -0.443955008620    -0.162688080019    12.000000000000
         C            0.775391767988     0.680499991380     0.147655919981    12.000000000000
         C           -1.588001232012     0.509907991380     0.137241919981    12.000000000000
         C            3.146864767988     0.882666991380     0.287349919981    12.000000000000
         C            1.898325767988     1.463043991380     0.449912919981    12.000000000000
         C            2.059271767988    -1.113999008620    -0.426732080019    12.000000000000
         C            4.606143667988    -1.118544108620    -0.352537580019    12.000000000000
         C           -1.886824232012    -0.508442008620     1.041945919981    12.000000000000
         C           -2.464230232012     0.852457991380    -0.888368080019    12.000000000000
         C           -3.089715232012    -1.199917008620     0.902986919981    12.000000000000
         C           -3.668882232012     0.156944991380    -1.012755080019    12.000000000000
         C           -3.982539232012    -0.870868008620    -0.121461080019    12.000000000000
         H            4.044850767988     1.456581991380     0.511222919981     1.007825032230
         H            1.770365767988     2.483476991380     0.797259919981     1.007825032230
         H            2.074111767988    -2.144998008620    -0.780138080019     1.007825032230
         H            5.148566767988    -1.144329008620     0.589671919981     1.007825032230
         H            4.464692767988    -2.135934008620    -0.706399080019     1.007825032230
         H            5.199736767988    -0.570638008620    -1.080566080019     1.007825032230
         H           -1.185459232012    -0.749463008620     1.835277919981     1.007825032230
         H           -2.195997232012     1.656777991380    -1.567578080019     1.007825032230
         H           -3.332154232012    -1.997756008620     1.600822919981     1.007825032230
         H           -4.360403232012     0.419051991380    -1.809784080019     1.007825032230
         H           -4.919719232012    -1.412275008620    -0.221619080019     1.007825032230

  Basis Set: AUG-CC-PVTZ
    Blend: AUG-CC-PVTZ
  Basis Set: (AUG-CC-PVTZ AUX)
    Blend: AUG-CC-PVTZ-JKFIT
	 Reference Energy          =    -590.3314679583741054 [Eh]
	 Singles Energy            =      -0.0000000000000000 [Eh]
	 Same-Spin Energy          =      -0.6438488139501962 [Eh]
	 Opposite-Spin Energy      =      -1.9813542573833023 [Eh]
	 Correlation Energy        =      -2.6252030713334986 [Eh]
	 Total Energy              =    -592.9566710297076497 [Eh]

	 ================> DF-SCS-MP2 Energies <==================
	-----------------------------------------------------------
	 SCS Same-Spin Scale       =       0.3333333333333333 [-]
	 SCS Opposite-Spin Scale   =       1.2000000000000000 [-]
	 SCS Same-Spin Energy      =      -0.2146162713167321 [Eh]
	 SCS Opposite-Spin Energy  =      -2.3776251088599625 [Eh]
	 SCS Correlation Energy    =      -2.5922413801766946 [Eh]
	 SCS Total Energy          =    -592.9237093385507933 [Eh]
	-----------------------------------------------------------

  Dipole Moment: [D]
     X:     2.0192      Y:    -0.1853      Z:     0.1558     Total:     2.0337

*** Psi4 exiting successfully. Buy a developer a beer!
