                               Psi4 1.4a3.dev225

  ==> Input File <==

--------------------------------------------------------------------------
#psi4
#
memory 32 gb

molecule  {
0 1
  O       -0.4771680     1.3164760     0.3008390
  N        0.7985240    -0.5535590    -0.2772820
  C        3.2200150    -0.4235850    -0.1586420
  C        0.7425440     0.7008700     0.1517020
  C       -1.6208490     0.5302780     0.1412880
  C        3.1140170     0.9030370     0.2913960
  C        1.8654780     1.4834140     0.4539590
  C        2.0264240    -1.0936290    -0.4226860
  C        4.5555360    -1.0893210    -0.3460000
  C       -1.9196720    -0.4880720     1.0459920
  C       -2.4970780     0.8728280    -0.8843220
  C       -3.1225630    -1.1795470     0.9070330
  C       -3.7017300     0.1773150    -1.0087090
  C       -3.9834589    -0.8622651    -0.0807799
  H        4.0120030     1.4769520     0.5152690
  H        1.7375180     2.5038470     0.8013060
  H        2.0412640    -2.1246280    -0.7760920
  H        5.1157190    -1.1239590     0.5937180
  H        4.4318450    -2.1155640    -0.7023530
  H        5.1668890    -0.5502680    -1.0765200
  H       -1.2183070    -0.7290930     1.8393240
  H       -2.2288450     1.6771480    -1.5635320
  H       -3.3650020    -1.9773860     1.6048690
  H       -4.3932510     0.4394220    -1.8057380
  H       -4.9525670    -1.3919050    -0.2175730
units angstrom
no_reorient  #important for SAPT in psi4, default
symmetry c1  #important for SAPT in psi4, default
}

set PROPERTIES_ORIGIN ["COM"]
properties('MP2/aug-cc-pvtz', properties = ['dipole'])
--------------------------------------------------------------------------

    Molecular point group: c1
  Charge       = 0
  Multiplicity = 1
  Basis Set: AUG-CC-PVTZ
    Blend: AUG-CC-PVTZ
  Basis Set: (AUG-CC-PVTZ AUX)
    Blend: AUG-CC-PVTZ-JKFIT

    Orbital Energies [Eh]
    ---------------------

    Doubly Occupied:

       1A    -20.598272     2A    -15.563159     3A    -11.340554
       4A    -11.294872     5A    -11.277166     6A    -11.261306
       7A    -11.243064     8A    -11.241011     9A    -11.239212
      10A    -11.232667    11A    -11.232039    12A    -11.231874
      13A    -11.230780    14A    -11.229298    15A     -1.430440
      16A     -1.253288    17A     -1.148691    18A     -1.102479
      19A     -1.053470    20A     -1.017979    21A     -1.002582
      22A     -0.942930    23A     -0.877306    24A     -0.844227
      25A     -0.829285    26A     -0.799966    27A     -0.737231
      28A     -0.704603    29A     -0.675869    30A     -0.656762
      31A     -0.642890    32A     -0.626741    33A     -0.610905
      34A     -0.596794    35A     -0.591611    36A     -0.586787
      37A     -0.569631    38A     -0.562625    39A     -0.549048
      40A     -0.521130    41A     -0.517605    42A     -0.503873
      43A     -0.493327    44A     -0.478279    45A     -0.428047
      46A     -0.384299    47A     -0.339306    48A     -0.331372
      49A     -0.312568

  @DF-RHF Final Energy:  -590.32837511084756

   => Energetics <=

    Nuclear Repulsion Energy =            802.2820406103865025
    One-Electron Energy =               -2393.3423887169515183
    Two-Electron Energy =                1000.7319729957174559
    Total Energy =                       -590.3283751108475599
  Basis Set: (AUG-CC-PVTZ AUX)
    Blend: AUG-CC-PVTZ-RI
    Molecular point group: c1

    Geometry (in Angstrom), charge = 0, multiplicity = 1:

       Center              X                  Y                   Z               Mass
    ------------   -----------------  -----------------  -----------------  -----------------
         O           -0.445238832978     1.296294921746     0.294256131076    15.994914619570
         N            0.830453167022    -0.573740078254    -0.283864868924    14.003074004430
         C            3.251944167022    -0.443766078254    -0.165224868924    12.000000000000
         C            0.774473167022     0.680688921746     0.145119131076    12.000000000000
         C           -1.588919832978     0.510096921746     0.134705131076    12.000000000000
         C            3.145946167022     0.882855921746     0.284813131076    12.000000000000
         C            1.897407167022     1.463232921746     0.447376131076    12.000000000000
         C            2.058353167022    -1.113810078254    -0.429268868924    12.000000000000
         C            4.587465167022    -1.109502078254    -0.352582868924    12.000000000000
         C           -1.887742832978    -0.508253078254     1.039409131076    12.000000000000
         C           -2.465148832978     0.852646921746    -0.890904868924    12.000000000000
         C           -3.090633832978    -1.199728078254     0.900450131076    12.000000000000
         C           -3.669800832978     0.157133921746    -1.015291868924    12.000000000000
         C           -3.951529732978    -0.882446178254    -0.087362768924    12.000000000000
         H            4.043932167022     1.456770921746     0.508686131076     1.007825032230
         H            1.769447167022     2.483665921746     0.794723131076     1.007825032230
         H            2.073193167022    -2.144809078254    -0.782674868924     1.007825032230
         H            5.147648167022    -1.144140078254     0.587135131076     1.007825032230
         H            4.463774167022    -2.135745078254    -0.708935868924     1.007825032230
         H            5.198818167022    -0.570449078254    -1.083102868924     1.007825032230
         H           -1.186377832978    -0.749274078254     1.832741131076     1.007825032230
         H           -2.196915832978     1.656966921746    -1.570114868924     1.007825032230
         H           -3.333072832978    -1.997567078254     1.598286131076     1.007825032230
         H           -4.361321832978     0.419240921746    -1.812320868924     1.007825032230
         H           -4.920637832978    -1.412086078254    -0.224155868924     1.007825032230

  Basis Set: AUG-CC-PVTZ
    Blend: AUG-CC-PVTZ
  Basis Set: (AUG-CC-PVTZ AUX)
    Blend: AUG-CC-PVTZ-JKFIT
	 Reference Energy          =    -590.3283751108475599 [Eh]
	 Singles Energy            =      -0.0000000000000000 [Eh]
	 Same-Spin Energy          =      -0.6440677536972229 [Eh]
	 Opposite-Spin Energy      =      -1.9815701490093849 [Eh]
	 Correlation Energy        =      -2.6256379027066079 [Eh]
	 Total Energy              =    -592.9540130135541176 [Eh]

	 ================> DF-SCS-MP2 Energies <==================
	-----------------------------------------------------------
	 SCS Same-Spin Scale       =       0.3333333333333333 [-]
	 SCS Opposite-Spin Scale   =       1.2000000000000000 [-]
	 SCS Same-Spin Energy      =      -0.2146892512324076 [Eh]
	 SCS Opposite-Spin Energy  =      -2.3778841788112617 [Eh]
	 SCS Correlation Energy    =      -2.5925734300436694 [Eh]
	 SCS Total Energy          =    -592.9209485408912315 [Eh]
	-----------------------------------------------------------

  Dipole Moment: [D]
     X:     2.0103      Y:    -0.1706      Z:     0.1448     Total:     2.0227

*** Psi4 exiting successfully. Buy a developer a beer!
