                               Psi4 1.4a3.dev225

  ==> Input File <==

--------------------------------------------------------------------------
#psi4
#
memory 32 gb

molecule  {
0 1
  O       -0.4771680     1.3164760     0.3008390
  N        0.7985240    -0.5535590    -0.2772820
  C        3.2200150    -0.4235850    -0.1586420
  C        0.7425440     0.7008700     0.1517020
  C       -1.6208490     0.5302780     0.1412880
  C        3.1140170     0.9030370     0.2913960
  C        1.8654780     1.4834140     0.4539590
  C        2.0264240    -1.0936290    -0.4226860
  C        4.5555360    -1.0893210    -0.3460000
  C       -1.9196720    -0.4880720     1.0459920
  C       -2.4970780     0.8728280    -0.8843220
  C       -3.1225630    -1.1795470     0.9070330
  C       -3.7017300     0.1773150    -1.0087090
  C       -4.0153870    -0.8504980    -0.1174150
  H        3.9955108     1.4664116     0.5111574
  H        1.7375180     2.5038470     0.8013060
  H        2.0412640    -2.1246280    -0.7760920
  H        5.1157190    -1.1239590     0.5937180
  H        4.4318450    -2.1155640    -0.7023530
  H        5.1668890    -0.5502680    -1.0765200
  H       -1.2183070    -0.7290930     1.8393240
  H       -2.2288450     1.6771480    -1.5635320
  H       -3.3650020    -1.9773860     1.6048690
  H       -4.3932510     0.4394220    -1.8057380
  H       -4.9525670    -1.3919050    -0.2175730
units angstrom
no_reorient  #important for SAPT in psi4, default
symmetry c1  #important for SAPT in psi4, default
}

set PROPERTIES_ORIGIN ["COM"]
properties('MP2/aug-cc-pvtz', properties = ['dipole'])
--------------------------------------------------------------------------

    Molecular point group: c1
  Charge       = 0
  Multiplicity = 1
  Basis Set: AUG-CC-PVTZ
    Blend: AUG-CC-PVTZ
  Basis Set: (AUG-CC-PVTZ AUX)
    Blend: AUG-CC-PVTZ-JKFIT

    Orbital Energies [Eh]
    ---------------------

    Doubly Occupied:

       1A    -20.598495     2A    -15.563332     3A    -11.340590
       4A    -11.295611     5A    -11.277154     6A    -11.259109
       7A    -11.243026     8A    -11.240994     9A    -11.236704
      10A    -11.236604    11A    -11.232766    12A    -11.232037
      13A    -11.231296    14A    -11.230406    15A     -1.430654
      16A     -1.253376    17A     -1.145826    18A     -1.103035
      19A     -1.052970    20A     -1.015216    21A     -1.003807
      22A     -0.942939    23A     -0.878693    24A     -0.842054
      25A     -0.830581    26A     -0.801683    27A     -0.737702
      28A     -0.704865    29A     -0.679156    30A     -0.655452
      31A     -0.643167    32A     -0.626465    33A     -0.612210
      34A     -0.595362    35A     -0.592272    36A     -0.586129
      37A     -0.569678    38A     -0.564595    39A     -0.549631
      40A     -0.521035    41A     -0.513485    42A     -0.511655
      43A     -0.492660    44A     -0.477516    45A     -0.428253
      46A     -0.384364    47A     -0.335397    48A     -0.332280
      49A     -0.313502

  @DF-RHF Final Energy:  -590.33169413199016

   => Energetics <=

    Nuclear Repulsion Energy =            801.8275766049350750
    One-Electron Energy =               -2392.4269659153774228
    Two-Electron Energy =                1000.2676951784521862
    Total Energy =                       -590.3316941319901616
  Basis Set: (AUG-CC-PVTZ AUX)
    Blend: AUG-CC-PVTZ-RI
    Molecular point group: c1

    Geometry (in Angstrom), charge = 0, multiplicity = 1:

       Center              X                  Y                   Z               Mass
    ------------   -----------------  -----------------  -----------------  -----------------
         O           -0.443078957928     1.295589391955     0.296653771174    15.994914619570
         N            0.832613042072    -0.574445608045    -0.281467228826    14.003074004430
         C            3.254104042072    -0.444471608045    -0.162827228826    12.000000000000
         C            0.776633042072     0.679983391955     0.147516771174    12.000000000000
         C           -1.586759957928     0.509391391955     0.137102771174    12.000000000000
         C            3.148106042072     0.882150391955     0.287210771174    12.000000000000
         C            1.899567042072     1.462527391955     0.449773771174    12.000000000000
         C            2.060513042072    -1.114515608045    -0.426871228826    12.000000000000
         C            4.589625042072    -1.110207608045    -0.350185228826    12.000000000000
         C           -1.885582957928    -0.508958608045     1.041806771174    12.000000000000
         C           -2.462988957928     0.851941391955    -0.888507228826    12.000000000000
         C           -3.088473957928    -1.200433608045     0.902847771174    12.000000000000
         C           -3.667640957928     0.156428391955    -1.012894228826    12.000000000000
         C           -3.981297957928    -0.871384608045    -0.121600228826    12.000000000000
         H            4.029599842072     1.445524991955     0.506972171174     1.007825032230
         H            1.771607042072     2.482960391955     0.797120771174     1.007825032230
         H            2.075353042072    -2.145514608045    -0.780277228826     1.007825032230
         H            5.149808042072    -1.144845608045     0.589532771174     1.007825032230
         H            4.465934042072    -2.136450608045    -0.706538228826     1.007825032230
         H            5.200978042072    -0.571154608045    -1.080705228826     1.007825032230
         H           -1.184217957928    -0.749979608045     1.835138771174     1.007825032230
         H           -2.194755957928     1.656261391955    -1.567717228826     1.007825032230
         H           -3.330912957928    -1.998272608045     1.600683771174     1.007825032230
         H           -4.359161957928     0.418535391955    -1.809923228826     1.007825032230
         H           -4.918477957928    -1.412791608045    -0.221758228826     1.007825032230

  Basis Set: AUG-CC-PVTZ
    Blend: AUG-CC-PVTZ
  Basis Set: (AUG-CC-PVTZ AUX)
    Blend: AUG-CC-PVTZ-JKFIT
	 Reference Energy          =    -590.3316941319901616 [Eh]
	 Singles Energy            =      -0.0000000000000000 [Eh]
	 Same-Spin Energy          =      -0.6439617277085601 [Eh]
	 Opposite-Spin Energy      =      -1.9813494355058299 [Eh]
	 Correlation Energy        =      -2.6253111632143900 [Eh]
	 Total Energy              =    -592.9570052952045671 [Eh]

	 ================> DF-SCS-MP2 Energies <==================
	-----------------------------------------------------------
	 SCS Same-Spin Scale       =       0.3333333333333333 [-]
	 SCS Opposite-Spin Scale   =       1.2000000000000000 [-]
	 SCS Same-Spin Energy      =      -0.2146539092361867 [Eh]
	 SCS Opposite-Spin Energy  =      -2.3776193226069959 [Eh]
	 SCS Correlation Energy    =      -2.5922732318431825 [Eh]
	 SCS Total Energy          =    -592.9239673638332988 [Eh]
	-----------------------------------------------------------

  Dipole Moment: [D]
     X:     2.0237      Y:    -0.1803      Z:     0.1576     Total:     2.0378

*** Psi4 exiting successfully. Buy a developer a beer!
