                               Psi4 1.4a3.dev225

  ==> Input File <==

--------------------------------------------------------------------------
#psi4
#
memory 32 gb

molecule  {
0 1
  O       -0.4771680     1.3164760     0.3008390
  N        0.7985240    -0.5535590    -0.2772820
  C        3.2200150    -0.4235850    -0.1586420
  C        0.7425440     0.7008700     0.1517020
  C       -1.6208490     0.5302780     0.1412880
  C        3.1140170     0.9030370     0.2913960
  C        1.8654780     1.4834140     0.4539590
  C        2.0264240    -1.0936290    -0.4226860
  C        4.5555360    -1.0893210    -0.3460000
  C       -1.9196720    -0.4880720     1.0459920
  C       -2.4970780     0.8728280    -0.8843220
  C       -3.2188368    -1.2820519     0.9475595
  C       -3.7017300     0.1773150    -1.0087090
  C       -4.0153870    -0.8504980    -0.1174150
  H        4.0120030     1.4769520     0.5152690
  H        1.7375180     2.5038470     0.8013060
  H        2.0412640    -2.1246280    -0.7760920
  H        5.1157190    -1.1239590     0.5937180
  H        4.4318450    -2.1155640    -0.7023530
  H        5.1668890    -0.5502680    -1.0765200
  H       -1.2183070    -0.7290930     1.8393240
  H       -2.2288450     1.6771480    -1.5635320
  H       -3.3650020    -1.9773860     1.6048690
  H       -4.3932510     0.4394220    -1.8057380
  H       -4.9525670    -1.3919050    -0.2175730
units angstrom
no_reorient  #important for SAPT in psi4, default
symmetry c1  #important for SAPT in psi4, default
}

set PROPERTIES_ORIGIN ["COM"]
properties('MP2/aug-cc-pvtz', properties = ['dipole'])
--------------------------------------------------------------------------

    Molecular point group: c1
  Charge       = 0
  Multiplicity = 1
  Basis Set: AUG-CC-PVTZ
    Blend: AUG-CC-PVTZ
  Basis Set: (AUG-CC-PVTZ AUX)
    Blend: AUG-CC-PVTZ-JKFIT

    Orbital Energies [Eh]
    ---------------------

    Doubly Occupied:

       1A    -20.598387     2A    -15.562720     3A    -11.340209
       4A    -11.294505     5A    -11.276856     6A    -11.261043
       7A    -11.244346     8A    -11.242793     9A    -11.241154
      10A    -11.240761    11A    -11.237833    12A    -11.235769
      13A    -11.234593    14A    -11.232480    15A     -1.430311
      16A     -1.252898    17A     -1.136228    18A     -1.102196
      19A     -1.052860    20A     -1.011421    21A     -0.999969
      22A     -0.942513    23A     -0.875900    24A     -0.848326
      25A     -0.835890    26A     -0.799187    27A     -0.740986
      28A     -0.704587    29A     -0.674340    30A     -0.651162
      31A     -0.649936    32A     -0.639967    33A     -0.611490
      34A     -0.602520    35A     -0.592617    36A     -0.584475
      37A     -0.565579    38A     -0.561470    39A     -0.548846
      40A     -0.523562    41A     -0.520472    42A     -0.492794
      43A     -0.485797    44A     -0.479091    45A     -0.427386
      46A     -0.383940    47A     -0.335874    48A     -0.325183
      49A     -0.312713

  @DF-RHF Final Energy:  -590.30203814190622

   => Energetics <=

    Nuclear Repulsion Energy =            799.0140206531840477
    One-Electron Energy =               -2386.7402415053302320
    Two-Electron Energy =                 997.4241827102398474
    Total Energy =                       -590.3020381419062232
  Basis Set: (AUG-CC-PVTZ AUX)
    Blend: AUG-CC-PVTZ-RI
    Molecular point group: c1

    Geometry (in Angstrom), charge = 0, multiplicity = 1:

       Center              X                  Y                   Z               Mass
    ------------   -----------------  -----------------  -----------------  -----------------
         O           -0.436926811041     1.302177943637     0.294003830586    15.994914619570
         N            0.838765188959    -0.567857056363    -0.284117169414    14.003074004430
         C            3.260256188959    -0.437883056363    -0.165477169414    12.000000000000
         C            0.782785188959     0.686571943637     0.144866830586    12.000000000000
         C           -1.580607811041     0.515979943637     0.134452830586    12.000000000000
         C            3.154258188959     0.888738943637     0.284560830586    12.000000000000
         C            1.905719188959     1.469115943637     0.447123830586    12.000000000000
         C            2.066665188959    -1.107927056363    -0.429521169414    12.000000000000
         C            4.595777188959    -1.103619056363    -0.352835169414    12.000000000000
         C           -1.879430811041    -0.502370056363     1.039156830586    12.000000000000
         C           -2.456836811041     0.858529943637    -0.891157169414    12.000000000000
         C           -3.178595611041    -1.296349956363     0.940724330586    12.000000000000
         C           -3.661488811041     0.163016943637    -1.015544169414    12.000000000000
         C           -3.975145811041    -0.864796056363    -0.124250169414    12.000000000000
         H            4.052244188959     1.462653943637     0.508433830586     1.007825032230
         H            1.777759188959     2.489548943637     0.794470830586     1.007825032230
         H            2.081505188959    -2.138926056363    -0.782927169414     1.007825032230
         H            5.155960188959    -1.138257056363     0.586882830586     1.007825032230
         H            4.472086188959    -2.129862056363    -0.709188169414     1.007825032230
         H            5.207130188959    -0.564566056363    -1.083355169414     1.007825032230
         H           -1.178065811041    -0.743391056363     1.832488830586     1.007825032230
         H           -2.188603811041     1.662849943637    -1.570367169414     1.007825032230
         H           -3.324760811041    -1.991684056363     1.598033830586     1.007825032230
         H           -4.353009811041     0.425123943637    -1.812573169414     1.007825032230
         H           -4.912325811041    -1.406203056363    -0.224408169414     1.007825032230

  Basis Set: AUG-CC-PVTZ
    Blend: AUG-CC-PVTZ
  Basis Set: (AUG-CC-PVTZ AUX)
    Blend: AUG-CC-PVTZ-JKFIT
	 Reference Energy          =    -590.3020381419062232 [Eh]
	 Singles Energy            =      -0.0000000000000000 [Eh]
	 Same-Spin Energy          =      -0.6443090683896588 [Eh]
	 Opposite-Spin Energy      =      -1.9839170995763888 [Eh]
	 Correlation Energy        =      -2.6282261679660479 [Eh]
	 Total Energy              =    -592.9302643098723138 [Eh]

	 ================> DF-SCS-MP2 Energies <==================
	-----------------------------------------------------------
	 SCS Same-Spin Scale       =       0.3333333333333333 [-]
	 SCS Opposite-Spin Scale   =       1.2000000000000000 [-]
	 SCS Same-Spin Energy      =      -0.2147696894632196 [Eh]
	 SCS Opposite-Spin Energy  =      -2.3807005194916666 [Eh]
	 SCS Correlation Energy    =      -2.5954702089548860 [Eh]
	 SCS Total Energy          =    -592.8975083508611306 [Eh]
	-----------------------------------------------------------

  Dipole Moment: [D]
     X:     1.9991      Y:    -0.2058      Z:     0.1551     Total:     2.0156

*** Psi4 exiting successfully. Buy a developer a beer!
