                               Psi4 1.4a3.dev225

  ==> Input File <==

--------------------------------------------------------------------------
#psi4
#
memory 32 gb

molecule  {
0 1
  O       -0.4771680     1.3164760     0.3008390
  N        0.7985240    -0.5535590    -0.2772820
  C        3.2200150    -0.4235850    -0.1586420
  C        0.7425440     0.7008700     0.1517020
  C       -1.5788450     0.5376412     0.1647596
  C        3.1140170     0.9030370     0.2913960
  C        1.8654780     1.4834140     0.4539590
  C        2.0264240    -1.0936290    -0.4226860
  C        4.5555360    -1.0893210    -0.3460000
  C       -1.9196720    -0.4880720     1.0459920
  C       -2.4970780     0.8728280    -0.8843220
  C       -3.1225630    -1.1795470     0.9070330
  C       -3.7017300     0.1773150    -1.0087090
  C       -4.0153870    -0.8504980    -0.1174150
  H        4.0120030     1.4769520     0.5152690
  H        1.7375180     2.5038470     0.8013060
  H        2.0412640    -2.1246280    -0.7760920
  H        5.1157190    -1.1239590     0.5937180
  H        4.4318450    -2.1155640    -0.7023530
  H        5.1668890    -0.5502680    -1.0765200
  H       -1.2183070    -0.7290930     1.8393240
  H       -2.2288450     1.6771480    -1.5635320
  H       -3.3650020    -1.9773860     1.6048690
  H       -4.3932510     0.4394220    -1.8057380
  H       -4.9525670    -1.3919050    -0.2175730
units angstrom
no_reorient  #important for SAPT in psi4, default
symmetry c1  #important for SAPT in psi4, default
}

set PROPERTIES_ORIGIN ["COM"]
properties('MP2/aug-cc-pvtz', properties = ['dipole'])
--------------------------------------------------------------------------

    Molecular point group: c1
  Charge       = 0
  Multiplicity = 1
  Basis Set: AUG-CC-PVTZ
    Blend: AUG-CC-PVTZ
  Basis Set: (AUG-CC-PVTZ AUX)
    Blend: AUG-CC-PVTZ-JKFIT

    Orbital Energies [Eh]
    ---------------------

    Doubly Occupied:

       1A    -20.604350     2A    -15.566067     3A    -11.343643
       4A    -11.297377     5A    -11.279216     6A    -11.263305
       7A    -11.245482     8A    -11.243629     9A    -11.235132
      10A    -11.234580    11A    -11.234170    12A    -11.232434
      13A    -11.229309    14A    -11.228306    15A     -1.447607
      16A     -1.256979    17A     -1.139467    18A     -1.104727
      19A     -1.056198    20A     -1.011290    21A     -1.000471
      22A     -0.945212    23A     -0.881421    24A     -0.844750
      25A     -0.828835    26A     -0.800618    27A     -0.740295
      28A     -0.708293    29A     -0.678517    30A     -0.659151
      31A     -0.645760    32A     -0.627854    33A     -0.614689
      34A     -0.597606    35A     -0.591212    36A     -0.581741
      37A     -0.570609    38A     -0.566665    39A     -0.551530
      40A     -0.523177    41A     -0.515044    42A     -0.513016
      43A     -0.487565    44A     -0.471793    45A     -0.430413
      46A     -0.386340    47A     -0.335203    48A     -0.329215
      49A     -0.310794

  @DF-RHF Final Energy:  -590.32858256524810

   => Energetics <=

    Nuclear Repulsion Energy =            801.9479854853184406
    One-Electron Energy =               -2392.5710232373689905
    Two-Electron Energy =                1000.2944551868024519
    Total Energy =                       -590.3285825652480980
  Basis Set: (AUG-CC-PVTZ AUX)
    Blend: AUG-CC-PVTZ-RI
    Molecular point group: c1

    Geometry (in Angstrom), charge = 0, multiplicity = 1:

       Center              X                  Y                   Z               Mass
    ------------   -----------------  -----------------  -----------------  -----------------
         O           -0.445892108022     1.295054601024     0.295109591912    15.994914619570
         N            0.829799891978    -0.574980398976    -0.283011408088    14.003074004430
         C            3.251290891978    -0.445006398976    -0.164371408088    12.000000000000
         C            0.773819891978     0.679448601024     0.145972591912    12.000000000000
         C           -1.547569108022     0.516219801024     0.159030191912    12.000000000000
         C            3.145292891978     0.881615601024     0.285666591912    12.000000000000
         C            1.896753891978     1.461992601024     0.448229591912    12.000000000000
         C            2.057699891978    -1.115050398976    -0.428415408088    12.000000000000
         C            4.586811891978    -1.110742398976    -0.351729408088    12.000000000000
         C           -1.888396108022    -0.509493398976     1.040262591912    12.000000000000
         C           -2.465802108022     0.851406601024    -0.890051408088    12.000000000000
         C           -3.091287108022    -1.200968398976     0.901303591912    12.000000000000
         C           -3.670454108022     0.155893601024    -1.014438408088    12.000000000000
         C           -3.984111108022    -0.871919398976    -0.123144408088    12.000000000000
         H            4.043278891978     1.455530601024     0.509539591912     1.007825032230
         H            1.768793891978     2.482425601024     0.795576591912     1.007825032230
         H            2.072539891978    -2.146049398976    -0.781821408088     1.007825032230
         H            5.146994891978    -1.145380398976     0.587988591912     1.007825032230
         H            4.463120891978    -2.136985398976    -0.708082408088     1.007825032230
         H            5.198164891978    -0.571689398976    -1.082249408088     1.007825032230
         H           -1.187031108022    -0.750514398976     1.833594591912     1.007825032230
         H           -2.197569108022     1.655726601024    -1.569261408088     1.007825032230
         H           -3.333726108022    -1.998807398976     1.599139591912     1.007825032230
         H           -4.361975108022     0.418000601024    -1.811467408088     1.007825032230
         H           -4.921291108022    -1.413326398976    -0.223302408088     1.007825032230

  Basis Set: AUG-CC-PVTZ
    Blend: AUG-CC-PVTZ
  Basis Set: (AUG-CC-PVTZ AUX)
    Blend: AUG-CC-PVTZ-JKFIT
	 Reference Energy          =    -590.3285825652480980 [Eh]
	 Singles Energy            =      -0.0000000000000000 [Eh]
	 Same-Spin Energy          =      -0.6442670103346915 [Eh]
	 Opposite-Spin Energy      =      -1.9816620189521685 [Eh]
	 Correlation Energy        =      -2.6259290292868602 [Eh]
	 Total Energy              =    -592.9545115945350062 [Eh]

	 ================> DF-SCS-MP2 Energies <==================
	-----------------------------------------------------------
	 SCS Same-Spin Scale       =       0.3333333333333333 [-]
	 SCS Opposite-Spin Scale   =       1.2000000000000000 [-]
	 SCS Same-Spin Energy      =      -0.2147556701115638 [Eh]
	 SCS Opposite-Spin Energy  =      -2.3779944227426020 [Eh]
	 SCS Correlation Energy    =      -2.5927500928541658 [Eh]
	 SCS Total Energy          =    -592.9213326581023011 [Eh]
	-----------------------------------------------------------

  Dipole Moment: [D]
     X:     2.3547      Y:    -0.1203      Z:     0.1829     Total:     2.3648

*** Psi4 exiting successfully. Buy a developer a beer!
