                               Psi4 1.4a3.dev225

  ==> Input File <==

--------------------------------------------------------------------------
#psi4
#
memory 32 gb

molecule  {
0 1
  O       -0.4771680     1.3164760     0.3008390
  N        0.7985240    -0.5535590    -0.2772820
  C        3.2200150    -0.4235850    -0.1586420
  C        0.7425440     0.7008700     0.1517020
  C       -1.5997983     0.5341153     0.1528878
  C        3.1140170     0.9030370     0.2913960
  C        1.8654780     1.4834140     0.4539590
  C        2.0264240    -1.0936290    -0.4226860
  C        4.5555360    -1.0893210    -0.3460000
  C       -1.9196720    -0.4880720     1.0459920
  C       -2.4970780     0.8728280    -0.8843220
  C       -3.1225630    -1.1795470     0.9070330
  C       -3.7017300     0.1773150    -1.0087090
  C       -4.0153870    -0.8504980    -0.1174150
  H        4.0120030     1.4769520     0.5152690
  H        1.7375180     2.5038470     0.8013060
  H        2.0412640    -2.1246280    -0.7760920
  H        5.1157190    -1.1239590     0.5937180
  H        4.4318450    -2.1155640    -0.7023530
  H        5.1668890    -0.5502680    -1.0765200
  H       -1.2183070    -0.7290930     1.8393240
  H       -2.2288450     1.6771480    -1.5635320
  H       -3.3650020    -1.9773860     1.6048690
  H       -4.3932510     0.4394220    -1.8057380
  H       -4.9525670    -1.3919050    -0.2175730
units angstrom
no_reorient  #important for SAPT in psi4, default
symmetry c1  #important for SAPT in psi4, default
}

set PROPERTIES_ORIGIN ["COM"]
properties('MP2/aug-cc-pvtz', properties = ['dipole'])
--------------------------------------------------------------------------

    Molecular point group: c1
  Charge       = 0
  Multiplicity = 1
  Basis Set: AUG-CC-PVTZ
    Blend: AUG-CC-PVTZ
  Basis Set: (AUG-CC-PVTZ AUX)
    Blend: AUG-CC-PVTZ-JKFIT

    Orbital Energies [Eh]
    ---------------------

    Doubly Occupied:

       1A    -20.601483     2A    -15.564725     3A    -11.342183
       4A    -11.296459     5A    -11.278253     6A    -11.262366
       7A    -11.244342     8A    -11.242390     9A    -11.235904
      10A    -11.235600    11A    -11.233461    12A    -11.231959
      13A    -11.230681    14A    -11.229387    15A     -1.438993
      16A     -1.255220    17A     -1.142589    18A     -1.103669
      19A     -1.054578    20A     -1.013051    21A     -1.002252
      22A     -0.944075    23A     -0.879524    24A     -0.843226
      25A     -0.829840    26A     -0.800742    27A     -0.738591
      28A     -0.706444    29A     -0.678875    30A     -0.657190
      31A     -0.644494    32A     -0.627008    33A     -0.612836
      34A     -0.596183    35A     -0.591383    36A     -0.584307
      37A     -0.570188    38A     -0.565047    39A     -0.550548
      40A     -0.522150    41A     -0.514171    42A     -0.512438
      43A     -0.490133    44A     -0.475026    45A     -0.429320
      46A     -0.385394    47A     -0.335018    48A     -0.330735
      49A     -0.312514

  @DF-RHF Final Energy:  -590.33080667851073

   => Energetics <=

    Nuclear Repulsion Energy =            801.8271004186111668
    One-Electron Energy =               -2392.3819230569033607
    Two-Electron Energy =                1000.2240159597813545
    Total Energy =                       -590.3308066785107258
  Basis Set: (AUG-CC-PVTZ AUX)
    Blend: AUG-CC-PVTZ-RI
    Molecular point group: c1

    Geometry (in Angstrom), charge = 0, multiplicity = 1:

       Center              X                  Y                   Z               Mass
    ------------   -----------------  -----------------  -----------------  -----------------
         O           -0.444533592358     1.295283204173     0.295879304857    15.994914619570
         N            0.831158407642    -0.574751795827    -0.282241695143    14.003074004430
         C            3.252649407642    -0.444777795827    -0.163601695143    12.000000000000
         C            0.775178407642     0.679677204173     0.146742304857    12.000000000000
         C           -1.567163892358     0.512922504173     0.147928104857    12.000000000000
         C            3.146651407642     0.881844204173     0.286436304857    12.000000000000
         C            1.898112407642     1.462221204173     0.448999304857    12.000000000000
         C            2.059058407642    -1.114821795827    -0.427645695143    12.000000000000
         C            4.588170407642    -1.110513795827    -0.350959695143    12.000000000000
         C           -1.887037592358    -0.509264795827     1.041032304857    12.000000000000
         C           -2.464443592358     0.851635204173    -0.889281695143    12.000000000000
         C           -3.089928592358    -1.200739795827     0.902073304857    12.000000000000
         C           -3.669095592358     0.156122204173    -1.013668695143    12.000000000000
         C           -3.982752592358    -0.871690795827    -0.122374695143    12.000000000000
         H            4.044637407642     1.455759204173     0.510309304857     1.007825032230
         H            1.770152407642     2.482654204173     0.796346304857     1.007825032230
         H            2.073898407642    -2.145820795827    -0.781051695143     1.007825032230
         H            5.148353407642    -1.145151795827     0.588758304857     1.007825032230
         H            4.464479407642    -2.136756795827    -0.707312695143     1.007825032230
         H            5.199523407642    -0.571460795827    -1.081479695143     1.007825032230
         H           -1.185672592358    -0.750285795827     1.834364304857     1.007825032230
         H           -2.196210592358     1.655955204173    -1.568491695143     1.007825032230
         H           -3.332367592358    -1.998578795827     1.599909304857     1.007825032230
         H           -4.360616592358     0.418229204173    -1.810697695143     1.007825032230
         H           -4.919932592358    -1.413097795827    -0.222532695143     1.007825032230

  Basis Set: AUG-CC-PVTZ
    Blend: AUG-CC-PVTZ
  Basis Set: (AUG-CC-PVTZ AUX)
    Blend: AUG-CC-PVTZ-JKFIT
	 Reference Energy          =    -590.3308066785107258 [Eh]
	 Singles Energy            =      -0.0000000000000000 [Eh]
	 Same-Spin Energy          =      -0.6441159911707657 [Eh]
	 Opposite-Spin Energy      =      -1.9815273796056958 [Eh]
	 Correlation Energy        =      -2.6256433707764613 [Eh]
	 Total Energy              =    -592.9564500492872412 [Eh]

	 ================> DF-SCS-MP2 Energies <==================
	-----------------------------------------------------------
	 SCS Same-Spin Scale       =       0.3333333333333333 [-]
	 SCS Opposite-Spin Scale   =       1.2000000000000000 [-]
	 SCS Same-Spin Energy      =      -0.2147053303902552 [Eh]
	 SCS Opposite-Spin Energy  =      -2.3778328555268349 [Eh]
	 SCS Correlation Energy    =      -2.5925381859170900 [Eh]
	 SCS Total Energy          =    -592.9233448644278042 [Eh]
	-----------------------------------------------------------

  Dipole Moment: [D]
     X:     2.1849      Y:    -0.1525      Z:     0.1697     Total:     2.1968

*** Psi4 exiting successfully. Buy a developer a beer!
