                               Psi4 1.4a3.dev225

  ==> Input File <==

--------------------------------------------------------------------------
#psi4
#
memory 32 gb

molecule  {
0 1
  O       -0.4771680     1.3164760     0.3008390
  N        0.7985240    -0.5535590    -0.2772820
  C        3.2200150    -0.4235850    -0.1586420
  C        0.7425440     0.7008700     0.1517020
  C       -1.6208490     0.5302780     0.1412880
  C        3.1140170     0.9030370     0.2913960
  C        1.8654780     1.4834140     0.4539590
  C        2.0264240    -1.0936290    -0.4226860
  C        4.5555360    -1.0893210    -0.3460000
  C       -1.9196720    -0.4880720     1.0459920
  C       -2.4970780     0.8728280    -0.8843220
  C       -3.1225630    -1.1795470     0.9070330
  C       -3.7017300     0.1773150    -1.0087090
  C       -4.0153870    -0.8504980    -0.1174150
  H        4.0120030     1.4769520     0.5152690
  H        1.7375180     2.5038470     0.8013060
  H        2.0412640    -2.1246280    -0.7760920
  H        5.1179262    -1.1999843     0.5864943
  H        4.4318450    -2.1155640    -0.7023530
  H        5.1668890    -0.5502680    -1.0765200
  H       -1.2183070    -0.7290930     1.8393240
  H       -2.2288450     1.6771480    -1.5635320
  H       -3.3650020    -1.9773860     1.6048690
  H       -4.3932510     0.4394220    -1.8057380
  H       -4.9525670    -1.3919050    -0.2175730
units angstrom
no_reorient  #important for SAPT in psi4, default
symmetry c1  #important for SAPT in psi4, default
}

set PROPERTIES_ORIGIN ["COM"]
properties('MP2/aug-cc-pvtz', properties = ['dipole'])
--------------------------------------------------------------------------

    Molecular point group: c1
  Charge       = 0
  Multiplicity = 1
  Basis Set: AUG-CC-PVTZ
    Blend: AUG-CC-PVTZ
  Basis Set: (AUG-CC-PVTZ AUX)
    Blend: AUG-CC-PVTZ-JKFIT

    Orbital Energies [Eh]
    ---------------------

    Doubly Occupied:

       1A    -20.598723     2A    -15.563500     3A    -11.340964
       4A    -11.295729     5A    -11.277649     6A    -11.261513
       7A    -11.243467     8A    -11.241085     9A    -11.236797
      10A    -11.236697    11A    -11.232436    12A    -11.232148
      13A    -11.231404    14A    -11.230502    15A     -1.430868
      16A     -1.253630    17A     -1.145934    18A     -1.102451
      19A     -1.053011    20A     -1.015315    21A     -1.003809
      22A     -0.942962    23A     -0.877656    24A     -0.842477
      25A     -0.830795    26A     -0.800932    27A     -0.736897
      28A     -0.704560    29A     -0.679197    30A     -0.655588
      31A     -0.644158    32A     -0.626473    33A     -0.611123
      34A     -0.595698    35A     -0.592111    36A     -0.586617
      37A     -0.570541    38A     -0.563374    39A     -0.544657
      40A     -0.521404    41A     -0.513856    42A     -0.511514
      43A     -0.492766    44A     -0.477780    45A     -0.428316
      46A     -0.384629    47A     -0.335508    48A     -0.332573
      49A     -0.313885

  @DF-RHF Final Energy:  -590.33107174890176

   => Energetics <=

    Nuclear Repulsion Energy =            801.6561054543030878
    One-Electron Energy =               -2392.0830028626369312
    Two-Electron Energy =                1000.0958256594320801
    Total Energy =                       -590.3310717489017634
  Basis Set: (AUG-CC-PVTZ AUX)
    Blend: AUG-CC-PVTZ-RI
    Molecular point group: c1

    Geometry (in Angstrom), charge = 0, multiplicity = 1:

       Center              X                  Y                   Z               Mass
    ------------   -----------------  -----------------  -----------------  -----------------
         O           -0.443180780435     1.295945972203     0.296670717270    15.994914619570
         N            0.832511219565    -0.574089027797    -0.281450282730    14.003074004430
         C            3.254002219565    -0.444115027797    -0.162810282730    12.000000000000
         C            0.776531219565     0.680339972203     0.147533717270    12.000000000000
         C           -1.586861780435     0.509747972203     0.137119717270    12.000000000000
         C            3.148004219565     0.882506972203     0.287227717270    12.000000000000
         C            1.899465219565     1.462883972203     0.449790717270    12.000000000000
         C            2.060411219565    -1.114159027797    -0.426854282730    12.000000000000
         C            4.589523219565    -1.109851027797    -0.350168282730    12.000000000000
         C           -1.885684780435    -0.508602027797     1.041823717270    12.000000000000
         C           -2.463090780435     0.852297972203    -0.888490282730    12.000000000000
         C           -3.088575780435    -1.200077027797     0.902864717270    12.000000000000
         C           -3.667742780435     0.156784972203    -1.012877282730    12.000000000000
         C           -3.981399780435    -0.871028027797    -0.121583282730    12.000000000000
         H            4.045990219565     1.456421972203     0.511100717270     1.007825032230
         H            1.771505219565     2.483316972203     0.797137717270     1.007825032230
         H            2.075251219565    -2.145158027797    -0.780260282730     1.007825032230
         H            5.151913419565    -1.220514327797     0.582326017270     1.007825032230
         H            4.465832219565    -2.136094027797    -0.706521282730     1.007825032230
         H            5.200876219565    -0.570798027797    -1.080688282730     1.007825032230
         H           -1.184319780435    -0.749623027797     1.835155717270     1.007825032230
         H           -2.194857780435     1.656617972203    -1.567700282730     1.007825032230
         H           -3.331014780435    -1.997916027797     1.600700717270     1.007825032230
         H           -4.359263780435     0.418891972203    -1.809906282730     1.007825032230
         H           -4.918579780435    -1.412435027797    -0.221741282730     1.007825032230

  Basis Set: AUG-CC-PVTZ
    Blend: AUG-CC-PVTZ
  Basis Set: (AUG-CC-PVTZ AUX)
    Blend: AUG-CC-PVTZ-JKFIT
	 Reference Energy          =    -590.3310717489017634 [Eh]
	 Singles Energy            =      -0.0000000000000000 [Eh]
	 Same-Spin Energy          =      -0.6439873481446212 [Eh]
	 Opposite-Spin Energy      =      -1.9814442456315535 [Eh]
	 Correlation Energy        =      -2.6254315937761747 [Eh]
	 Total Energy              =    -592.9565033426779337 [Eh]

	 ================> DF-SCS-MP2 Energies <==================
	-----------------------------------------------------------
	 SCS Same-Spin Scale       =       0.3333333333333333 [-]
	 SCS Opposite-Spin Scale   =       1.2000000000000000 [-]
	 SCS Same-Spin Energy      =      -0.2146624493815404 [Eh]
	 SCS Opposite-Spin Energy  =      -2.3777330947578643 [Eh]
	 SCS Correlation Energy    =      -2.5923955441394049 [Eh]
	 SCS Total Energy          =    -592.9234672930411989 [Eh]
	-----------------------------------------------------------

  Dipole Moment: [D]
     X:     1.9989      Y:    -0.2039      Z:     0.1634     Total:     2.0159

*** Psi4 exiting successfully. Buy a developer a beer!
