                               Psi4 1.4a3.dev225

  ==> Input File <==

--------------------------------------------------------------------------
#psi4
#
memory 32 gb

molecule  {
0 1
  O       -0.4771680     1.3164760     0.3008390
  N        0.7985240    -0.5535590    -0.2772820
  C        3.2200150    -0.4235850    -0.1586420
  C        0.7425440     0.7008700     0.1517020
  C       -1.6208490     0.5302780     0.1412880
  C        3.1177895     0.8558223     0.2753791
  C        1.8654780     1.4834140     0.4539590
  C        2.0264240    -1.0936290    -0.4226860
  C        4.5555360    -1.0893210    -0.3460000
  C       -1.9196720    -0.4880720     1.0459920
  C       -2.4970780     0.8728280    -0.8843220
  C       -3.1225630    -1.1795470     0.9070330
  C       -3.7017300     0.1773150    -1.0087090
  C       -4.0153870    -0.8504980    -0.1174150
  H        4.0120030     1.4769520     0.5152690
  H        1.7375180     2.5038470     0.8013060
  H        2.0412640    -2.1246280    -0.7760920
  H        5.1157190    -1.1239590     0.5937180
  H        4.4318450    -2.1155640    -0.7023530
  H        5.1668890    -0.5502680    -1.0765200
  H       -1.2183070    -0.7290930     1.8393240
  H       -2.2288450     1.6771480    -1.5635320
  H       -3.3650020    -1.9773860     1.6048690
  H       -4.3932510     0.4394220    -1.8057380
  H       -4.9525670    -1.3919050    -0.2175730
units angstrom
no_reorient  #important for SAPT in psi4, default
symmetry c1  #important for SAPT in psi4, default
}

set PROPERTIES_ORIGIN ["COM"]
properties('MP2/aug-cc-pvtz', properties = ['dipole'])
--------------------------------------------------------------------------

    Molecular point group: c1
  Charge       = 0
  Multiplicity = 1
  Basis Set: AUG-CC-PVTZ
    Blend: AUG-CC-PVTZ
  Basis Set: (AUG-CC-PVTZ AUX)
    Blend: AUG-CC-PVTZ-JKFIT

    Orbital Energies [Eh]
    ---------------------

    Doubly Occupied:

       1A    -20.597324     2A    -15.564616     3A    -11.339027
       4A    -11.295240     5A    -11.280664     6A    -11.260236
       7A    -11.241620     8A    -11.238960     9A    -11.236576
      10A    -11.236475    11A    -11.233136    12A    -11.231810
      13A    -11.231020    14A    -11.230227    15A     -1.429786
      16A     -1.255291    17A     -1.145650    18A     -1.108206
      19A     -1.050808    20A     -1.015040    21A     -1.002393
      22A     -0.944389    23A     -0.879005    24A     -0.843865
      25A     -0.830984    26A     -0.798995    27A     -0.735253
      28A     -0.705722    29A     -0.679215    30A     -0.655050
      31A     -0.644245    32A     -0.626091    33A     -0.610265
      34A     -0.594436    35A     -0.592397    36A     -0.586574
      37A     -0.569508    38A     -0.556030    39A     -0.549215
      40A     -0.526344    41A     -0.513969    42A     -0.511308
      43A     -0.492313    44A     -0.478191    45A     -0.428582
      46A     -0.384458    47A     -0.335186    48A     -0.333062
      49A     -0.314325

  @DF-RHF Final Energy:  -590.32821538911071

   => Energetics <=

    Nuclear Repulsion Energy =            802.2687492973693679
    One-Electron Energy =               -2393.3077643510237067
    Two-Electron Energy =                1000.7107996645436288
    Total Energy =                       -590.3282153891107100
  Basis Set: (AUG-CC-PVTZ AUX)
    Blend: AUG-CC-PVTZ-RI
    Molecular point group: c1

    Geometry (in Angstrom), charge = 0, multiplicity = 1:

       Center              X                  Y                   Z               Mass
    ------------   -----------------  -----------------  -----------------  -----------------
         O           -0.443413353287     1.298593181201     0.297669844750    15.994914619570
         N            0.832278646713    -0.571441818799    -0.280451155250    14.003074004430
         C            3.253769646713    -0.441467818799    -0.161811155250    12.000000000000
         C            0.776298646713     0.682987181201     0.148532844750    12.000000000000
         C           -1.587094353287     0.512395181201     0.138118844750    12.000000000000
         C            3.151544146713     0.837939481201     0.272209944750    12.000000000000
         C            1.899232646713     1.465531181201     0.450789844750    12.000000000000
         C            2.060178646713    -1.111511818799    -0.425855155250    12.000000000000
         C            4.589290646713    -1.107203818799    -0.349169155250    12.000000000000
         C           -1.885917353287    -0.505954818799     1.042822844750    12.000000000000
         C           -2.463323353287     0.854945181201    -0.887491155250    12.000000000000
         C           -3.088808353287    -1.197429818799     0.903863844750    12.000000000000
         C           -3.667975353287     0.159432181201    -1.011878155250    12.000000000000
         C           -3.981632353287    -0.868380818799    -0.120584155250    12.000000000000
         H            4.045757646713     1.459069181201     0.512099844750     1.007825032230
         H            1.771272646713     2.485964181201     0.798136844750     1.007825032230
         H            2.075018646713    -2.142510818799    -0.779261155250     1.007825032230
         H            5.149473646713    -1.141841818799     0.590548844750     1.007825032230
         H            4.465599646713    -2.133446818799    -0.705522155250     1.007825032230
         H            5.200643646713    -0.568150818799    -1.079689155250     1.007825032230
         H           -1.184552353287    -0.746975818799     1.836154844750     1.007825032230
         H           -2.195090353287     1.659265181201    -1.566701155250     1.007825032230
         H           -3.331247353287    -1.995268818799     1.601699844750     1.007825032230
         H           -4.359496353287     0.421539181201    -1.808907155250     1.007825032230
         H           -4.918812353287    -1.409787818799    -0.220742155250     1.007825032230

  Basis Set: AUG-CC-PVTZ
    Blend: AUG-CC-PVTZ
  Basis Set: (AUG-CC-PVTZ AUX)
    Blend: AUG-CC-PVTZ-JKFIT
	 Reference Energy          =    -590.3282153891107100 [Eh]
	 Singles Energy            =      -0.0000000000000000 [Eh]
	 Same-Spin Energy          =      -0.6442639032916424 [Eh]
	 Opposite-Spin Energy      =      -1.9816168552507922 [Eh]
	 Correlation Energy        =      -2.6258807585424346 [Eh]
	 Total Energy              =    -592.9540961476531038 [Eh]

	 ================> DF-SCS-MP2 Energies <==================
	-----------------------------------------------------------
	 SCS Same-Spin Scale       =       0.3333333333333333 [-]
	 SCS Opposite-Spin Scale   =       1.2000000000000000 [-]
	 SCS Same-Spin Energy      =      -0.2147546344305475 [Eh]
	 SCS Opposite-Spin Energy  =      -2.3779402263009506 [Eh]
	 SCS Correlation Energy    =      -2.5926948607314979 [Eh]
	 SCS Total Energy          =    -592.9209102498422226 [Eh]
	-----------------------------------------------------------

  Dipole Moment: [D]
     X:     2.0135      Y:    -0.2200      Z:     0.1421     Total:     2.0304

*** Psi4 exiting successfully. Buy a developer a beer!
