                               Psi4 1.4a3.dev225

  ==> Input File <==

--------------------------------------------------------------------------
#psi4
#
memory 32 gb

molecule  {
0 1
  O       -0.4771680     1.3164760     0.3008390
  N        0.7985240    -0.5535590    -0.2772820
  C        3.2200150    -0.4235850    -0.1586420
  C        0.7425440     0.7008700     0.1517020
  C       -1.6208490     0.5302780     0.1412880
  C        3.1140170     0.9030370     0.2913960
  C        1.8654780     1.4834140     0.4539590
  C        2.0264240    -1.0936290    -0.4226860
  C        4.5555360    -1.0893210    -0.3460000
  C       -1.9196720    -0.4880720     1.0459920
  C       -2.4970780     0.8728280    -0.8843220
  C       -3.1225630    -1.1795470     0.9070330
  C       -3.7017300     0.1773150    -1.0087090
  C       -3.9929209    -0.7768794    -0.1812552
  H        4.0120030     1.4769520     0.5152690
  H        1.7375180     2.5038470     0.8013060
  H        2.0412640    -2.1246280    -0.7760920
  H        5.1157190    -1.1239590     0.5937180
  H        4.4318450    -2.1155640    -0.7023530
  H        5.1668890    -0.5502680    -1.0765200
  H       -1.2183070    -0.7290930     1.8393240
  H       -2.2288450     1.6771480    -1.5635320
  H       -3.3650020    -1.9773860     1.6048690
  H       -4.3932510     0.4394220    -1.8057380
  H       -4.9525670    -1.3919050    -0.2175730
units angstrom
no_reorient  #important for SAPT in psi4, default
symmetry c1  #important for SAPT in psi4, default
}

set PROPERTIES_ORIGIN ["COM"]
properties('MP2/aug-cc-pvtz', properties = ['dipole'])
--------------------------------------------------------------------------

    Molecular point group: c1
  Charge       = 0
  Multiplicity = 1
  Basis Set: AUG-CC-PVTZ
    Blend: AUG-CC-PVTZ
  Basis Set: (AUG-CC-PVTZ AUX)
    Blend: AUG-CC-PVTZ-JKFIT

    Orbital Energies [Eh]
    ---------------------

    Doubly Occupied:

       1A    -20.598233     2A    -15.563507     3A    -11.340546
       4A    -11.294721     5A    -11.277315     6A    -11.261410
       7A    -11.243219     8A    -11.241472     9A    -11.241106
      10A    -11.233112    11A    -11.232768    12A    -11.230462
      13A    -11.228718    14A    -11.223141    15A     -1.430354
      16A     -1.253470    17A     -1.152347    18A     -1.102623
      19A     -1.054158    20A     -1.022658    21A     -1.000996
      22A     -0.942404    23A     -0.877584    24A     -0.838496
      25A     -0.836573    26A     -0.798148    27A     -0.737408
      28A     -0.704685    29A     -0.673314    30A     -0.657016
      31A     -0.642666    32A     -0.627055    33A     -0.612013
      34A     -0.598235    35A     -0.592682    36A     -0.586230
      37A     -0.570232    38A     -0.562540    39A     -0.549209
      40A     -0.521083    41A     -0.519937    42A     -0.500268
      43A     -0.491925    44A     -0.475279    45A     -0.428537
      46A     -0.384531    47A     -0.344683    48A     -0.327065
      49A     -0.314946

  @DF-RHF Final Energy:  -590.31833191111684

   => Energetics <=

    Nuclear Repulsion Energy =            802.7761927243211630
    One-Electron Energy =               -2394.3068882462634974
    Two-Electron Energy =                1001.2123636108254914
    Total Energy =                       -590.3183319111168430
  Basis Set: (AUG-CC-PVTZ AUX)
    Blend: AUG-CC-PVTZ-RI
    Molecular point group: c1

    Geometry (in Angstrom), charge = 0, multiplicity = 1:

       Center              X                  Y                   Z               Mass
    ------------   -----------------  -----------------  -----------------  -----------------
         O           -0.444625360389     1.290758905420     0.300770487710    15.994914619570
         N            0.831066639611    -0.579276094580    -0.277350512290    14.003074004430
         C            3.252557639611    -0.449302094580    -0.158710512290    12.000000000000
         C            0.775086639611     0.675152905420     0.151633487710    12.000000000000
         C           -1.588306360389     0.504560905420     0.141219487710    12.000000000000
         C            3.146559639611     0.877319905420     0.291327487710    12.000000000000
         C            1.898020639611     1.457696905420     0.453890487710    12.000000000000
         C            2.058966639611    -1.119346094580    -0.422754512290    12.000000000000
         C            4.588078639611    -1.115038094580    -0.346068512290    12.000000000000
         C           -1.887129360389    -0.513789094580     1.045923487710    12.000000000000
         C           -2.464535360389     0.847110905420    -0.884390512290    12.000000000000
         C           -3.090020360389    -1.205264094580     0.906964487710    12.000000000000
         C           -3.669187360389     0.151597905420    -1.008777512290    12.000000000000
         C           -3.960378260389    -0.802596494580    -0.181323712290    12.000000000000
         H            4.044545639611     1.451234905420     0.515200487710     1.007825032230
         H            1.770060639611     2.478129905420     0.801237487710     1.007825032230
         H            2.073806639611    -2.150345094580    -0.776160512290     1.007825032230
         H            5.148261639611    -1.149676094580     0.593649487710     1.007825032230
         H            4.464387639611    -2.141281094580    -0.702421512290     1.007825032230
         H            5.199431639611    -0.575985094580    -1.076588512290     1.007825032230
         H           -1.185764360389    -0.754810094580     1.839255487710     1.007825032230
         H           -2.196302360389     1.651430905420    -1.563600512290     1.007825032230
         H           -3.332459360389    -2.003103094580     1.604800487710     1.007825032230
         H           -4.360708360389     0.413704905420    -1.805806512290     1.007825032230
         H           -4.920024360389    -1.417622094580    -0.217641512290     1.007825032230

  Basis Set: AUG-CC-PVTZ
    Blend: AUG-CC-PVTZ
  Basis Set: (AUG-CC-PVTZ AUX)
    Blend: AUG-CC-PVTZ-JKFIT
	 Reference Energy          =    -590.3183319111168430 [Eh]
	 Singles Energy            =      -0.0000000000000000 [Eh]
	 Same-Spin Energy          =      -0.6437450967168338 [Eh]
	 Opposite-Spin Energy      =      -1.9816630272149420 [Eh]
	 Correlation Energy        =      -2.6254081239317757 [Eh]
	 Total Energy              =    -592.9437400350485632 [Eh]

	 ================> DF-SCS-MP2 Energies <==================
	-----------------------------------------------------------
	 SCS Same-Spin Scale       =       0.3333333333333333 [-]
	 SCS Opposite-Spin Scale   =       1.2000000000000000 [-]
	 SCS Same-Spin Energy      =      -0.2145816989056112 [Eh]
	 SCS Opposite-Spin Energy  =      -2.3779956326579303 [Eh]
	 SCS Correlation Energy    =      -2.5925773315635414 [Eh]
	 SCS Total Energy          =    -592.9109092426804182 [Eh]
	-----------------------------------------------------------

  Dipole Moment: [D]
     X:     2.0381      Y:    -0.1917      Z:     0.1854     Total:     2.0555

*** Psi4 exiting successfully. Buy a developer a beer!
