                               Psi4 1.4a3.dev225

  ==> Input File <==

--------------------------------------------------------------------------
#psi4
#
memory 32 gb

molecule  {
0 1
  O       -0.4771680     1.3164760     0.3008390
  N        0.7985240    -0.5535590    -0.2772820
  C        3.2200150    -0.4235850    -0.1586420
  C        0.7425440     0.7008700     0.1517020
  C       -1.6523150     0.4961561     0.1556239
  C        3.1140170     0.9030370     0.2913960
  C        1.8654780     1.4834140     0.4539590
  C        2.0264240    -1.0936290    -0.4226860
  C        4.5555360    -1.0893210    -0.3460000
  C       -1.9196720    -0.4880720     1.0459920
  C       -2.4970780     0.8728280    -0.8843220
  C       -3.1225630    -1.1795470     0.9070330
  C       -3.7017300     0.1773150    -1.0087090
  C       -4.0153870    -0.8504980    -0.1174150
  H        4.0120030     1.4769520     0.5152690
  H        1.7375180     2.5038470     0.8013060
  H        2.0412640    -2.1246280    -0.7760920
  H        5.1157190    -1.1239590     0.5937180
  H        4.4318450    -2.1155640    -0.7023530
  H        5.1668890    -0.5502680    -1.0765200
  H       -1.2183070    -0.7290930     1.8393240
  H       -2.2288450     1.6771480    -1.5635320
  H       -3.3650020    -1.9773860     1.6048690
  H       -4.3932510     0.4394220    -1.8057380
  H       -4.9525670    -1.3919050    -0.2175730
units angstrom
no_reorient  #important for SAPT in psi4, default
symmetry c1  #important for SAPT in psi4, default
}

set PROPERTIES_ORIGIN ["COM"]
properties('MP2/aug-cc-pvtz', properties = ['dipole'])
--------------------------------------------------------------------------

    Molecular point group: c1
  Charge       = 0
  Multiplicity = 1
  Basis Set: AUG-CC-PVTZ
    Blend: AUG-CC-PVTZ
  Basis Set: (AUG-CC-PVTZ AUX)
    Blend: AUG-CC-PVTZ-JKFIT

    Orbital Energies [Eh]
    ---------------------

    Doubly Occupied:

       1A    -20.593083     2A    -15.560789     3A    -11.337420
       4A    -11.294246     5A    -11.275439     6A    -11.259534
       7A    -11.241022     8A    -11.239031     9A    -11.238628
      10A    -11.238490    11A    -11.234169    12A    -11.232364
      13A    -11.231389    14A    -11.230283    15A     -1.415552
      16A     -1.249923    17A     -1.152789    18A     -1.100561
      19A     -1.049798    20A     -1.020853    21A     -1.006075
      22A     -0.940530    23A     -0.874096    24A     -0.840924
      25A     -0.832184    26A     -0.800798    27A     -0.732572
      28A     -0.701970    29A     -0.679659    30A     -0.652445
      31A     -0.640796    32A     -0.625989    33A     -0.608422
      34A     -0.596365    35A     -0.591128    36A     -0.586538
      37A     -0.568352    38A     -0.559977    39A     -0.547736
      40A     -0.519152    41A     -0.513281    42A     -0.509256
      43A     -0.498421    44A     -0.480642    45A     -0.426013
      46A     -0.382626    47A     -0.339317    48A     -0.333487
      49A     -0.314517

  @DF-RHF Final Energy:  -590.32843398173236

   => Energetics <=

    Nuclear Repulsion Energy =            801.6472013097634317
    One-Electron Energy =               -2392.1540076576393403
    Two-Electron Energy =                1000.1783723661435488
    Total Energy =                       -590.3284339817323598
  Basis Set: (AUG-CC-PVTZ AUX)
    Blend: AUG-CC-PVTZ-RI
    Molecular point group: c1

    Geometry (in Angstrom), charge = 0, multiplicity = 1:

       Center              X                  Y                   Z               Mass
    ------------   -----------------  -----------------  -----------------  -----------------
         O           -0.441128650915     1.297744304228     0.295701908709    15.994914619570
         N            0.834563349085    -0.572290695772    -0.282419091291    14.003074004430
         C            3.256054349085    -0.442316695772    -0.163779091291    12.000000000000
         C            0.778583349085     0.682138304228     0.146564908709    12.000000000000
         C           -1.616275650915     0.477424404228     0.150486808709    12.000000000000
         C            3.150056349085     0.884305304228     0.286258908709    12.000000000000
         C            1.901517349085     1.464682304228     0.448821908709    12.000000000000
         C            2.062463349085    -1.112360695772    -0.427823091291    12.000000000000
         C            4.591575349085    -1.108052695772    -0.351137091291    12.000000000000
         C           -1.883632650915    -0.506803695772     1.040854908709    12.000000000000
         C           -2.461038650915     0.854096304228    -0.889459091291    12.000000000000
         C           -3.086523650915    -1.198278695772     0.901895908709    12.000000000000
         C           -3.665690650915     0.158583304228    -1.013846091291    12.000000000000
         C           -3.979347650915    -0.869229695772    -0.122552091291    12.000000000000
         H            4.048042349085     1.458220304228     0.510131908709     1.007825032230
         H            1.773557349085     2.485115304228     0.796168908709     1.007825032230
         H            2.077303349085    -2.143359695772    -0.781229091291     1.007825032230
         H            5.151758349085    -1.142690695772     0.588580908709     1.007825032230
         H            4.467884349085    -2.134295695772    -0.707490091291     1.007825032230
         H            5.202928349085    -0.568999695772    -1.081657091291     1.007825032230
         H           -1.182267650915    -0.747824695772     1.834186908709     1.007825032230
         H           -2.192805650915     1.658416304228    -1.568669091291     1.007825032230
         H           -3.328962650915    -1.996117695772     1.599731908709     1.007825032230
         H           -4.357211650915     0.420690304228    -1.810875091291     1.007825032230
         H           -4.916527650915    -1.410636695772    -0.222710091291     1.007825032230

  Basis Set: AUG-CC-PVTZ
    Blend: AUG-CC-PVTZ
  Basis Set: (AUG-CC-PVTZ AUX)
    Blend: AUG-CC-PVTZ-JKFIT
	 Reference Energy          =    -590.3284339817323598 [Eh]
	 Singles Energy            =      -0.0000000000000000 [Eh]
	 Same-Spin Energy          =      -0.6440159340083875 [Eh]
	 Opposite-Spin Energy      =      -1.9818082167735516 [Eh]
	 Correlation Energy        =      -2.6258241507819391 [Eh]
	 Total Energy              =    -592.9542581325142692 [Eh]

	 ================> DF-SCS-MP2 Energies <==================
	-----------------------------------------------------------
	 SCS Same-Spin Scale       =       0.3333333333333333 [-]
	 SCS Opposite-Spin Scale   =       1.2000000000000000 [-]
	 SCS Same-Spin Energy      =      -0.2146719780027958 [Eh]
	 SCS Opposite-Spin Energy  =      -2.3781698601282617 [Eh]
	 SCS Correlation Energy    =      -2.5928418381310574 [Eh]
	 SCS Total Energy          =    -592.9212758198634674 [Eh]
	-----------------------------------------------------------

  Dipole Moment: [D]
     X:     1.7000      Y:    -0.2579      Z:     0.1569     Total:     1.7265

*** Psi4 exiting successfully. Buy a developer a beer!
