                               Psi4 1.4a3.dev225

  ==> Input File <==

--------------------------------------------------------------------------
#psi4
#
memory 32 gb

molecule  {
0 1
  O       -0.4771680     1.3164760     0.3008390
  N        0.7985240    -0.5535590    -0.2772820
  C        3.2200150    -0.4235850    -0.1586420
  C        0.6868255     0.7774141     0.1763667
  C       -1.6208490     0.5302780     0.1412880
  C        3.1140170     0.9030370     0.2913960
  C        1.8654780     1.4834140     0.4539590
  C        2.0264240    -1.0936290    -0.4226860
  C        4.5555360    -1.0893210    -0.3460000
  C       -1.9196720    -0.4880720     1.0459920
  C       -2.4970780     0.8728280    -0.8843220
  C       -3.1225630    -1.1795470     0.9070330
  C       -3.7017300     0.1773150    -1.0087090
  C       -4.0153870    -0.8504980    -0.1174150
  H        4.0120030     1.4769520     0.5152690
  H        1.7375180     2.5038470     0.8013060
  H        2.0412640    -2.1246280    -0.7760920
  H        5.1157190    -1.1239590     0.5937180
  H        4.4318450    -2.1155640    -0.7023530
  H        5.1668890    -0.5502680    -1.0765200
  H       -1.2183070    -0.7290930     1.8393240
  H       -2.2288450     1.6771480    -1.5635320
  H       -3.3650020    -1.9773860     1.6048690
  H       -4.3932510     0.4394220    -1.8057380
  H       -4.9525670    -1.3919050    -0.2175730
units angstrom
no_reorient  #important for SAPT in psi4, default
symmetry c1  #important for SAPT in psi4, default
}

set PROPERTIES_ORIGIN ["COM"]
properties('MP2/aug-cc-pvtz', properties = ['dipole'])
--------------------------------------------------------------------------

    Molecular point group: c1
  Charge       = 0
  Multiplicity = 1
  Basis Set: AUG-CC-PVTZ
    Blend: AUG-CC-PVTZ
  Basis Set: (AUG-CC-PVTZ AUX)
    Blend: AUG-CC-PVTZ-JKFIT

    Orbital Energies [Eh]
    ---------------------

    Doubly Occupied:

       1A    -20.614492     2A    -15.558865     3A    -11.345576
       4A    -11.304969     5A    -11.272543     6A    -11.257472
       7A    -11.241381     8A    -11.241158     9A    -11.238192
      10A    -11.237880    11A    -11.235518    12A    -11.235428
      13A    -11.234056    14A    -11.228113    15A     -1.472445
      16A     -1.225923    17A     -1.153495    18A     -1.089864
      19A     -1.053818    20A     -1.020525    21A     -1.010830
      22A     -0.937939    23A     -0.876786    24A     -0.847827
      25A     -0.835162    26A     -0.800035    27A     -0.749287
      28A     -0.707270    29A     -0.682754    30A     -0.669125
      31A     -0.642544    32A     -0.624282    33A     -0.614730
      34A     -0.597957    35A     -0.594666    36A     -0.586871
      37A     -0.576114    38A     -0.560024    39A     -0.542692
      40A     -0.518360    41A     -0.513505    42A     -0.509737
      43A     -0.499938    44A     -0.480776    45A     -0.412954
      46A     -0.375743    47A     -0.339855    48A     -0.334029
      49A     -0.306119

  @DF-RHF Final Energy:  -590.31871042397518

   => Energetics <=

    Nuclear Repulsion Energy =            801.5056949960527390
    One-Electron Energy =               -2391.6295590353151965
    Two-Electron Energy =                 999.8051536152873950
    Total Energy =                       -590.3187104239751761
  Basis Set: (AUG-CC-PVTZ AUX)
    Blend: AUG-CC-PVTZ-RI
    Molecular point group: c1

    Geometry (in Angstrom), charge = 0, multiplicity = 1:

       Center              X                  Y                   Z               Mass
    ------------   -----------------  -----------------  -----------------  -----------------
         O           -0.439556230287     1.290569229446     0.295032236792    15.994914619570
         N            0.836135769713    -0.579465770554    -0.283088763208    14.003074004430
         C            3.257626769713    -0.449491770554    -0.164448763208    12.000000000000
         C            0.724437269713     0.751507329446     0.170559936792    12.000000000000
         C           -1.583237230287     0.504371229446     0.135481236792    12.000000000000
         C            3.151628769713     0.877130229446     0.285589236792    12.000000000000
         C            1.903089769713     1.457507229446     0.448152236792    12.000000000000
         C            2.064035769713    -1.119535770554    -0.428492763208    12.000000000000
         C            4.593147769713    -1.115227770554    -0.351806763208    12.000000000000
         C           -1.882060230287    -0.513978770554     1.040185236792    12.000000000000
         C           -2.459466230287     0.846921229446    -0.890128763208    12.000000000000
         C           -3.084951230287    -1.205453770554     0.901226236792    12.000000000000
         C           -3.664118230287     0.151408229446    -1.014515763208    12.000000000000
         C           -3.977775230287    -0.876404770554    -0.123221763208    12.000000000000
         H            4.049614769713     1.451045229446     0.509462236792     1.007825032230
         H            1.775129769713     2.477940229446     0.795499236792     1.007825032230
         H            2.078875769713    -2.150534770554    -0.781898763208     1.007825032230
         H            5.153330769713    -1.149865770554     0.587911236792     1.007825032230
         H            4.469456769713    -2.141470770554    -0.708159763208     1.007825032230
         H            5.204500769713    -0.576174770554    -1.082326763208     1.007825032230
         H           -1.180695230287    -0.754999770554     1.833517236792     1.007825032230
         H           -2.191233230287     1.651241229446    -1.569338763208     1.007825032230
         H           -3.327390230287    -2.003292770554     1.599062236792     1.007825032230
         H           -4.355639230287     0.413515229446    -1.811544763208     1.007825032230
         H           -4.914955230287    -1.417811770554    -0.223379763208     1.007825032230

  Basis Set: AUG-CC-PVTZ
    Blend: AUG-CC-PVTZ
  Basis Set: (AUG-CC-PVTZ AUX)
    Blend: AUG-CC-PVTZ-JKFIT
	 Reference Energy          =    -590.3187104239751761 [Eh]
	 Singles Energy            =      -0.0000000000000000 [Eh]
	 Same-Spin Energy          =      -0.6446852231345839 [Eh]
	 Opposite-Spin Energy      =      -1.9823710699792831 [Eh]
	 Correlation Energy        =      -2.6270562931138670 [Eh]
	 Total Energy              =    -592.9457667170891000 [Eh]

	 ================> DF-SCS-MP2 Energies <==================
	-----------------------------------------------------------
	 SCS Same-Spin Scale       =       0.3333333333333333 [-]
	 SCS Opposite-Spin Scale   =       1.2000000000000000 [-]
	 SCS Same-Spin Energy      =      -0.2148950743781946 [Eh]
	 SCS Opposite-Spin Energy  =      -2.3788452839751395 [Eh]
	 SCS Correlation Energy    =      -2.5937403583533341 [Eh]
	 SCS Total Energy          =    -592.9124507823285057 [Eh]
	-----------------------------------------------------------

  Dipole Moment: [D]
     X:     1.1301      Y:    -0.0233      Z:     0.2203     Total:     1.1516

*** Psi4 exiting successfully. Buy a developer a beer!
