                               Psi4 1.4a3.dev225

  ==> Input File <==

--------------------------------------------------------------------------
#psi4
#
memory 32 gb

molecule  {
0 1
  O       -0.4771680     1.3164760     0.3008390
  N        0.7985240    -0.5535590    -0.2772820
  C        3.2200150    -0.4235850    -0.1586420
  C        0.7425440     0.7008700     0.1517020
  C       -1.6208490     0.5302780     0.1412880
  C        3.1140170     0.9030370     0.2913960
  C        1.8654780     1.4834140     0.4539590
  C        1.8444158    -1.0135759    -0.4011332
  C        4.5555360    -1.0893210    -0.3460000
  C       -1.9196720    -0.4880720     1.0459920
  C       -2.4970780     0.8728280    -0.8843220
  C       -3.1225630    -1.1795470     0.9070330
  C       -3.7017300     0.1773150    -1.0087090
  C       -4.0153870    -0.8504980    -0.1174150
  H        4.0120030     1.4769520     0.5152690
  H        1.7375180     2.5038470     0.8013060
  H        2.0412640    -2.1246280    -0.7760920
  H        5.1157190    -1.1239590     0.5937180
  H        4.4318450    -2.1155640    -0.7023530
  H        5.1668890    -0.5502680    -1.0765200
  H       -1.2183070    -0.7290930     1.8393240
  H       -2.2288450     1.6771480    -1.5635320
  H       -3.3650020    -1.9773860     1.6048690
  H       -4.3932510     0.4394220    -1.8057380
  H       -4.9525670    -1.3919050    -0.2175730
units angstrom
no_reorient  #important for SAPT in psi4, default
symmetry c1  #important for SAPT in psi4, default
}

set PROPERTIES_ORIGIN ["COM"]
properties('MP2/aug-cc-pvtz', properties = ['dipole'])
--------------------------------------------------------------------------

    Molecular point group: c1
  Charge       = 0
  Multiplicity = 1
  Basis Set: AUG-CC-PVTZ
    Blend: AUG-CC-PVTZ
  Basis Set: (AUG-CC-PVTZ AUX)
    Blend: AUG-CC-PVTZ-JKFIT

    Orbital Energies [Eh]
    ---------------------

    Doubly Occupied:

       1A    -20.599308     2A    -15.557673     3A    -11.342939
       4A    -11.297994     5A    -11.281289     6A    -11.252497
       7A    -11.247368     8A    -11.239447     9A    -11.239244
      10A    -11.234863    11A    -11.234840    12A    -11.234182
      13A    -11.233668    14A    -11.232833    15A     -1.434420
      16A     -1.327314    17A     -1.149203    18A     -1.104653
      19A     -1.046632    20A     -1.017922    21A     -1.003124
      22A     -0.945826    23A     -0.866587    24A     -0.847516
      25A     -0.835030    26A     -0.807524    27A     -0.740856
      28A     -0.707388    29A     -0.682404    30A     -0.659432
      31A     -0.641097    32A     -0.625506    33A     -0.605734
      34A     -0.597725    35A     -0.588695    36A     -0.588000
      37A     -0.573481    38A     -0.568403    39A     -0.557362
      40A     -0.532071    41A     -0.524831    42A     -0.512758
      43A     -0.495661    44A     -0.485791    45A     -0.405255
      46A     -0.399851    47A     -0.338051    48A     -0.329786
      49A     -0.298779

  @DF-RHF Final Energy:  -590.27272985547734

   => Energetics <=

    Nuclear Repulsion Energy =            804.8368266028795688
    One-Electron Energy =               -2398.0734847573221487
    Two-Electron Energy =                1002.9639282989651292
    Total Energy =                       -590.2727298554773370
  Basis Set: (AUG-CC-PVTZ AUX)
    Blend: AUG-CC-PVTZ-RI
    Molecular point group: c1

    Geometry (in Angstrom), charge = 0, multiplicity = 1:

       Center              X                  Y                   Z               Mass
    ------------   -----------------  -----------------  -----------------  -----------------
         O           -0.431368186609     1.290341722015     0.295233998085    15.994914619570
         N            0.844323813391    -0.579693277985    -0.282887001915    14.003074004430
         C            3.265814813391    -0.449719277985    -0.164247001915    12.000000000000
         C            0.788343813391     0.674735722015     0.146096998085    12.000000000000
         C           -1.575049186609     0.504143722015     0.135682998085    12.000000000000
         C            3.159816813391     0.876902722015     0.285790998085    12.000000000000
         C            1.911277813391     1.457279722015     0.448353998085    12.000000000000
         C            1.890215613391    -1.039710177985    -0.406738201915    12.000000000000
         C            4.601335813391    -1.115455277985    -0.351605001915    12.000000000000
         C           -1.873872186609    -0.514206277985     1.040386998085    12.000000000000
         C           -2.451278186609     0.846693722015    -0.889927001915    12.000000000000
         C           -3.076763186609    -1.205681277985     0.901427998085    12.000000000000
         C           -3.655930186609     0.151180722015    -1.014314001915    12.000000000000
         C           -3.969587186609    -0.876632277985    -0.123020001915    12.000000000000
         H            4.057802813391     1.450817722015     0.509663998085     1.007825032230
         H            1.783317813391     2.477712722015     0.795700998085     1.007825032230
         H            2.087063813391    -2.150762277985    -0.781697001915     1.007825032230
         H            5.161518813391    -1.150093277985     0.588112998085     1.007825032230
         H            4.477644813391    -2.141698277985    -0.707958001915     1.007825032230
         H            5.212688813391    -0.576402277985    -1.082125001915     1.007825032230
         H           -1.172507186609    -0.755227277985     1.833718998085     1.007825032230
         H           -2.183045186609     1.651013722015    -1.569137001915     1.007825032230
         H           -3.319202186609    -2.003520277985     1.599263998085     1.007825032230
         H           -4.347451186609     0.413287722015    -1.811343001915     1.007825032230
         H           -4.906767186609    -1.418039277985    -0.223178001915     1.007825032230

  Basis Set: AUG-CC-PVTZ
    Blend: AUG-CC-PVTZ
  Basis Set: (AUG-CC-PVTZ AUX)
    Blend: AUG-CC-PVTZ-JKFIT
	 Reference Energy          =    -590.2727298554773370 [Eh]
	 Singles Energy            =      -0.0000000000000000 [Eh]
	 Same-Spin Energy          =      -0.6433191732269546 [Eh]
	 Opposite-Spin Energy      =      -1.9804645070114326 [Eh]
	 Correlation Energy        =      -2.6237836802383874 [Eh]
	 Total Energy              =    -592.8965135357157124 [Eh]

	 ================> DF-SCS-MP2 Energies <==================
	-----------------------------------------------------------
	 SCS Same-Spin Scale       =       0.3333333333333333 [-]
	 SCS Opposite-Spin Scale   =       1.2000000000000000 [-]
	 SCS Same-Spin Energy      =      -0.2144397244089849 [Eh]
	 SCS Opposite-Spin Energy  =      -2.3765574084137189 [Eh]
	 SCS Correlation Energy    =      -2.5909971328227037 [Eh]
	 SCS Total Energy          =    -592.8637269883000727 [Eh]
	-----------------------------------------------------------

  Dipole Moment: [D]
     X:     1.5932      Y:    -0.1414      Z:     0.1507     Total:     1.6066

*** Psi4 exiting successfully. Buy a developer a beer!
