                               Psi4 1.4a3.dev225

  ==> Input File <==

--------------------------------------------------------------------------
#psi4
#
memory 32 gb

molecule  {
0 1
  O       -0.4771680     1.3164760     0.3008390
  N        0.7985240    -0.5535590    -0.2772820
  C        3.2200150    -0.4235850    -0.1586420
  C        0.7425440     0.7008700     0.1517020
  C       -1.6208490     0.5302780     0.1412880
  C        3.1140170     0.9030370     0.2913960
  C        1.8654780     1.4834140     0.4539590
  C        2.0264240    -1.0936290    -0.4226860
  C        4.5555360    -1.0893210    -0.3460000
  C       -1.9196720    -0.4880720     1.0459920
  C       -2.4970780     0.8728280    -0.8843220
  C       -3.1225630    -1.1795470     0.9070330
  C       -3.7017300     0.1773150    -1.0087090
  C       -4.0153870    -0.8504980    -0.1174150
  H        3.9295418     1.4242499     0.4947109
  H        1.7375180     2.5038470     0.8013060
  H        2.0412640    -2.1246280    -0.7760920
  H        5.1157190    -1.1239590     0.5937180
  H        4.4318450    -2.1155640    -0.7023530
  H        5.1668890    -0.5502680    -1.0765200
  H       -1.2183070    -0.7290930     1.8393240
  H       -2.2288450     1.6771480    -1.5635320
  H       -3.3650020    -1.9773860     1.6048690
  H       -4.3932510     0.4394220    -1.8057380
  H       -4.9525670    -1.3919050    -0.2175730
units angstrom
no_reorient  #important for SAPT in psi4, default
symmetry c1  #important for SAPT in psi4, default
}

set PROPERTIES_ORIGIN ["COM"]
properties('MP2/aug-cc-pvtz', properties = ['dipole'])
--------------------------------------------------------------------------

    Molecular point group: c1
  Charge       = 0
  Multiplicity = 1
  Basis Set: AUG-CC-PVTZ
    Blend: AUG-CC-PVTZ
  Basis Set: (AUG-CC-PVTZ AUX)
    Blend: AUG-CC-PVTZ-JKFIT

    Orbital Energies [Eh]
    ---------------------

    Doubly Occupied:

       1A    -20.598231     2A    -15.563149     3A    -11.340139
       4A    -11.295465     5A    -11.276651     6A    -11.249644
       7A    -11.242386     8A    -11.240449     9A    -11.236602
      10A    -11.236502    11A    -11.232819    12A    -11.231914
      13A    -11.231173    14A    -11.230298    15A     -1.430406
      16A     -1.253090    17A     -1.145703    18A     -1.105231
      19A     -1.052862    20A     -1.015104    21A     -1.004047
      22A     -0.943214    23A     -0.883851    24A     -0.841817
      25A     -0.830410    26A     -0.805489    27A     -0.741595
      28A     -0.705471    29A     -0.679127    30A     -0.655351
      31A     -0.642910    32A     -0.626717    33A     -0.618066
      34A     -0.597368    35A     -0.592458    36A     -0.586084
      37A     -0.570109    38A     -0.567886    39A     -0.549776
      40A     -0.520682    41A     -0.513298    42A     -0.511526
      43A     -0.492560    44A     -0.477322    45A     -0.428441
      46A     -0.384107    47A     -0.335276    48A     -0.332041
      49A     -0.313231

  @DF-RHF Final Energy:  -590.32578492950199

   => Energetics <=

    Nuclear Repulsion Energy =            802.2937579335964529
    One-Electron Energy =               -2393.3229868597109089
    Two-Electron Energy =                1000.7034439966124637
    Total Energy =                       -590.3257849295019923
  Basis Set: (AUG-CC-PVTZ AUX)
    Blend: AUG-CC-PVTZ-RI
    Molecular point group: c1

    Geometry (in Angstrom), charge = 0, multiplicity = 1:

       Center              X                  Y                   Z               Mass
    ------------   -----------------  -----------------  -----------------  -----------------
         O           -0.442719741645     1.295818972048     0.296743326126    15.994914619570
         N            0.832972258355    -0.574216027952    -0.281377673874    14.003074004430
         C            3.254463258355    -0.444242027952    -0.162737673874    12.000000000000
         C            0.776992258355     0.680212972048     0.147606326126    12.000000000000
         C           -1.586400741645     0.509620972048     0.137192326126    12.000000000000
         C            3.148465258355     0.882379972048     0.287300326126    12.000000000000
         C            1.899926258355     1.462756972048     0.449863326126    12.000000000000
         C            2.060872258355    -1.114286027952    -0.426781673874    12.000000000000
         C            4.589984258355    -1.109978027952    -0.350095673874    12.000000000000
         C           -1.885223741645    -0.508729027952     1.041896326126    12.000000000000
         C           -2.462629741645     0.852170972048    -0.888417673874    12.000000000000
         C           -3.088114741645    -1.200204027952     0.902937326126    12.000000000000
         C           -3.667281741645     0.156657972048    -1.012804673874    12.000000000000
         C           -3.980938741645    -0.871155027952    -0.121510673874    12.000000000000
         H            3.963990058355     1.403592872048     0.490615226126     1.007825032230
         H            1.771966258355     2.483189972048     0.797210326126     1.007825032230
         H            2.075712258355    -2.145285027952    -0.780187673874     1.007825032230
         H            5.150167258355    -1.144616027952     0.589622326126     1.007825032230
         H            4.466293258355    -2.136221027952    -0.706448673874     1.007825032230
         H            5.201337258355    -0.570925027952    -1.080615673874     1.007825032230
         H           -1.183858741645    -0.749750027952     1.835228326126     1.007825032230
         H           -2.194396741645     1.656490972048    -1.567627673874     1.007825032230
         H           -3.330553741645    -1.998043027952     1.600773326126     1.007825032230
         H           -4.358802741645     0.418764972048    -1.809833673874     1.007825032230
         H           -4.918118741645    -1.412562027952    -0.221668673874     1.007825032230

  Basis Set: AUG-CC-PVTZ
    Blend: AUG-CC-PVTZ
  Basis Set: (AUG-CC-PVTZ AUX)
    Blend: AUG-CC-PVTZ-JKFIT
	 Reference Energy          =    -590.3257849295019923 [Eh]
	 Singles Energy            =      -0.0000000000000000 [Eh]
	 Same-Spin Energy          =      -0.6438489274466384 [Eh]
	 Opposite-Spin Energy      =      -1.9809947264490222 [Eh]
	 Correlation Energy        =      -2.6248436538956605 [Eh]
	 Total Energy              =    -592.9506285833977017 [Eh]

	 ================> DF-SCS-MP2 Energies <==================
	-----------------------------------------------------------
	 SCS Same-Spin Scale       =       0.3333333333333333 [-]
	 SCS Opposite-Spin Scale   =       1.2000000000000000 [-]
	 SCS Same-Spin Energy      =      -0.2146163091488794 [Eh]
	 SCS Opposite-Spin Energy  =      -2.3771936717388265 [Eh]
	 SCS Correlation Energy    =      -2.5918099808877058 [Eh]
	 SCS Total Energy          =    -592.9175949103896528 [Eh]
	-----------------------------------------------------------

  Dipole Moment: [D]
     X:     2.0456      Y:    -0.1701      Z:     0.1615     Total:     2.0590

*** Psi4 exiting successfully. Buy a developer a beer!
