                               Psi4 1.4a3.dev225

  ==> Input File <==

--------------------------------------------------------------------------
#psi4
#
memory 32 gb

molecule  {
0 1
  O       -0.4771680     1.3164760     0.3008390
  N        0.7985240    -0.5535590    -0.2772820
  C        3.2200150    -0.4235850    -0.1586420
  C        0.7425440     0.7008700     0.1517020
  C       -1.6208490     0.5302780     0.1412880
  C        3.1140170     0.9030370     0.2913960
  C        1.8654780     1.4834140     0.4539590
  C        2.0264240    -1.0936290    -0.4226860
  C        4.5555360    -1.0893210    -0.3460000
  C       -1.9196720    -0.4880720     1.0459920
  C       -2.4970780     0.8728280    -0.8843220
  C       -3.1225630    -1.1795470     0.9070330
  C       -3.7017300     0.1773150    -1.0087090
  C       -4.0153870    -0.8504980    -0.1174150
  H        4.0120030     1.4769520     0.5152690
  H        1.7375180     2.5038470     0.8013060
  H        2.0412640    -2.1246280    -0.7760920
  H        5.1157190    -1.1239590     0.5937180
  H        4.4318450    -2.1155640    -0.7023530
  H        5.1668890    -0.5502680    -1.0765200
  H       -1.2183070    -0.7290930     1.8393240
  H       -2.2288450     1.6771480    -1.5635320
  H       -3.3650020    -1.9773860     1.6048690
  H       -4.4059713     0.4442434    -1.8203991
  H       -4.9525670    -1.3919050    -0.2175730
units angstrom
no_reorient  #important for SAPT in psi4, default
symmetry c1  #important for SAPT in psi4, default
}

set PROPERTIES_ORIGIN ["COM"]
properties('MP2/aug-cc-pvtz', properties = ['dipole'])
--------------------------------------------------------------------------

    Molecular point group: c1
  Charge       = 0
  Multiplicity = 1
  Basis Set: AUG-CC-PVTZ
    Blend: AUG-CC-PVTZ
  Basis Set: (AUG-CC-PVTZ AUX)
    Blend: AUG-CC-PVTZ-JKFIT

    Orbital Energies [Eh]
    ---------------------

    Doubly Occupied:

       1A    -20.598655     2A    -15.563438     3A    -11.340765
       4A    -11.295793     5A    -11.277330     6A    -11.261460
       7A    -11.243245     8A    -11.241194     9A    -11.238987
      10A    -11.236824    11A    -11.232780    12A    -11.232150
      13A    -11.231542    14A    -11.230642    15A     -1.430804
      16A     -1.253508    17A     -1.145870    18A     -1.102652
      19A     -1.053041    20A     -1.014877    21A     -1.003714
      22A     -0.942946    23A     -0.877723    24A     -0.841752
      25A     -0.830256    26A     -0.800556    27A     -0.735993
      28A     -0.704712    29A     -0.679245    30A     -0.655565
      31A     -0.643205    32A     -0.625330    33A     -0.610905
      34A     -0.594592    35A     -0.591704    36A     -0.585478
      37A     -0.569733    38A     -0.563360    39A     -0.549608
      40A     -0.521151    41A     -0.512946    42A     -0.511739
      43A     -0.492640    44A     -0.477275    45A     -0.428247
      46A     -0.384488    47A     -0.335534    48A     -0.332437
      49A     -0.313651

  @DF-RHF Final Energy:  -590.33091868544841

   => Energetics <=

    Nuclear Repulsion Energy =            801.6128964910044488
    One-Electron Energy =               -2392.0035489500728545
    Two-Electron Energy =                1000.0597337736199961
    Total Energy =                       -590.3309186854484096
  Basis Set: (AUG-CC-PVTZ AUX)
    Blend: AUG-CC-PVTZ-RI
    Molecular point group: c1

    Geometry (in Angstrom), charge = 0, multiplicity = 1:

       Center              X                  Y                   Z               Mass
    ------------   -----------------  -----------------  -----------------  -----------------
         O           -0.443099496785     1.295505743443     0.296711215613    15.994914619570
         N            0.832592503215    -0.574529256557    -0.281409784387    14.003074004430
         C            3.254083503215    -0.444555256557    -0.162769784387    12.000000000000
         C            0.776612503215     0.679899743443     0.147574215613    12.000000000000
         C           -1.586780496785     0.509307743443     0.137160215613    12.000000000000
         C            3.148085503215     0.882066743443     0.287268215613    12.000000000000
         C            1.899546503215     1.462443743443     0.449831215613    12.000000000000
         C            2.060492503215    -1.114599256557    -0.426813784387    12.000000000000
         C            4.589604503215    -1.110291256557    -0.350127784387    12.000000000000
         C           -1.885603496785    -0.509042256557     1.041864215613    12.000000000000
         C           -2.463009496785     0.851857743443    -0.888449784387    12.000000000000
         C           -3.088494496785    -1.200517256557     0.902905215613    12.000000000000
         C           -3.667661496785     0.156344743443    -1.012836784387    12.000000000000
         C           -3.981318496785    -0.871468256557    -0.121542784387    12.000000000000
         H            4.046071503215     1.455981743443     0.511141215613     1.007825032230
         H            1.771586503215     2.482876743443     0.797178215613     1.007825032230
         H            2.075332503215    -2.145598256557    -0.780219784387     1.007825032230
         H            5.149787503215    -1.144929256557     0.589590215613     1.007825032230
         H            4.465913503215    -2.136534256557    -0.706480784387     1.007825032230
         H            5.200957503215    -0.571238256557    -1.080647784387     1.007825032230
         H           -1.184238496785    -0.750063256557     1.835196215613     1.007825032230
         H           -2.194776496785     1.656177743443    -1.567659784387     1.007825032230
         H           -3.330933496785    -1.998356256557     1.600741215613     1.007825032230
         H           -4.371902796785     0.423273143443    -1.824526884387     1.007825032230
         H           -4.918498496785    -1.412875256557    -0.221700784387     1.007825032230

  Basis Set: AUG-CC-PVTZ
    Blend: AUG-CC-PVTZ
  Basis Set: (AUG-CC-PVTZ AUX)
    Blend: AUG-CC-PVTZ-JKFIT
	 Reference Energy          =    -590.3309186854484096 [Eh]
	 Singles Energy            =      -0.0000000000000000 [Eh]
	 Same-Spin Energy          =      -0.6440360872227766 [Eh]
	 Opposite-Spin Energy      =      -1.9816363111530226 [Eh]
	 Correlation Energy        =      -2.6256723983757992 [Eh]
	 Total Energy              =    -592.9565910838242644 [Eh]

	 ================> DF-SCS-MP2 Energies <==================
	-----------------------------------------------------------
	 SCS Same-Spin Scale       =       0.3333333333333333 [-]
	 SCS Opposite-Spin Scale   =       1.2000000000000000 [-]
	 SCS Same-Spin Energy      =      -0.2146786957409255 [Eh]
	 SCS Opposite-Spin Energy  =      -2.3779635733836271 [Eh]
	 SCS Correlation Energy    =      -2.5926422691245525 [Eh]
	 SCS Total Energy          =    -592.9235609545729631 [Eh]
	-----------------------------------------------------------

  Dipole Moment: [D]
     X:     2.0239      Y:    -0.1858      Z:     0.1620     Total:     2.0388

*** Psi4 exiting successfully. Buy a developer a beer!
