                               Psi4 1.4a3.dev225

  ==> Input File <==

--------------------------------------------------------------------------
#psi4
#
memory 32 gb

molecule  {
0 1
  O       -0.4771680     1.3164760     0.3008390
  N        0.7985240    -0.5535590    -0.2772820
  C        3.2200150    -0.4235850    -0.1586420
  C        0.7425440     0.7008700     0.1517020
  C       -1.6208490     0.5302780     0.1412880
  C        3.1140170     0.9030370     0.2913960
  C        1.8654780     1.4834140     0.4539590
  C        2.0264240    -1.0936290    -0.4226860
  C        4.5555360    -1.0893210    -0.3460000
  C       -1.9196720    -0.4880720     1.0459920
  C       -2.4970780     0.8728280    -0.8843220
  C       -3.1225630    -1.1795470     0.9070330
  C       -3.7017300     0.1773150    -1.0087090
  C       -4.0153870    -0.8504980    -0.1174150
  H        4.0120030     1.4769520     0.5152690
  H        1.7375180     2.5038470     0.8013060
  H        2.0412640    -2.1246280    -0.7760920
  H        5.0133619    -1.1176299     0.4220120
  H        4.4318450    -2.1155640    -0.7023530
  H        5.1668890    -0.5502680    -1.0765200
  H       -1.2183070    -0.7290930     1.8393240
  H       -2.2288450     1.6771480    -1.5635320
  H       -3.3650020    -1.9773860     1.6048690
  H       -4.3932510     0.4394220    -1.8057380
  H       -4.9525670    -1.3919050    -0.2175730
units angstrom
no_reorient  #important for SAPT in psi4, default
symmetry c1  #important for SAPT in psi4, default
}

set PROPERTIES_ORIGIN ["COM"]
properties('MP2/aug-cc-pvtz', properties = ['dipole'])
--------------------------------------------------------------------------

    Molecular point group: c1
  Charge       = 0
  Multiplicity = 1
  Basis Set: AUG-CC-PVTZ
    Blend: AUG-CC-PVTZ
  Basis Set: (AUG-CC-PVTZ AUX)
    Blend: AUG-CC-PVTZ-JKFIT

    Orbital Energies [Eh]
    ---------------------

    Doubly Occupied:

       1A    -20.598150     2A    -15.562929     3A    -11.340154
       4A    -11.295414     5A    -11.276503     6A    -11.261084
       7A    -11.242082     8A    -11.240747     9A    -11.236537
      10A    -11.236437    11A    -11.231851    12A    -11.231104
      13A    -11.230237    14A    -11.208137    15A     -1.430330
      16A     -1.252970    17A     -1.145645    18A     -1.105089
      19A     -1.055631    20A     -1.015111    21A     -1.006373
      22A     -0.959175    23A     -0.877432    24A     -0.845355
      25A     -0.831073    26A     -0.801705    27A     -0.736516
      28A     -0.705684    29A     -0.678905    30A     -0.655607
      31A     -0.646126    32A     -0.626371    33A     -0.617460
      34A     -0.609392    35A     -0.594307    36A     -0.588500
      37A     -0.573185    38A     -0.563663    39A     -0.553145
      40A     -0.520028    41A     -0.514067    42A     -0.511688
      43A     -0.492488    44A     -0.478130    45A     -0.427888
      46A     -0.384475    47A     -0.335234    48A     -0.332353
      49A     -0.313625

  @DF-RHF Final Energy:  -590.29768916762919

   => Energetics <=

    Nuclear Repulsion Energy =            802.7322219778411636
    One-Electron Energy =               -2394.1076350153848580
    Two-Electron Energy =                1001.0777238699145073
    Total Energy =                       -590.2976891676291871
  Basis Set: (AUG-CC-PVTZ AUX)
    Blend: AUG-CC-PVTZ-RI
    Molecular point group: c1

    Geometry (in Angstrom), charge = 0, multiplicity = 1:

       Center              X                  Y                   Z               Mass
    ------------   -----------------  -----------------  -----------------  -----------------
         O           -0.442611403922     1.295497533672     0.297566360989    15.994914619570
         N            0.833080596078    -0.574537466328    -0.280554639011    14.003074004430
         C            3.254571596078    -0.444563466328    -0.161914639011    12.000000000000
         C            0.777100596078     0.679891533672     0.148429360989    12.000000000000
         C           -1.586292403922     0.509299533672     0.138015360989    12.000000000000
         C            3.148573596078     0.882058533672     0.288123360989    12.000000000000
         C            1.900034596078     1.462435533672     0.450686360989    12.000000000000
         C            2.060980596078    -1.114607466328    -0.425958639011    12.000000000000
         C            4.590092596078    -1.110299466328    -0.349272639011    12.000000000000
         C           -1.885115403922    -0.509050466328     1.042719360989    12.000000000000
         C           -2.462521403922     0.851849533672    -0.887594639011    12.000000000000
         C           -3.088006403922    -1.200525466328     0.903760360989    12.000000000000
         C           -3.667173403922     0.156336533672    -1.011981639011    12.000000000000
         C           -3.980830403922    -0.871476466328    -0.120687639011    12.000000000000
         H            4.046559596078     1.455973533672     0.511996360989     1.007825032230
         H            1.772074596078     2.482868533672     0.798033360989     1.007825032230
         H            2.075820596078    -2.145606466328    -0.779364639011     1.007825032230
         H            5.047918496078    -1.138608366328     0.418739360989     1.007825032230
         H            4.466401596078    -2.136542466328    -0.705625639011     1.007825032230
         H            5.201445596078    -0.571246466328    -1.079792639011     1.007825032230
         H           -1.183750403922    -0.750071466328     1.836051360989     1.007825032230
         H           -2.194288403922     1.656169533672    -1.566804639011     1.007825032230
         H           -3.330445403922    -1.998364466328     1.601596360989     1.007825032230
         H           -4.358694403922     0.418443533672    -1.809010639011     1.007825032230
         H           -4.918010403922    -1.412883466328    -0.220845639011     1.007825032230

  Basis Set: AUG-CC-PVTZ
    Blend: AUG-CC-PVTZ
  Basis Set: (AUG-CC-PVTZ AUX)
    Blend: AUG-CC-PVTZ-JKFIT
	 Reference Energy          =    -590.2976891676291871 [Eh]
	 Singles Energy            =      -0.0000000000000000 [Eh]
	 Same-Spin Energy          =      -0.6441544391498047 [Eh]
	 Opposite-Spin Energy      =      -1.9809067509056180 [Eh]
	 Correlation Energy        =      -2.6250611900554226 [Eh]
	 Total Energy              =    -592.9227503576846630 [Eh]

	 ================> DF-SCS-MP2 Energies <==================
	-----------------------------------------------------------
	 SCS Same-Spin Scale       =       0.3333333333333333 [-]
	 SCS Opposite-Spin Scale   =       1.2000000000000000 [-]
	 SCS Same-Spin Energy      =      -0.2147181463832682 [Eh]
	 SCS Opposite-Spin Energy  =      -2.3770881010867413 [Eh]
	 SCS Correlation Energy    =      -2.5918062474700094 [Eh]
	 SCS Total Energy          =    -592.8894954150991907 [Eh]
	-----------------------------------------------------------

  Dipole Moment: [D]
     X:     2.0842      Y:    -0.2014      Z:     0.1880     Total:     2.1023

*** Psi4 exiting successfully. Buy a developer a beer!
