                               Psi4 1.4a3.dev225

  ==> Input File <==

--------------------------------------------------------------------------
#psi4
#
memory 32 gb

molecule  {
0 1
  O       -0.4771680     1.3164760     0.3008390
  N        0.7985240    -0.5535590    -0.2772820
  C        3.2200150    -0.4235850    -0.1586420
  C        0.7425440     0.7008700     0.1517020
  C       -1.6208490     0.5302780     0.1412880
  C        3.1140170     0.9030370     0.2913960
  C        1.8654780     1.4834140     0.4539590
  C        2.0264240    -1.0936290    -0.4226860
  C        4.5555360    -1.0893210    -0.3460000
  C       -1.9196720    -0.4880720     1.0459920
  C       -2.4970780     0.8728280    -0.8843220
  C       -3.1225630    -1.1795470     0.9070330
  C       -3.6844784     0.1872753    -1.0069277
  C       -4.0153870    -0.8504980    -0.1174150
  H        4.0120030     1.4769520     0.5152690
  H        1.7375180     2.5038470     0.8013060
  H        2.0412640    -2.1246280    -0.7760920
  H        5.1157190    -1.1239590     0.5937180
  H        4.4318450    -2.1155640    -0.7023530
  H        5.1668890    -0.5502680    -1.0765200
  H       -1.2183070    -0.7290930     1.8393240
  H       -2.2288450     1.6771480    -1.5635320
  H       -3.3650020    -1.9773860     1.6048690
  H       -4.3932510     0.4394220    -1.8057380
  H       -4.9525670    -1.3919050    -0.2175730
units angstrom
no_reorient  #important for SAPT in psi4, default
symmetry c1  #important for SAPT in psi4, default
}

set PROPERTIES_ORIGIN ["COM"]
properties('MP2/aug-cc-pvtz', properties = ['dipole'])
--------------------------------------------------------------------------

    Molecular point group: c1
  Charge       = 0
  Multiplicity = 1
  Basis Set: AUG-CC-PVTZ
    Blend: AUG-CC-PVTZ
  Basis Set: (AUG-CC-PVTZ AUX)
    Blend: AUG-CC-PVTZ-JKFIT

    Orbital Energies [Eh]
    ---------------------

    Doubly Occupied:

       1A    -20.598650     2A    -15.563390     3A    -11.340768
       4A    -11.295809     5A    -11.277311     6A    -11.261445
       7A    -11.243223     8A    -11.241178     9A    -11.236575
      10A    -11.236392    11A    -11.232767    12A    -11.231603
      13A    -11.231181    14A    -11.229426    15A     -1.430809
      16A     -1.253490    17A     -1.146920    18A     -1.102633
      19A     -1.052852    20A     -1.017529    21A     -1.002541
      22A     -0.942962    23A     -0.877855    24A     -0.842281
      25A     -0.829346    26A     -0.801489    27A     -0.736535
      28A     -0.704770    29A     -0.679515    30A     -0.656132
      31A     -0.643202    32A     -0.625351    33A     -0.610772
      34A     -0.594345    35A     -0.591456    36A     -0.586916
      37A     -0.570216    38A     -0.563273    39A     -0.549658
      40A     -0.521242    41A     -0.514563    42A     -0.511761
      43A     -0.492528    44A     -0.476400    45A     -0.428246
      46A     -0.384475    47A     -0.337765    48A     -0.331662
      49A     -0.312707

  @DF-RHF Final Energy:  -590.33107897467619

   => Energetics <=

    Nuclear Repulsion Energy =            801.9837290322499257
    One-Electron Energy =               -2392.7417853064739575
    Two-Electron Energy =                1000.4269772995479570
    Total Energy =                       -590.3310789746761884
  Basis Set: (AUG-CC-PVTZ AUX)
    Blend: AUG-CC-PVTZ-RI
    Molecular point group: c1

    Geometry (in Angstrom), charge = 0, multiplicity = 1:

       Center              X                  Y                   Z               Mass
    ------------   -----------------  -----------------  -----------------  -----------------
         O           -0.444287276176     1.294886216997     0.296515891268    15.994914619570
         N            0.831404723824    -0.575148783003    -0.281605108732    14.003074004430
         C            3.252895723824    -0.445174783003    -0.162965108732    12.000000000000
         C            0.775424723824     0.679280216997     0.147378891268    12.000000000000
         C           -1.587968276176     0.508688216997     0.136964891268    12.000000000000
         C            3.146897723824     0.881447216997     0.287072891268    12.000000000000
         C            1.898358723824     1.461824216997     0.449635891268    12.000000000000
         C            2.059304723824    -1.115218783003    -0.427009108732    12.000000000000
         C            4.588416723824    -1.110910783003    -0.350323108732    12.000000000000
         C           -1.886791276176    -0.509661783003     1.041668891268    12.000000000000
         C           -2.464197276176     0.851238216997    -0.888645108732    12.000000000000
         C           -3.089682276176    -1.201136783003     0.902709891268    12.000000000000
         C           -3.651597676176     0.165685516997    -1.011250808732    12.000000000000
         C           -3.982506276176    -0.872087783003    -0.121738108732    12.000000000000
         H            4.044883723824     1.455362216997     0.510945891268     1.007825032230
         H            1.770398723824     2.482257216997     0.796982891268     1.007825032230
         H            2.074144723824    -2.146217783003    -0.780415108732     1.007825032230
         H            5.148599723824    -1.145548783003     0.589394891268     1.007825032230
         H            4.464725723824    -2.137153783003    -0.706676108732     1.007825032230
         H            5.199769723824    -0.571857783003    -1.080843108732     1.007825032230
         H           -1.185426276176    -0.750682783003     1.835000891268     1.007825032230
         H           -2.195964276176     1.655558216997    -1.567855108732     1.007825032230
         H           -3.332121276176    -1.998975783003     1.600545891268     1.007825032230
         H           -4.360370276176     0.417832216997    -1.810061108732     1.007825032230
         H           -4.919686276176    -1.413494783003    -0.221896108732     1.007825032230

  Basis Set: AUG-CC-PVTZ
    Blend: AUG-CC-PVTZ
  Basis Set: (AUG-CC-PVTZ AUX)
    Blend: AUG-CC-PVTZ-JKFIT
	 Reference Energy          =    -590.3310789746761884 [Eh]
	 Singles Energy            =      -0.0000000000000000 [Eh]
	 Same-Spin Energy          =      -0.6440366969676364 [Eh]
	 Opposite-Spin Energy      =      -1.9814724893549631 [Eh]
	 Correlation Energy        =      -2.6255091863225997 [Eh]
	 Total Energy              =    -592.9565881609987628 [Eh]

	 ================> DF-SCS-MP2 Energies <==================
	-----------------------------------------------------------
	 SCS Same-Spin Scale       =       0.3333333333333333 [-]
	 SCS Opposite-Spin Scale   =       1.2000000000000000 [-]
	 SCS Same-Spin Energy      =      -0.2146788989892121 [Eh]
	 SCS Opposite-Spin Energy  =      -2.3777669872259555 [Eh]
	 SCS Correlation Energy    =      -2.5924458862151676 [Eh]
	 SCS Total Energy          =    -592.9235248608913480 [Eh]
	-----------------------------------------------------------

  Dipole Moment: [D]
     X:     2.0193      Y:    -0.1834      Z:     0.1590     Total:     2.0338

*** Psi4 exiting successfully. Buy a developer a beer!
