                               Psi4 1.4a3.dev225

  ==> Input File <==

--------------------------------------------------------------------------
#psi4
#
memory 32 gb

molecule  {
0 1
  O       -0.4771680     1.3164760     0.3008390
  N        0.7985240    -0.5535590    -0.2772820
  C        3.2200150    -0.4235850    -0.1586420
  C        0.7425440     0.7008700     0.1517020
  C       -1.6208490     0.5302780     0.1412880
  C        3.1140170     0.9030370     0.2913960
  C        1.8654780     1.4834140     0.4539590
  C        2.2084322    -1.1736821    -0.4442388
  C        4.5555360    -1.0893210    -0.3460000
  C       -1.9196720    -0.4880720     1.0459920
  C       -2.4970780     0.8728280    -0.8843220
  C       -3.1225630    -1.1795470     0.9070330
  C       -3.7017300     0.1773150    -1.0087090
  C       -4.0153870    -0.8504980    -0.1174150
  H        4.0120030     1.4769520     0.5152690
  H        1.7375180     2.5038470     0.8013060
  H        2.0412640    -2.1246280    -0.7760920
  H        5.1157190    -1.1239590     0.5937180
  H        4.4318450    -2.1155640    -0.7023530
  H        5.1668890    -0.5502680    -1.0765200
  H       -1.2183070    -0.7290930     1.8393240
  H       -2.2288450     1.6771480    -1.5635320
  H       -3.3650020    -1.9773860     1.6048690
  H       -4.3932510     0.4394220    -1.8057380
  H       -4.9525670    -1.3919050    -0.2175730
units angstrom
no_reorient  #important for SAPT in psi4, default
symmetry c1  #important for SAPT in psi4, default
}

set PROPERTIES_ORIGIN ["COM"]
properties('MP2/aug-cc-pvtz', properties = ['dipole'])
--------------------------------------------------------------------------

    Molecular point group: c1
  Charge       = 0
  Multiplicity = 1
  Basis Set: AUG-CC-PVTZ
    Blend: AUG-CC-PVTZ
  Basis Set: (AUG-CC-PVTZ AUX)
    Blend: AUG-CC-PVTZ-JKFIT

    Orbital Energies [Eh]
    ---------------------

    Doubly Occupied:

       1A    -20.597646     2A    -15.561292     3A    -11.338018
       4A    -11.294053     5A    -11.269916     6A    -11.267132
       7A    -11.250015     8A    -11.239094     9A    -11.234921
      10A    -11.234754    11A    -11.231522    12A    -11.230147
      13A    -11.229702    14A    -11.228762    15A     -1.428787
      16A     -1.216754    17A     -1.143876    18A     -1.104809
      19A     -1.058050    20A     -1.013371    21A     -1.004500
      22A     -0.941228    23A     -0.891889    24A     -0.838017
      25A     -0.828437    26A     -0.793519    27A     -0.738048
      28A     -0.695070    29A     -0.679229    30A     -0.653820
      31A     -0.649432    32A     -0.638349    33A     -0.612041
      34A     -0.598142    35A     -0.591966    36A     -0.585730
      37A     -0.566874    38A     -0.563418    39A     -0.543702
      40A     -0.516135    41A     -0.509006    42A     -0.504748
      43A     -0.488467    44A     -0.473550    45A     -0.417794
      46A     -0.367254    47A     -0.349554    48A     -0.332978
      49A     -0.318649

  @DF-RHF Final Energy:  -590.28890087327068

   => Energetics <=

    Nuclear Repulsion Energy =            799.4863635188066837
    One-Electron Energy =               -2387.8221937160888046
    Two-Electron Energy =                 998.0469293240114439
    Total Energy =                       -590.2889008732706770
  Basis Set: (AUG-CC-PVTZ AUX)
    Blend: AUG-CC-PVTZ-RI
    Molecular point group: c1

    Geometry (in Angstrom), charge = 0, multiplicity = 1:

       Center              X                  Y                   Z               Mass
    ------------   -----------------  -----------------  -----------------  -----------------
         O           -0.454969336844     1.300722272121     0.298028767061    15.994914619570
         N            0.820722663156    -0.569312727879    -0.280092232939    14.003074004430
         C            3.242213663156    -0.439338727879    -0.161452232939    12.000000000000
         C            0.764742663156     0.685116272121     0.148891767061    12.000000000000
         C           -1.598650336844     0.514524272121     0.138477767061    12.000000000000
         C            3.136215663156     0.887283272121     0.288585767061    12.000000000000
         C            1.887676663156     1.467660272121     0.451148767061    12.000000000000
         C            2.230630863156    -1.189435827879    -0.447049032939    12.000000000000
         C            4.577734663156    -1.105074727879    -0.348810232939    12.000000000000
         C           -1.897473336844    -0.503825727879     1.043181767061    12.000000000000
         C           -2.474879336844     0.857074272121    -0.887132232939    12.000000000000
         C           -3.100364336844    -1.195300727879     0.904222767061    12.000000000000
         C           -3.679531336844     0.161561272121    -1.011519232939    12.000000000000
         C           -3.993188336844    -0.866251727879    -0.120225232939    12.000000000000
         H            4.034201663156     1.461198272121     0.512458767061     1.007825032230
         H            1.759716663156     2.488093272121     0.798495767061     1.007825032230
         H            2.063462663156    -2.140381727879    -0.778902232939     1.007825032230
         H            5.137917663156    -1.139712727879     0.590907767061     1.007825032230
         H            4.454043663156    -2.131317727879    -0.705163232939     1.007825032230
         H            5.189087663156    -0.566021727879    -1.079330232939     1.007825032230
         H           -1.196108336844    -0.744846727879     1.836513767061     1.007825032230
         H           -2.206646336844     1.661394272121    -1.566342232939     1.007825032230
         H           -3.342803336844    -1.993139727879     1.602058767061     1.007825032230
         H           -4.371052336844     0.423668272121    -1.808548232939     1.007825032230
         H           -4.930368336844    -1.407658727879    -0.220383232939     1.007825032230

  Basis Set: AUG-CC-PVTZ
    Blend: AUG-CC-PVTZ
  Basis Set: (AUG-CC-PVTZ AUX)
    Blend: AUG-CC-PVTZ-JKFIT
	 Reference Energy          =    -590.2889008732706770 [Eh]
	 Singles Energy            =      -0.0000000000000000 [Eh]
	 Same-Spin Energy          =      -0.6436618341864712 [Eh]
	 Opposite-Spin Energy      =      -1.9862811855311007 [Eh]
	 Correlation Energy        =      -2.6299430197175719 [Eh]
	 Total Energy              =    -592.9188438929882068 [Eh]

	 ================> DF-SCS-MP2 Energies <==================
	-----------------------------------------------------------
	 SCS Same-Spin Scale       =       0.3333333333333333 [-]
	 SCS Opposite-Spin Scale   =       1.2000000000000000 [-]
	 SCS Same-Spin Energy      =      -0.2145539447288237 [Eh]
	 SCS Opposite-Spin Energy  =      -2.3835374226373207 [Eh]
	 SCS Correlation Energy    =      -2.5980913673661443 [Eh]
	 SCS Total Energy          =    -592.8869922406368005 [Eh]
	-----------------------------------------------------------

  Dipole Moment: [D]
     X:     2.2206      Y:    -0.1685      Z:     0.1738     Total:     2.2338

*** Psi4 exiting successfully. Buy a developer a beer!
