                               Psi4 1.4a3.dev225

  ==> Input File <==

--------------------------------------------------------------------------
#psi4
#
memory 32 gb

molecule  {
0 1
  O       -0.4771680     1.3164760     0.3008390
  N        0.7985240    -0.5535590    -0.2772820
  C        3.2315673    -0.4167632    -0.1078895
  C        0.7425440     0.7008700     0.1517020
  C       -1.6208490     0.5302780     0.1412880
  C        3.1140170     0.9030370     0.2913960
  C        1.8654780     1.4834140     0.4539590
  C        2.0264240    -1.0936290    -0.4226860
  C        4.5555360    -1.0893210    -0.3460000
  C       -1.9196720    -0.4880720     1.0459920
  C       -2.4970780     0.8728280    -0.8843220
  C       -3.1225630    -1.1795470     0.9070330
  C       -3.7017300     0.1773150    -1.0087090
  C       -4.0153870    -0.8504980    -0.1174150
  H        4.0120030     1.4769520     0.5152690
  H        1.7375180     2.5038470     0.8013060
  H        2.0412640    -2.1246280    -0.7760920
  H        5.1157190    -1.1239590     0.5937180
  H        4.4318450    -2.1155640    -0.7023530
  H        5.1668890    -0.5502680    -1.0765200
  H       -1.2183070    -0.7290930     1.8393240
  H       -2.2288450     1.6771480    -1.5635320
  H       -3.3650020    -1.9773860     1.6048690
  H       -4.3932510     0.4394220    -1.8057380
  H       -4.9525670    -1.3919050    -0.2175730
units angstrom
no_reorient  #important for SAPT in psi4, default
symmetry c1  #important for SAPT in psi4, default
}

set PROPERTIES_ORIGIN ["COM"]
properties('MP2/aug-cc-pvtz', properties = ['dipole'])
--------------------------------------------------------------------------

    Molecular point group: c1
  Charge       = 0
  Multiplicity = 1
  Basis Set: AUG-CC-PVTZ
    Blend: AUG-CC-PVTZ
  Basis Set: (AUG-CC-PVTZ AUX)
    Blend: AUG-CC-PVTZ-JKFIT

    Orbital Energies [Eh]
    ---------------------

    Doubly Occupied:

       1A    -20.598032     2A    -15.564690     3A    -11.339982
       4A    -11.295561     5A    -11.281511     6A    -11.258430
       7A    -11.243888     8A    -11.240099     9A    -11.236740
      10A    -11.236639    11A    -11.232938    12A    -11.232030
      13A    -11.231242    14A    -11.230403    15A     -1.430317
      16A     -1.253584    17A     -1.145798    18A     -1.104937
      19A     -1.051412    20A     -1.015227    21A     -1.003524
      22A     -0.942529    23A     -0.877233    24A     -0.842873
      25A     -0.830976    26A     -0.799753    27A     -0.736770
      28A     -0.704177    29A     -0.679255    30A     -0.655337
      31A     -0.643799    32A     -0.626501    33A     -0.610657
      34A     -0.594320    35A     -0.592128    36A     -0.586241
      37A     -0.570178    38A     -0.560765    39A     -0.548638
      40A     -0.526263    41A     -0.513453    42A     -0.511757
      43A     -0.492582    44A     -0.477261    45A     -0.427143
      46A     -0.386399    47A     -0.335341    48A     -0.331554
      49A     -0.311958

  @DF-RHF Final Energy:  -590.32961136653989

   => Energetics <=

    Nuclear Repulsion Energy =            801.6428036051398749
    One-Electron Energy =               -2392.0591846296933909
    Two-Electron Energy =                1000.0867696580137363
    Total Energy =                       -590.3296113665398934
  Basis Set: (AUG-CC-PVTZ AUX)
    Blend: AUG-CC-PVTZ-RI
    Molecular point group: c1

    Geometry (in Angstrom), charge = 0, multiplicity = 1:

       Center              X                  Y                   Z               Mass
    ------------   -----------------  -----------------  -----------------  -----------------
         O           -0.443917759760     1.295089702911     0.293340823748    15.994914619570
         N            0.831774240240    -0.574945297089    -0.284780176252    14.003074004430
         C            3.264817540240    -0.438149497089    -0.115387676252    12.000000000000
         C            0.775794240240     0.679483702911     0.144203823748    12.000000000000
         C           -1.587598759760     0.508891702911     0.133789823748    12.000000000000
         C            3.147267240240     0.881650702911     0.283897823748    12.000000000000
         C            1.898728240240     1.462027702911     0.446460823748    12.000000000000
         C            2.059674240240    -1.115015297089    -0.430184176252    12.000000000000
         C            4.588786240240    -1.110707297089    -0.353498176252    12.000000000000
         C           -1.886421759760    -0.509458297089     1.038493823748    12.000000000000
         C           -2.463827759760     0.851441702911    -0.891820176252    12.000000000000
         C           -3.089312759760    -1.200933297089     0.899534823748    12.000000000000
         C           -3.668479759760     0.155928702911    -1.016207176252    12.000000000000
         C           -3.982136759760    -0.871884297089    -0.124913176252    12.000000000000
         H            4.045253240240     1.455565702911     0.507770823748     1.007825032230
         H            1.770768240240     2.482460702911     0.793807823748     1.007825032230
         H            2.074514240240    -2.146014297089    -0.783590176252     1.007825032230
         H            5.148969240240    -1.145345297089     0.586219823748     1.007825032230
         H            4.465095240240    -2.136950297089    -0.709851176252     1.007825032230
         H            5.200139240240    -0.571654297089    -1.084018176252     1.007825032230
         H           -1.185056759760    -0.750479297089     1.831825823748     1.007825032230
         H           -2.195594759760     1.655761702911    -1.571030176252     1.007825032230
         H           -3.331751759760    -1.998772297089     1.597370823748     1.007825032230
         H           -4.360000759760     0.418035702911    -1.813236176252     1.007825032230
         H           -4.919316759760    -1.413291297089    -0.225071176252     1.007825032230

  Basis Set: AUG-CC-PVTZ
    Blend: AUG-CC-PVTZ
  Basis Set: (AUG-CC-PVTZ AUX)
    Blend: AUG-CC-PVTZ-JKFIT
	 Reference Energy          =    -590.3296113665398934 [Eh]
	 Singles Energy            =      -0.0000000000000000 [Eh]
	 Same-Spin Energy          =      -0.6442553840898597 [Eh]
	 Opposite-Spin Energy      =      -1.9817816595466786 [Eh]
	 Correlation Energy        =      -2.6260370436365381 [Eh]
	 Total Energy              =    -592.9556484101764227 [Eh]

	 ================> DF-SCS-MP2 Energies <==================
	-----------------------------------------------------------
	 SCS Same-Spin Scale       =       0.3333333333333333 [-]
	 SCS Opposite-Spin Scale   =       1.2000000000000000 [-]
	 SCS Same-Spin Energy      =      -0.2147517946966199 [Eh]
	 SCS Opposite-Spin Energy  =      -2.3781379914560143 [Eh]
	 SCS Correlation Energy    =      -2.5928897861526341 [Eh]
	 SCS Total Energy          =    -592.9225011526925755 [Eh]
	-----------------------------------------------------------

  Dipole Moment: [D]
     X:     2.0186      Y:    -0.2142      Z:     0.1307     Total:     2.0341

*** Psi4 exiting successfully. Buy a developer a beer!
