                               Psi4 1.4a3.dev225

  ==> Input File <==

--------------------------------------------------------------------------
#psi4
#
memory 32 gb

molecule  {
0 1
  O       -0.4771680     1.3164760     0.3008390
  N        0.7985240    -0.5535590    -0.2772820
  C        3.2200150    -0.4235850    -0.1586420
  C        0.7425440     0.7008700     0.1517020
  C       -1.6208490     0.5302780     0.1412880
  C        3.1140170     0.9030370     0.2913960
  C        1.8654780     1.4834140     0.4539590
  C        2.0264240    -1.0936290    -0.4226860
  C        4.5555360    -1.0893210    -0.3460000
  C       -1.9196720    -0.4880720     1.0459920
  C       -2.5389374     0.9507786    -1.0006855
  C       -3.1225630    -1.1795470     0.9070330
  C       -3.7017300     0.1773150    -1.0087090
  C       -4.0153870    -0.8504980    -0.1174150
  H        4.0120030     1.4769520     0.5152690
  H        1.7375180     2.5038470     0.8013060
  H        2.0412640    -2.1246280    -0.7760920
  H        5.1157190    -1.1239590     0.5937180
  H        4.4318450    -2.1155640    -0.7023530
  H        5.1668890    -0.5502680    -1.0765200
  H       -1.2183070    -0.7290930     1.8393240
  H       -2.2288450     1.6771480    -1.5635320
  H       -3.3650020    -1.9773860     1.6048690
  H       -4.3932510     0.4394220    -1.8057380
  H       -4.9525670    -1.3919050    -0.2175730
units angstrom
no_reorient  #important for SAPT in psi4, default
symmetry c1  #important for SAPT in psi4, default
}

set PROPERTIES_ORIGIN ["COM"]
properties('MP2/aug-cc-pvtz', properties = ['dipole'])
--------------------------------------------------------------------------

    Molecular point group: c1
  Charge       = 0
  Multiplicity = 1
  Basis Set: AUG-CC-PVTZ
    Blend: AUG-CC-PVTZ
  Basis Set: (AUG-CC-PVTZ AUX)
    Blend: AUG-CC-PVTZ-JKFIT

    Orbital Energies [Eh]
    ---------------------

    Doubly Occupied:

       1A    -20.599229     2A    -15.563213     3A    -11.340821
       4A    -11.309545     5A    -11.277277     6A    -11.261462
       7A    -11.243250     8A    -11.241259     9A    -11.240256
      10A    -11.239436    11A    -11.236706    12A    -11.232799
      13A    -11.230834    14A    -11.230099    15A     -1.430701
      16A     -1.253214    17A     -1.136080    18A     -1.102640
      19A     -1.052155    20A     -1.018897    21A     -0.994966
      22A     -0.942598    23A     -0.878650    24A     -0.839962
      25A     -0.837997    26A     -0.797053    27A     -0.731030
      28A     -0.706897    29A     -0.694468    30A     -0.653643
      31A     -0.644600    32A     -0.629191    33A     -0.611175
      34A     -0.597692    35A     -0.592504    36A     -0.586671
      37A     -0.570108    38A     -0.561874    39A     -0.549716
      40A     -0.524133    41A     -0.520851    42A     -0.508722
      43A     -0.485898    44A     -0.465384    45A     -0.427762
      46A     -0.384464    47A     -0.340123    48A     -0.326315
      49A     -0.307246

  @DF-RHF Final Energy:  -590.30148630755764

   => Energetics <=

    Nuclear Repulsion Energy =            799.0138856056174745
    One-Electron Energy =               -2386.7276125845023671
    Two-Electron Energy =                 997.4122406713273676
    Total Energy =                       -590.3014863075576386
  Basis Set: (AUG-CC-PVTZ AUX)
    Blend: AUG-CC-PVTZ-RI
    Molecular point group: c1

    Geometry (in Angstrom), charge = 0, multiplicity = 1:

       Center              X                  Y                   Z               Mass
    ------------   -----------------  -----------------  -----------------  -----------------
         O           -0.440454790630     1.290478038451     0.304175857067    15.994914619570
         N            0.835237209370    -0.579556961549    -0.273945142933    14.003074004430
         C            3.256728209370    -0.449582961549    -0.155305142933    12.000000000000
         C            0.779257209370     0.674872038451     0.155038857067    12.000000000000
         C           -1.584135790630     0.504280038451     0.144624857067    12.000000000000
         C            3.150730209370     0.877039038451     0.294732857067    12.000000000000
         C            1.902191209370     1.457416038451     0.457295857067    12.000000000000
         C            2.063137209370    -1.119626961549    -0.419349142933    12.000000000000
         C            4.592249209370    -1.115318961549    -0.342663142933    12.000000000000
         C           -1.882958790630    -0.514069961549     1.049328857067    12.000000000000
         C           -2.502224190630     0.924780638451    -0.997348642933    12.000000000000
         C           -3.085849790630    -1.205544961549     0.910369857067    12.000000000000
         C           -3.665016790630     0.151317038451    -1.005372142933    12.000000000000
         C           -3.978673790630    -0.876495961549    -0.114078142933    12.000000000000
         H            4.048716209370     1.450954038451     0.518605857067     1.007825032230
         H            1.774231209370     2.477849038451     0.804642857067     1.007825032230
         H            2.077977209370    -2.150625961549    -0.772755142933     1.007825032230
         H            5.152432209370    -1.149956961549     0.597054857067     1.007825032230
         H            4.468558209370    -2.141561961549    -0.699016142933     1.007825032230
         H            5.203602209370    -0.576265961549    -1.073183142933     1.007825032230
         H           -1.181593790630    -0.755090961549     1.842660857067     1.007825032230
         H           -2.192131790630     1.651150038451    -1.560195142933     1.007825032230
         H           -3.328288790630    -2.003383961549     1.608205857067     1.007825032230
         H           -4.356537790630     0.413424038451    -1.802401142933     1.007825032230
         H           -4.915853790630    -1.417902961549    -0.214236142933     1.007825032230

  Basis Set: AUG-CC-PVTZ
    Blend: AUG-CC-PVTZ
  Basis Set: (AUG-CC-PVTZ AUX)
    Blend: AUG-CC-PVTZ-JKFIT
	 Reference Energy          =    -590.3014863075576386 [Eh]
	 Singles Energy            =      -0.0000000000000000 [Eh]
	 Same-Spin Energy          =      -0.6443496669904103 [Eh]
	 Opposite-Spin Energy      =      -1.9838756946974230 [Eh]
	 Correlation Energy        =      -2.6282253616878331 [Eh]
	 Total Energy              =    -592.9297116692454210 [Eh]

	 ================> DF-SCS-MP2 Energies <==================
	-----------------------------------------------------------
	 SCS Same-Spin Scale       =       0.3333333333333333 [-]
	 SCS Opposite-Spin Scale   =       1.2000000000000000 [-]
	 SCS Same-Spin Energy      =      -0.2147832223301367 [Eh]
	 SCS Opposite-Spin Energy  =      -2.3806508336369077 [Eh]
	 SCS Correlation Energy    =      -2.5954340559670444 [Eh]
	 SCS Total Energy          =    -592.8969203635247140 [Eh]
	-----------------------------------------------------------

  Dipole Moment: [D]
     X:     2.0708      Y:    -0.1636      Z:     0.1885     Total:     2.0858

*** Psi4 exiting successfully. Buy a developer a beer!
