                               Psi4 1.4a3.dev225

  ==> Input File <==

--------------------------------------------------------------------------
#psi4
#
memory 32 gb

molecule  {
0 1
  O       -0.4771680     1.3164760     0.3008390
  N        0.7985240    -0.5535590    -0.2772820
  C        3.2200150    -0.4235850    -0.1586420
  C        0.7425440     0.7008700     0.1517020
  C       -1.4961335     0.5486112     0.2148937
  C        3.1140170     0.9030370     0.2913960
  C        1.8654780     1.4834140     0.4539590
  C        2.0264240    -1.0936290    -0.4226860
  C        4.5555360    -1.0893210    -0.3460000
  C       -1.9196720    -0.4880720     1.0459920
  C       -2.4970780     0.8728280    -0.8843220
  C       -3.1225630    -1.1795470     0.9070330
  C       -3.7017300     0.1773150    -1.0087090
  C       -4.0153870    -0.8504980    -0.1174150
  H        4.0120030     1.4769520     0.5152690
  H        1.7375180     2.5038470     0.8013060
  H        2.0412640    -2.1246280    -0.7760920
  H        5.1157190    -1.1239590     0.5937180
  H        4.4318450    -2.1155640    -0.7023530
  H        5.1668890    -0.5502680    -1.0765200
  H       -1.2183070    -0.7290930     1.8393240
  H       -2.2288450     1.6771480    -1.5635320
  H       -3.3650020    -1.9773860     1.6048690
  H       -4.3932510     0.4394220    -1.8057380
  H       -4.9525670    -1.3919050    -0.2175730
units angstrom
no_reorient  #important for SAPT in psi4, default
symmetry c1  #important for SAPT in psi4, default
}

set PROPERTIES_ORIGIN ["COM"]
properties('MP2/aug-cc-pvtz', properties = ['dipole'])
--------------------------------------------------------------------------

    Molecular point group: c1
  Charge       = 0
  Multiplicity = 1
  Basis Set: AUG-CC-PVTZ
    Blend: AUG-CC-PVTZ
  Basis Set: (AUG-CC-PVTZ AUX)
    Blend: AUG-CC-PVTZ-JKFIT

    Orbital Energies [Eh]
    ---------------------

    Doubly Occupied:

       1A    -20.615758     2A    -15.571656     3A    -11.349561
       4A    -11.302158     5A    -11.283194     6A    -11.267152
       7A    -11.250214     8A    -11.248746     9A    -11.237107
      10A    -11.233505    11A    -11.232166    12A    -11.229715
      13A    -11.224094    14A    -11.223669    15A     -1.485574
      16A     -1.264111    17A     -1.128287    18A     -1.109101
      19A     -1.063202    20A     -1.007132    21A     -0.992790
      22A     -0.949125    23A     -0.889434    24A     -0.852620
      25A     -0.825263    26A     -0.800576    27A     -0.745322
      28A     -0.717157    29A     -0.678130    30A     -0.667933
      31A     -0.651000    32A     -0.635184    33A     -0.622473
      34A     -0.600457    35A     -0.592357    36A     -0.574840
      37A     -0.573557    38A     -0.565538    39A     -0.555429
      40A     -0.527351    41A     -0.520154    42A     -0.513424
      43A     -0.478355    44A     -0.452919    45A     -0.434320
      46A     -0.390249    47A     -0.337867    48A     -0.326182
      49A     -0.299399

  @DF-RHF Final Energy:  -590.30509481590036

   => Energetics <=

    Nuclear Repulsion Energy =            802.5372555925353026
    One-Electron Energy =               -2393.4936882361389507
    Two-Electron Energy =                1000.6513378277032871
    Total Energy =                       -590.3050948159003610
  Basis Set: (AUG-CC-PVTZ AUX)
    Blend: AUG-CC-PVTZ-RI
    Molecular point group: c1

    Geometry (in Angstrom), charge = 0, multiplicity = 1:

       Center              X                  Y                   Z               Mass
    ------------   -----------------  -----------------  -----------------  -----------------
         O           -0.451254741512     1.294343356645     0.291859127301    15.994914619570
         N            0.824437258488    -0.575691643355    -0.286261872699    14.003074004430
         C            3.245928258488    -0.445717643355    -0.167621872699    12.000000000000
         C            0.768457258488     0.678737356645     0.142722127301    12.000000000000
         C           -1.470220241512     0.526478556645     0.205913827301    12.000000000000
         C            3.139930258488     0.880904356645     0.282416127301    12.000000000000
         C            1.891391258488     1.461281356645     0.444979127301    12.000000000000
         C            2.052337258488    -1.115761643355    -0.431665872699    12.000000000000
         C            4.581449258488    -1.111453643355    -0.354979872699    12.000000000000
         C           -1.893758741512    -0.510204643355     1.037012127301    12.000000000000
         C           -2.471164741512     0.850695356645    -0.893301872699    12.000000000000
         C           -3.096649741512    -1.201679643355     0.898053127301    12.000000000000
         C           -3.675816741512     0.155182356645    -1.017688872699    12.000000000000
         C           -3.989473741512    -0.872630643355    -0.126394872699    12.000000000000
         H            4.037916258488     1.454819356645     0.506289127301     1.007825032230
         H            1.763431258488     2.481714356645     0.792326127301     1.007825032230
         H            2.067177258488    -2.146760643355    -0.785071872699     1.007825032230
         H            5.141632258488    -1.146091643355     0.584738127301     1.007825032230
         H            4.457758258488    -2.137696643355    -0.711332872699     1.007825032230
         H            5.192802258488    -0.572400643355    -1.085499872699     1.007825032230
         H           -1.192393741512    -0.751225643355     1.830344127301     1.007825032230
         H           -2.202931741512     1.655015356645    -1.572511872699     1.007825032230
         H           -3.339088741512    -1.999518643355     1.595889127301     1.007825032230
         H           -4.367337741512     0.417289356645    -1.814717872699     1.007825032230
         H           -4.926653741512    -1.414037643355    -0.226552872699     1.007825032230

  Basis Set: AUG-CC-PVTZ
    Blend: AUG-CC-PVTZ
  Basis Set: (AUG-CC-PVTZ AUX)
    Blend: AUG-CC-PVTZ-JKFIT
	 Reference Energy          =    -590.3050948159003610 [Eh]
	 Singles Energy            =      -0.0000000000000000 [Eh]
	 Same-Spin Energy          =      -0.6451989383681985 [Eh]
	 Opposite-Spin Energy      =      -1.9830707892372661 [Eh]
	 Correlation Energy        =      -2.6282697276054647 [Eh]
	 Total Energy              =    -592.9333645435058315 [Eh]

	 ================> DF-SCS-MP2 Energies <==================
	-----------------------------------------------------------
	 SCS Same-Spin Scale       =       0.3333333333333333 [-]
	 SCS Opposite-Spin Scale   =       1.2000000000000000 [-]
	 SCS Same-Spin Energy      =      -0.2150663127893995 [Eh]
	 SCS Opposite-Spin Energy  =      -2.3796849470847192 [Eh]
	 SCS Correlation Energy    =      -2.5947512598741187 [Eh]
	 SCS Total Energy          =    -592.8998460757744624 [Eh]
	-----------------------------------------------------------

  Dipole Moment: [D]
     X:     3.0555      Y:     0.0167      Z:     0.2369     Total:     3.0647

*** Psi4 exiting successfully. Buy a developer a beer!
