                               Psi4 1.4a3.dev225

  ==> Input File <==

--------------------------------------------------------------------------
#psi4
#
memory 32 gb

molecule  {
0 1
  O       -0.4771680     1.3164760     0.3008390
  N        0.7985240    -0.5535590    -0.2772820
  C        3.2200150    -0.4235850    -0.1586420
  C        0.7425440     0.7008700     0.1517020
  C       -1.6208490     0.5302780     0.1412880
  C        3.1140170     0.9030370     0.2913960
  C        1.8654780     1.4834140     0.4539590
  C        2.0264240    -1.0936290    -0.4226860
  C        4.5555360    -1.0893210    -0.3460000
  C       -1.9196720    -0.4880720     1.0459920
  C       -2.4684170     0.7872572    -0.7693213
  C       -3.1225630    -1.1795470     0.9070330
  C       -3.7017300     0.1773150    -1.0087090
  C       -4.0153870    -0.8504980    -0.1174150
  H        4.0120030     1.4769520     0.5152690
  H        1.7375180     2.5038470     0.8013060
  H        2.0412640    -2.1246280    -0.7760920
  H        5.1157190    -1.1239590     0.5937180
  H        4.4318450    -2.1155640    -0.7023530
  H        5.1668890    -0.5502680    -1.0765200
  H       -1.2183070    -0.7290930     1.8393240
  H       -2.2288450     1.6771480    -1.5635320
  H       -3.3650020    -1.9773860     1.6048690
  H       -4.3932510     0.4394220    -1.8057380
  H       -4.9525670    -1.3919050    -0.2175730
units angstrom
no_reorient  #important for SAPT in psi4, default
symmetry c1  #important for SAPT in psi4, default
}

set PROPERTIES_ORIGIN ["COM"]
properties('MP2/aug-cc-pvtz', properties = ['dipole'])
--------------------------------------------------------------------------

    Molecular point group: c1
  Charge       = 0
  Multiplicity = 1
  Basis Set: AUG-CC-PVTZ
    Blend: AUG-CC-PVTZ
  Basis Set: (AUG-CC-PVTZ AUX)
    Blend: AUG-CC-PVTZ-JKFIT

    Orbital Energies [Eh]
    ---------------------

    Doubly Occupied:

       1A    -20.598477     2A    -15.563779     3A    -11.340900
       4A    -11.279764     5A    -11.277447     6A    -11.261501
       7A    -11.243280     8A    -11.241186     9A    -11.237093
      10A    -11.234707    11A    -11.233520    12A    -11.232784
      13A    -11.231872    14A    -11.227254    15A     -1.430949
      16A     -1.253996    17A     -1.161448    18A     -1.102713
      19A     -1.055108    20A     -1.018281    21A     -1.010526
      22A     -0.943705    23A     -0.877491    24A     -0.848115
      25A     -0.829707    26A     -0.800432    27A     -0.742443
      28A     -0.704546    29A     -0.675859    30A     -0.658441
      31A     -0.642571    32A     -0.624941    33A     -0.612041
      34A     -0.602736    35A     -0.591481    36A     -0.578527
      37A     -0.565263    38A     -0.560931    39A     -0.549662
      40A     -0.522023    41A     -0.519231    42A     -0.507897
      43A     -0.490196    44A     -0.468750    45A     -0.428429
      46A     -0.384581    47A     -0.345544    48A     -0.331787
      49A     -0.316542

  @DF-RHF Final Energy:  -590.30415197516140

   => Energetics <=

    Nuclear Repulsion Energy =            804.5699389618664554
    One-Electron Energy =               -2397.8272677390036733
    Two-Electron Energy =                1002.9531768019758147
    Total Energy =                       -590.3041519751614032
  Basis Set: (AUG-CC-PVTZ AUX)
    Blend: AUG-CC-PVTZ-RI
    Molecular point group: c1

    Geometry (in Angstrom), charge = 0, multiplicity = 1:

       Center              X                  Y                   Z               Mass
    ------------   -----------------  -----------------  -----------------  -----------------
         O           -0.445027009231     1.301080014428     0.289175265766    15.994914619570
         N            0.830664990769    -0.568954985572    -0.288945734234    14.003074004430
         C            3.252155990769    -0.438980985572    -0.170305734234    12.000000000000
         C            0.774684990769     0.685474014428     0.140038265766    12.000000000000
         C           -1.588708009231     0.514882014428     0.129624265766    12.000000000000
         C            3.146157990769     0.887641014428     0.279732265766    12.000000000000
         C            1.897618990769     1.468018014428     0.442295265766    12.000000000000
         C            2.058564990769    -1.109024985572    -0.434349734234    12.000000000000
         C            4.587676990769    -1.104716985572    -0.357663734234    12.000000000000
         C           -1.887531009231    -0.503467985572     1.034328265766    12.000000000000
         C           -2.436276009231     0.771861214428    -0.780985034234    12.000000000000
         C           -3.090422009231    -1.194942985572     0.895369265766    12.000000000000
         C           -3.669589009231     0.161919014428    -1.020372734234    12.000000000000
         C           -3.983246009231    -0.865893985572    -0.129078734234    12.000000000000
         H            4.044143990769     1.461556014428     0.503605265766     1.007825032230
         H            1.769658990769     2.488451014428     0.789642265766     1.007825032230
         H            2.073404990769    -2.140023985572    -0.787755734234     1.007825032230
         H            5.147859990769    -1.139354985572     0.582054265766     1.007825032230
         H            4.463985990769    -2.130959985572    -0.714016734234     1.007825032230
         H            5.199029990769    -0.565663985572    -1.088183734234     1.007825032230
         H           -1.186166009231    -0.744488985572     1.827660265766     1.007825032230
         H           -2.196704009231     1.661752014428    -1.575195734234     1.007825032230
         H           -3.332861009231    -1.992781985572     1.593205265766     1.007825032230
         H           -4.361110009231     0.424026014428    -1.817401734234     1.007825032230
         H           -4.920426009231    -1.407300985572    -0.229236734234     1.007825032230

  Basis Set: AUG-CC-PVTZ
    Blend: AUG-CC-PVTZ
  Basis Set: (AUG-CC-PVTZ AUX)
    Blend: AUG-CC-PVTZ-JKFIT
	 Reference Energy          =    -590.3041519751614032 [Eh]
	 Singles Energy            =      -0.0000000000000000 [Eh]
	 Same-Spin Energy          =      -0.6441687593745238 [Eh]
	 Opposite-Spin Energy      =      -1.9820907726625545 [Eh]
	 Correlation Energy        =      -2.6262595320370785 [Eh]
	 Total Energy              =    -592.9304115071985279 [Eh]

	 ================> DF-SCS-MP2 Energies <==================
	-----------------------------------------------------------
	 SCS Same-Spin Scale       =       0.3333333333333333 [-]
	 SCS Opposite-Spin Scale   =       1.2000000000000000 [-]
	 SCS Same-Spin Energy      =      -0.2147229197915079 [Eh]
	 SCS Opposite-Spin Energy  =      -2.3785089271950652 [Eh]
	 SCS Correlation Energy    =      -2.5932318469865732 [Eh]
	 SCS Total Energy          =    -592.8973838221479582 [Eh]
	-----------------------------------------------------------

  Dipole Moment: [D]
     X:     1.9219      Y:    -0.2597      Z:     0.1552     Total:     1.9455

*** Psi4 exiting successfully. Buy a developer a beer!
