                               Psi4 1.4a3.dev225

  ==> Input File <==

--------------------------------------------------------------------------
#psi4
#
memory 32 gb

molecule  {
0 1
  O       -0.4771680     1.3164760     0.3008390
  N        0.7985240    -0.5535590    -0.2772820
  C        3.2200150    -0.4235850    -0.1586420
  C        0.7425440     0.7008700     0.1517020
  C       -1.6208490     0.5302780     0.1412880
  C        3.1064720     0.9974664     0.3234298
  C        1.8654780     1.4834140     0.4539590
  C        2.0264240    -1.0936290    -0.4226860
  C        4.5555360    -1.0893210    -0.3460000
  C       -1.9196720    -0.4880720     1.0459920
  C       -2.4970780     0.8728280    -0.8843220
  C       -3.1225630    -1.1795470     0.9070330
  C       -3.7017300     0.1773150    -1.0087090
  C       -4.0153870    -0.8504980    -0.1174150
  H        4.0120030     1.4769520     0.5152690
  H        1.7375180     2.5038470     0.8013060
  H        2.0412640    -2.1246280    -0.7760920
  H        5.1157190    -1.1239590     0.5937180
  H        4.4318450    -2.1155640    -0.7023530
  H        5.1668890    -0.5502680    -1.0765200
  H       -1.2183070    -0.7290930     1.8393240
  H       -2.2288450     1.6771480    -1.5635320
  H       -3.3650020    -1.9773860     1.6048690
  H       -4.3932510     0.4394220    -1.8057380
  H       -4.9525670    -1.3919050    -0.2175730
units angstrom
no_reorient  #important for SAPT in psi4, default
symmetry c1  #important for SAPT in psi4, default
}

set PROPERTIES_ORIGIN ["COM"]
properties('MP2/aug-cc-pvtz', properties = ['dipole'])
--------------------------------------------------------------------------

    Molecular point group: c1
  Charge       = 0
  Multiplicity = 1
  Basis Set: AUG-CC-PVTZ
    Blend: AUG-CC-PVTZ
  Basis Set: (AUG-CC-PVTZ AUX)
    Blend: AUG-CC-PVTZ-JKFIT

    Orbital Energies [Eh]
    ---------------------

    Doubly Occupied:

       1A    -20.601050     2A    -15.561527     3A    -11.344103
       4A    -11.296501     5A    -11.271331     6A    -11.262641
       7A    -11.249844     8A    -11.240167     9A    -11.237101
      10A    -11.236991    11A    -11.232638    12A    -11.232049
      13A    -11.231986    14A    -11.230895    15A     -1.432599
      16A     -1.250602    17A     -1.146364    18A     -1.097399
      19A     -1.054806    20A     -1.015705    21A     -1.006170
      22A     -0.940773    23A     -0.878238    24A     -0.838636
      25A     -0.828393    26A     -0.803844    27A     -0.740570
      28A     -0.702469    29A     -0.680227    30A     -0.656388
      31A     -0.642899    32A     -0.628915    33A     -0.615137
      34A     -0.596053    35A     -0.591751    36A     -0.585084
      37A     -0.574722    38A     -0.569714    39A     -0.548618
      40A     -0.513595    41A     -0.512300    42A     -0.503321
      43A     -0.493358    44A     -0.476675    45A     -0.426316
      46A     -0.388870    47A     -0.335867    48A     -0.330712
      49A     -0.311085

  @DF-RHF Final Energy:  -590.32057992862087

   => Energetics <=

    Nuclear Repulsion Energy =            800.7023106876475822
    One-Electron Energy =               -2390.1517833255734331
    Two-Electron Energy =                 999.1288927093048642
    Total Energy =                       -590.3205799286208730
  Basis Set: (AUG-CC-PVTZ AUX)
    Blend: AUG-CC-PVTZ-RI
    Molecular point group: c1

    Geometry (in Angstrom), charge = 0, multiplicity = 1:

       Center              X                  Y                   Z               Mass
    ------------   -----------------  -----------------  -----------------  -----------------
         O           -0.442679578606     1.289409628801     0.294554458219    15.994914619570
         N            0.833012421394    -0.580625371199    -0.283566541781    14.003074004430
         C            3.254503421394    -0.450651371199    -0.164926541781    12.000000000000
         C            0.777032421394     0.673803628801     0.145417458219    12.000000000000
         C           -1.586360578606     0.503211628801     0.135003458219    12.000000000000
         C            3.140960421394     0.970400028801     0.317145258219    12.000000000000
         C            1.899966421394     1.456347628801     0.447674458219    12.000000000000
         C            2.060912421394    -1.120695371199    -0.428970541781    12.000000000000
         C            4.590024421394    -1.116387371199    -0.352284541781    12.000000000000
         C           -1.885183578606    -0.515138371199     1.039707458219    12.000000000000
         C           -2.462589578606     0.845761628801    -0.890606541781    12.000000000000
         C           -3.088074578606    -1.206613371199     0.900748458219    12.000000000000
         C           -3.667241578606     0.150248628801    -1.014993541781    12.000000000000
         C           -3.980898578606    -0.877564371199    -0.123699541781    12.000000000000
         H            4.046491421394     1.449885628801     0.508984458219     1.007825032230
         H            1.772006421394     2.476780628801     0.795021458219     1.007825032230
         H            2.075752421394    -2.151694371199    -0.782376541781     1.007825032230
         H            5.150207421394    -1.151025371199     0.587433458219     1.007825032230
         H            4.466333421394    -2.142630371199    -0.708637541781     1.007825032230
         H            5.201377421394    -0.577334371199    -1.082804541781     1.007825032230
         H           -1.183818578606    -0.756159371199     1.833039458219     1.007825032230
         H           -2.194356578606     1.650081628801    -1.569816541781     1.007825032230
         H           -3.330513578606    -2.004452371199     1.598584458219     1.007825032230
         H           -4.358762578606     0.412355628801    -1.812022541781     1.007825032230
         H           -4.918078578606    -1.418971371199    -0.223857541781     1.007825032230

  Basis Set: AUG-CC-PVTZ
    Blend: AUG-CC-PVTZ
  Basis Set: (AUG-CC-PVTZ AUX)
    Blend: AUG-CC-PVTZ-JKFIT
	 Reference Energy          =    -590.3205799286208730 [Eh]
	 Singles Energy            =      -0.0000000000000000 [Eh]
	 Same-Spin Energy          =      -0.6433970994664295 [Eh]
	 Opposite-Spin Energy      =      -1.9819845537771281 [Eh]
	 Correlation Energy        =      -2.6253816532435579 [Eh]
	 Total Energy              =    -592.9459615818644806 [Eh]

	 ================> DF-SCS-MP2 Energies <==================
	-----------------------------------------------------------
	 SCS Same-Spin Scale       =       0.3333333333333333 [-]
	 SCS Opposite-Spin Scale   =       1.2000000000000000 [-]
	 SCS Same-Spin Energy      =      -0.2144656998221432 [Eh]
	 SCS Opposite-Spin Energy  =      -2.3783814645325538 [Eh]
	 SCS Correlation Energy    =      -2.5928471643546969 [Eh]
	 SCS Total Energy          =    -592.9134270929755530 [Eh]
	-----------------------------------------------------------

  Dipole Moment: [D]
     X:     2.0053      Y:    -0.1146      Z:     0.1831     Total:     2.0169

*** Psi4 exiting successfully. Buy a developer a beer!
