                               Psi4 1.4a3.dev225

  ==> Input File <==

--------------------------------------------------------------------------
#psi4
#
memory 32 gb

molecule  {
0 1
  O       -0.4771680     1.3164760     0.3008390
  N        0.7985240    -0.5535590    -0.2772820
  C        3.1951673    -0.4488788    -0.3120204
  C        0.7425440     0.7008700     0.1517020
  C       -1.6208490     0.5302780     0.1412880
  C        3.1140170     0.9030370     0.2913960
  C        1.8654780     1.4834140     0.4539590
  C        2.0264240    -1.0936290    -0.4226860
  C        4.5555360    -1.0893210    -0.3460000
  C       -1.9196720    -0.4880720     1.0459920
  C       -2.4970780     0.8728280    -0.8843220
  C       -3.1225630    -1.1795470     0.9070330
  C       -3.7017300     0.1773150    -1.0087090
  C       -4.0153870    -0.8504980    -0.1174150
  H        4.0120030     1.4769520     0.5152690
  H        1.7375180     2.5038470     0.8013060
  H        2.0412640    -2.1246280    -0.7760920
  H        5.1157190    -1.1239590     0.5937180
  H        4.4318450    -2.1155640    -0.7023530
  H        5.1668890    -0.5502680    -1.0765200
  H       -1.2183070    -0.7290930     1.8393240
  H       -2.2288450     1.6771480    -1.5635320
  H       -3.3650020    -1.9773860     1.6048690
  H       -4.3932510     0.4394220    -1.8057380
  H       -4.9525670    -1.3919050    -0.2175730
units angstrom
no_reorient  #important for SAPT in psi4, default
symmetry c1  #important for SAPT in psi4, default
}

set PROPERTIES_ORIGIN ["COM"]
properties('MP2/aug-cc-pvtz', properties = ['dipole'])
--------------------------------------------------------------------------

    Molecular point group: c1
  Charge       = 0
  Multiplicity = 1
  Basis Set: AUG-CC-PVTZ
    Blend: AUG-CC-PVTZ
  Basis Set: (AUG-CC-PVTZ AUX)
    Blend: AUG-CC-PVTZ-JKFIT

    Orbital Energies [Eh]
    ---------------------

    Doubly Occupied:

       1A    -20.601201     2A    -15.559573     3A    -11.344409
       4A    -11.296327     5A    -11.270881     6A    -11.267526
       7A    -11.243400     8A    -11.242837     9A    -11.237029
      10A    -11.236916    11A    -11.232574    12A    -11.232381
      13A    -11.231954    14A    -11.230853    15A     -1.432776
      16A     -1.252909    17A     -1.146400    18A     -1.095092
      19A     -1.057890    20A     -1.015642    21A     -1.004756
      22A     -0.944397    23A     -0.879413    24A     -0.839031
      25A     -0.828424    26A     -0.803283    27A     -0.737042
      28A     -0.704973    29A     -0.678717    30A     -0.656333
      31A     -0.641992    32A     -0.626100    33A     -0.612054
      34A     -0.596693    35A     -0.591587    36A     -0.586064
      37A     -0.572926    38A     -0.566647    39A     -0.550942
      40A     -0.513956    41A     -0.513094    42A     -0.499323
      43A     -0.493259    44A     -0.477927    45A     -0.429627
      46A     -0.378904    47A     -0.336957    48A     -0.334555
      49A     -0.317765

  @DF-RHF Final Energy:  -590.31897379546024

   => Energetics <=

    Nuclear Repulsion Energy =            801.5095637964758453
    One-Electron Energy =               -2391.7664510247677754
    Two-Electron Energy =                 999.9379134328315786
    Total Energy =                       -590.3189737954602379
  Basis Set: (AUG-CC-PVTZ AUX)
    Blend: AUG-CC-PVTZ-RI
    Molecular point group: c1

    Geometry (in Angstrom), charge = 0, multiplicity = 1:

       Center              X                  Y                   Z               Mass
    ------------   -----------------  -----------------  -----------------  -----------------
         O           -0.441557751067     1.297171930801     0.306575733050    15.994914619570
         N            0.834134248933    -0.572863069199    -0.271545266950    14.003074004430
         C            3.230777548933    -0.468182869199    -0.306283666950    12.000000000000
         C            0.778154248933     0.681565930801     0.157438733050    12.000000000000
         C           -1.585238751067     0.510973930801     0.147024733050    12.000000000000
         C            3.149627248933     0.883732930801     0.297132733050    12.000000000000
         C            1.901088248933     1.464109930801     0.459695733050    12.000000000000
         C            2.062034248933    -1.112933069199    -0.416949266950    12.000000000000
         C            4.591146248933    -1.108625069199    -0.340263266950    12.000000000000
         C           -1.884061751067    -0.507376069199     1.051728733050    12.000000000000
         C           -2.461467751067     0.853523930801    -0.878585266950    12.000000000000
         C           -3.086952751067    -1.198851069199     0.912769733050    12.000000000000
         C           -3.666119751067     0.158010930801    -1.002972266950    12.000000000000
         C           -3.979776751067    -0.869802069199    -0.111678266950    12.000000000000
         H            4.047613248933     1.457647930801     0.521005733050     1.007825032230
         H            1.773128248933     2.484542930801     0.807042733050     1.007825032230
         H            2.076874248933    -2.143932069199    -0.770355266950     1.007825032230
         H            5.151329248933    -1.143263069199     0.599454733050     1.007825032230
         H            4.467455248933    -2.134868069199    -0.696616266950     1.007825032230
         H            5.202499248933    -0.569572069199    -1.070783266950     1.007825032230
         H           -1.182696751067    -0.748397069199     1.845060733050     1.007825032230
         H           -2.193234751067     1.657843930801    -1.557795266950     1.007825032230
         H           -3.329391751067    -1.996690069199     1.610605733050     1.007825032230
         H           -4.357640751067     0.420117930801    -1.800001266950     1.007825032230
         H           -4.916956751067    -1.411209069199    -0.211836266950     1.007825032230

  Basis Set: AUG-CC-PVTZ
    Blend: AUG-CC-PVTZ
  Basis Set: (AUG-CC-PVTZ AUX)
    Blend: AUG-CC-PVTZ-JKFIT
	 Reference Energy          =    -590.3189737954602379 [Eh]
	 Singles Energy            =      -0.0000000000000000 [Eh]
	 Same-Spin Energy          =      -0.6433243010021065 [Eh]
	 Opposite-Spin Energy      =      -1.9818364141585305 [Eh]
	 Correlation Energy        =      -2.6251607151606371 [Eh]
	 Total Energy              =    -592.9441345106208701 [Eh]

	 ================> DF-SCS-MP2 Energies <==================
	-----------------------------------------------------------
	 SCS Same-Spin Scale       =       0.3333333333333333 [-]
	 SCS Opposite-Spin Scale   =       1.2000000000000000 [-]
	 SCS Same-Spin Energy      =      -0.2144414336673688 [Eh]
	 SCS Opposite-Spin Energy  =      -2.3782036969902367 [Eh]
	 SCS Correlation Energy    =      -2.5926451306576057 [Eh]
	 SCS Total Energy          =    -592.9116189261178533 [Eh]
	-----------------------------------------------------------

  Dipole Moment: [D]
     X:     1.9359      Y:    -0.0832      Z:     0.2415     Total:     1.9527

*** Psi4 exiting successfully. Buy a developer a beer!
