                               Psi4 1.4a3.dev225

  ==> Input File <==

--------------------------------------------------------------------------
#psi4
#
memory 32 gb

molecule  {
0 1
  O       -0.4771680     1.3164760     0.3008390
  N        0.7985240    -0.5535590    -0.2772820
  C        3.2200150    -0.4235850    -0.1586420
  C        0.7425440     0.7008700     0.1517020
  C       -1.6208490     0.5302780     0.1412880
  C        3.1140170     0.9030370     0.2913960
  C        1.8654780     1.4834140     0.4539590
  C        2.0264240    -1.0936290    -0.4226860
  C        4.5555360    -1.0893210    -0.3460000
  C       -1.9196720    -0.4880720     1.0459920
  C       -2.4970780     0.8728280    -0.8843220
  C       -3.1225630    -1.1795470     0.9070330
  C       -3.7017300     0.1773150    -1.0087090
  C       -4.0574043    -0.8571373    -0.1411899
  H        4.0120030     1.4769520     0.5152690
  H        1.7375180     2.5038470     0.8013060
  H        2.0412640    -2.1246280    -0.7760920
  H        5.1157190    -1.1239590     0.5937180
  H        4.4318450    -2.1155640    -0.7023530
  H        5.1668890    -0.5502680    -1.0765200
  H       -1.2183070    -0.7290930     1.8393240
  H       -2.2288450     1.6771480    -1.5635320
  H       -3.3650020    -1.9773860     1.6048690
  H       -4.3932510     0.4394220    -1.8057380
  H       -4.9525670    -1.3919050    -0.2175730
units angstrom
no_reorient  #important for SAPT in psi4, default
symmetry c1  #important for SAPT in psi4, default
}

set PROPERTIES_ORIGIN ["COM"]
properties('MP2/aug-cc-pvtz', properties = ['dipole'])
--------------------------------------------------------------------------

    Molecular point group: c1
  Charge       = 0
  Multiplicity = 1
  Basis Set: AUG-CC-PVTZ
    Blend: AUG-CC-PVTZ
  Basis Set: (AUG-CC-PVTZ AUX)
    Blend: AUG-CC-PVTZ-JKFIT

    Orbital Energies [Eh]
    ---------------------

    Doubly Occupied:

       1A    -20.599100     2A    -15.563679     3A    -11.341008
       4A    -11.296959     5A    -11.277475     6A    -11.261603
       7A    -11.243412     8A    -11.241435     9A    -11.241375
      10A    -11.237244    11A    -11.232879    12A    -11.232333
      13A    -11.231547    14A    -11.231084    15A     -1.431242
      16A     -1.253714    17A     -1.142053    18A     -1.102811
      19A     -1.052740    20A     -1.013897    21A     -1.002913
      22A     -0.943111    23A     -0.878424    24A     -0.841567
      25A     -0.829833    26A     -0.802356    27A     -0.736326
      28A     -0.704990    29A     -0.685314    30A     -0.654033
      31A     -0.643780    32A     -0.626096    33A     -0.611077
      34A     -0.595174    35A     -0.590843    36A     -0.584461
      37A     -0.569812    38A     -0.564312    39A     -0.550403
      40A     -0.522791    41A     -0.520123    42A     -0.510079
      43A     -0.489102    44A     -0.474854    45A     -0.428350
      46A     -0.384649    47A     -0.336098    48A     -0.329748
      49A     -0.313356

  @DF-RHF Final Energy:  -590.32812171652506

   => Energetics <=

    Nuclear Repulsion Energy =            800.8450693517163472
    One-Electron Energy =               -2390.4432514199042998
    Two-Electron Energy =                 999.2700603516628917
    Total Energy =                       -590.3281217165250609
  Basis Set: (AUG-CC-PVTZ AUX)
    Blend: AUG-CC-PVTZ-RI
    Molecular point group: c1

    Geometry (in Angstrom), charge = 0, multiplicity = 1:

       Center              X                  Y                   Z               Mass
    ------------   -----------------  -----------------  -----------------  -----------------
         O           -0.440444553120     1.295962458763     0.298172837811    15.994914619570
         N            0.835247446880    -0.574072541237    -0.279948162189    14.003074004430
         C            3.256738446880    -0.444098541237    -0.161308162189    12.000000000000
         C            0.779267446880     0.680356458763     0.149035837811    12.000000000000
         C           -1.584125553120     0.509764458763     0.138621837811    12.000000000000
         C            3.150740446880     0.882523458763     0.288729837811    12.000000000000
         C            1.902201446880     1.462900458763     0.451292837811    12.000000000000
         C            2.063147446880    -1.114142541237    -0.425352162189    12.000000000000
         C            4.592259446880    -1.109834541237    -0.348666162189    12.000000000000
         C           -1.882948553120    -0.508585541237     1.043325837811    12.000000000000
         C           -2.460354553120     0.852314458763    -0.886988162189    12.000000000000
         C           -3.085839553120    -1.200060541237     0.904366837811    12.000000000000
         C           -3.665006553120     0.156801458763    -1.011375162189    12.000000000000
         C           -4.020680853120    -0.877650841237    -0.143856062189    12.000000000000
         H            4.048726446880     1.456438458763     0.512602837811     1.007825032230
         H            1.774241446880     2.483333458763     0.798639837811     1.007825032230
         H            2.077987446880    -2.145141541237    -0.778758162189     1.007825032230
         H            5.152442446880    -1.144472541237     0.591051837811     1.007825032230
         H            4.468568446880    -2.136077541237    -0.705019162189     1.007825032230
         H            5.203612446880    -0.570781541237    -1.079186162189     1.007825032230
         H           -1.181583553120    -0.749606541237     1.836657837811     1.007825032230
         H           -2.192121553120     1.656634458763    -1.566198162189     1.007825032230
         H           -3.328278553120    -1.997899541237     1.602202837811     1.007825032230
         H           -4.356527553120     0.418908458763    -1.808404162189     1.007825032230
         H           -4.915843553120    -1.412418541237    -0.220239162189     1.007825032230

  Basis Set: AUG-CC-PVTZ
    Blend: AUG-CC-PVTZ
  Basis Set: (AUG-CC-PVTZ AUX)
    Blend: AUG-CC-PVTZ-JKFIT
	 Reference Energy          =    -590.3281217165250609 [Eh]
	 Singles Energy            =      -0.0000000000000000 [Eh]
	 Same-Spin Energy          =      -0.6439239254459231 [Eh]
	 Opposite-Spin Energy      =      -1.9818012894381296 [Eh]
	 Correlation Energy        =      -2.6257252148840529 [Eh]
	 Total Energy              =    -592.9538469314090889 [Eh]

	 ================> DF-SCS-MP2 Energies <==================
	-----------------------------------------------------------
	 SCS Same-Spin Scale       =       0.3333333333333333 [-]
	 SCS Opposite-Spin Scale   =       1.2000000000000000 [-]
	 SCS Same-Spin Energy      =      -0.2146413084819744 [Eh]
	 SCS Opposite-Spin Energy  =      -2.3781615473257554 [Eh]
	 SCS Correlation Energy    =      -2.5928028558077298 [Eh]
	 SCS Total Energy          =    -592.9209245723327513 [Eh]
	-----------------------------------------------------------

  Dipole Moment: [D]
     X:     2.0275      Y:    -0.1914      Z:     0.1615     Total:     2.0429

*** Psi4 exiting successfully. Buy a developer a beer!
