                               Psi4 1.4a3.dev225

  ==> Input File <==

--------------------------------------------------------------------------
#psi4
#
memory 32 gb

molecule  {
0 1
  O       -0.4771680     1.3164760     0.3008390
  N        0.7985240    -0.5535590    -0.2772820
  C        3.2200150    -0.4235850    -0.1586420
  C        0.7425440     0.7008700     0.1517020
  C       -1.6208490     0.5302780     0.1412880
  C        3.1140170     0.9030370     0.2913960
  C        1.8654780     1.4834140     0.4539590
  C        2.0264240    -1.0936290    -0.4226860
  C        4.5555360    -1.0893210    -0.3460000
  C       -1.9196720    -0.4880720     1.0459920
  C       -2.4970780     0.8728280    -0.8843220
  C       -3.1225630    -1.1795470     0.9070330
  C       -3.7017300     0.1773150    -1.0087090
  C       -4.0153870    -0.8504980    -0.1174150
  H        4.0120030     1.4769520     0.5152690
  H        1.7375180     2.5038470     0.8013060
  H        2.0412640    -2.1246280    -0.7760920
  H        5.1157190    -1.1239590     0.5937180
  H        4.4318450    -2.1155640    -0.7023530
  H        5.1668890    -0.5502680    -1.0765200
  H       -1.2183070    -0.7290930     1.8393240
  H       -2.2288450     1.6771480    -1.5635320
  H       -3.3650020    -1.9773860     1.6048690
  H       -4.3614502     0.4273686    -1.7690852
  H       -4.9525670    -1.3919050    -0.2175730
units angstrom
no_reorient  #important for SAPT in psi4, default
symmetry c1  #important for SAPT in psi4, default
}

set PROPERTIES_ORIGIN ["COM"]
properties('MP2/aug-cc-pvtz', properties = ['dipole'])
--------------------------------------------------------------------------

    Molecular point group: c1
  Charge       = 0
  Multiplicity = 1
  Basis Set: AUG-CC-PVTZ
    Blend: AUG-CC-PVTZ
  Basis Set: (AUG-CC-PVTZ AUX)
    Blend: AUG-CC-PVTZ-JKFIT

    Orbital Energies [Eh]
    ---------------------

    Doubly Occupied:

       1A    -20.598380     2A    -15.563303     3A    -11.340617
       4A    -11.295337     5A    -11.277224     6A    -11.261355
       7A    -11.243136     8A    -11.241073     9A    -11.236366
      10A    -11.232705    11A    -11.231922    12A    -11.231514
      13A    -11.230548    14A    -11.229593    15A     -1.430555
      16A     -1.253373    17A     -1.145937    18A     -1.102545
      19A     -1.052998    20A     -1.016460    21A     -1.003931
      22A     -0.942813    23A     -0.877564    24A     -0.843463
      25A     -0.831637    26A     -0.801697    27A     -0.739052
      28A     -0.704762    29A     -0.679016    30A     -0.655350
      31A     -0.643450    32A     -0.629822    33A     -0.611421
      34A     -0.595913    35A     -0.592809    36A     -0.587093
      37A     -0.569506    38A     -0.563265    39A     -0.549489
      40A     -0.521106    41A     -0.515072    42A     -0.511446
      43A     -0.492789    44A     -0.478166    45A     -0.428117
      46A     -0.384379    47A     -0.335223    48A     -0.332150
      49A     -0.313422

  @DF-RHF Final Energy:  -590.33076997887906

   => Energetics <=

    Nuclear Repulsion Energy =            801.9905482829883567
    One-Electron Energy =               -2392.7449091347716603
    Two-Electron Energy =                1000.4235908729042421
    Total Energy =                       -590.3307699788790615
  Basis Set: (AUG-CC-PVTZ AUX)
    Blend: AUG-CC-PVTZ-RI
    Molecular point group: c1

    Geometry (in Angstrom), charge = 0, multiplicity = 1:

       Center              X                  Y                   Z               Mass
    ------------   -----------------  -----------------  -----------------  -----------------
         O           -0.443341924351     1.295597630586     0.296431799699    15.994914619570
         N            0.832350075649    -0.574437369414    -0.281689200301    14.003074004430
         C            3.253841075649    -0.444463369414    -0.163049200301    12.000000000000
         C            0.776370075649     0.679991630586     0.147294799699    12.000000000000
         C           -1.587022924351     0.509399630586     0.136880799699    12.000000000000
         C            3.147843075649     0.882158630586     0.286988799699    12.000000000000
         C            1.899304075649     1.462535630586     0.449551799699    12.000000000000
         C            2.060250075649    -1.114507369414    -0.427093200301    12.000000000000
         C            4.589362075649    -1.110199369414    -0.350407200301    12.000000000000
         C           -1.885845924351    -0.508950369414     1.041584799699    12.000000000000
         C           -2.463251924351     0.851949630586    -0.888729200301    12.000000000000
         C           -3.088736924351    -1.200425369414     0.902625799699    12.000000000000
         C           -3.667903924351     0.156436630586    -1.013116200301    12.000000000000
         C           -3.981560924351    -0.871376369414    -0.121822200301    12.000000000000
         H            4.045829075649     1.456073630586     0.510861799699     1.007825032230
         H            1.771344075649     2.482968630586     0.796898799699     1.007825032230
         H            2.075090075649    -2.145506369414    -0.780499200301     1.007825032230
         H            5.149545075649    -1.144837369414     0.589310799699     1.007825032230
         H            4.465671075649    -2.136442369414    -0.706760200301     1.007825032230
         H            5.200715075649    -0.571146369414    -1.080927200301     1.007825032230
         H           -1.184480924351    -0.749971369414     1.834916799699     1.007825032230
         H           -2.195018924351     1.656269630586    -1.567939200301     1.007825032230
         H           -3.331175924351    -1.998264369414     1.600461799699     1.007825032230
         H           -4.327624124351     0.406490230586    -1.773492400301     1.007825032230
         H           -4.918740924351    -1.412783369414    -0.221980200301     1.007825032230

  Basis Set: AUG-CC-PVTZ
    Blend: AUG-CC-PVTZ
  Basis Set: (AUG-CC-PVTZ AUX)
    Blend: AUG-CC-PVTZ-JKFIT
	 Reference Energy          =    -590.3307699788790615 [Eh]
	 Singles Energy            =      -0.0000000000000000 [Eh]
	 Same-Spin Energy          =      -0.6439236044246546 [Eh]
	 Opposite-Spin Energy      =      -1.9811809759627423 [Eh]
	 Correlation Energy        =      -2.6251045803873971 [Eh]
	 Total Energy              =    -592.9558745592664764 [Eh]

	 ================> DF-SCS-MP2 Energies <==================
	-----------------------------------------------------------
	 SCS Same-Spin Scale       =       0.3333333333333333 [-]
	 SCS Opposite-Spin Scale   =       1.2000000000000000 [-]
	 SCS Same-Spin Energy      =      -0.2146412014748849 [Eh]
	 SCS Opposite-Spin Energy  =      -2.3774171711552907 [Eh]
	 SCS Correlation Energy    =      -2.5920583726301754 [Eh]
	 SCS Total Energy          =    -592.9228283515092244 [Eh]
	-----------------------------------------------------------

  Dipole Moment: [D]
     X:     2.0013      Y:    -0.1794      Z:     0.1444     Total:     2.0145

*** Psi4 exiting successfully. Buy a developer a beer!
