                               Psi4 1.4a3.dev225

  ==> Input File <==

--------------------------------------------------------------------------
#psi4
#
memory 32 gb

molecule  {
0 1
  O       -0.4771680     1.3164760     0.3008390
  N        0.7985240    -0.5535590    -0.2772820
  C        3.2200150    -0.4235850    -0.1586420
  C        0.7425440     0.7008700     0.1517020
  C       -1.5611567     0.5997317     0.1088866
  C        3.1140170     0.9030370     0.2913960
  C        1.8654780     1.4834140     0.4539590
  C        2.0264240    -1.0936290    -0.4226860
  C        4.5555360    -1.0893210    -0.3460000
  C       -1.9196720    -0.4880720     1.0459920
  C       -2.4970780     0.8728280    -0.8843220
  C       -3.1225630    -1.1795470     0.9070330
  C       -3.7017300     0.1773150    -1.0087090
  C       -4.0153870    -0.8504980    -0.1174150
  H        4.0120030     1.4769520     0.5152690
  H        1.7375180     2.5038470     0.8013060
  H        2.0412640    -2.1246280    -0.7760920
  H        5.1157190    -1.1239590     0.5937180
  H        4.4318450    -2.1155640    -0.7023530
  H        5.1668890    -0.5502680    -1.0765200
  H       -1.2183070    -0.7290930     1.8393240
  H       -2.2288450     1.6771480    -1.5635320
  H       -3.3650020    -1.9773860     1.6048690
  H       -4.3932510     0.4394220    -1.8057380
  H       -4.9525670    -1.3919050    -0.2175730
units angstrom
no_reorient  #important for SAPT in psi4, default
symmetry c1  #important for SAPT in psi4, default
}

set PROPERTIES_ORIGIN ["COM"]
properties('MP2/aug-cc-pvtz', properties = ['dipole'])
--------------------------------------------------------------------------

    Molecular point group: c1
  Charge       = 0
  Multiplicity = 1
  Basis Set: AUG-CC-PVTZ
    Blend: AUG-CC-PVTZ
  Basis Set: (AUG-CC-PVTZ AUX)
    Blend: AUG-CC-PVTZ-JKFIT

    Orbital Energies [Eh]
    ---------------------

    Doubly Occupied:

       1A    -20.608698     2A    -15.568773     3A    -11.347386
       4A    -11.299597     5A    -11.281074     6A    -11.265231
       7A    -11.247715     8A    -11.246329     9A    -11.235558
      10A    -11.234747    11A    -11.233305    12A    -11.231807
      13A    -11.226370    14A    -11.225881    15A     -1.465085
      16A     -1.260658    17A     -1.133869    18A     -1.106815
      19A     -1.060296    20A     -1.009641    21A     -0.995851
      22A     -0.947304    23A     -0.885511    24A     -0.849675
      25A     -0.824731    26A     -0.800816    27A     -0.745407
      28A     -0.711428    29A     -0.676966    30A     -0.664873
      31A     -0.648289    32A     -0.630702    33A     -0.618539
      34A     -0.599685    35A     -0.591761    36A     -0.577527
      37A     -0.570932    38A     -0.568736    39A     -0.553273
      40A     -0.525281    41A     -0.517721    42A     -0.512649
      43A     -0.482505    44A     -0.462713    45A     -0.432479
      46A     -0.388182    47A     -0.333584    48A     -0.331319
      49A     -0.304977

  @DF-RHF Final Energy:  -590.32075567698894

   => Energetics <=

    Nuclear Repulsion Energy =            801.9583560889910814
    One-Electron Energy =               -2392.4737203711174516
    Two-Electron Energy =                1000.1946086051375460
    Total Energy =                       -590.3207556769889379
  Basis Set: (AUG-CC-PVTZ AUX)
    Blend: AUG-CC-PVTZ-RI
    Molecular point group: c1

    Geometry (in Angstrom), charge = 0, multiplicity = 1:

       Center              X                  Y                   Z               Mass
    ------------   -----------------  -----------------  -----------------  -----------------
         O           -0.447038936093     1.291028938392     0.298732140421    15.994914619570
         N            0.828653063907    -0.579006061608    -0.279388859579    14.003074004430
         C            3.250144063907    -0.449032061608    -0.160748859579    12.000000000000
         C            0.772673063907     0.675422938392     0.149595140421    12.000000000000
         C           -1.531027636093     0.574284638392     0.106779740421    12.000000000000
         C            3.144146063907     0.877589938392     0.289289140421    12.000000000000
         C            1.895607063907     1.457966938392     0.451852140421    12.000000000000
         C            2.056553063907    -1.119076061608    -0.424792859579    12.000000000000
         C            4.585665063907    -1.114768061608    -0.348106859579    12.000000000000
         C           -1.889542936093    -0.513519061608     1.043885140421    12.000000000000
         C           -2.466948936093     0.847380938392    -0.886428859579    12.000000000000
         C           -3.092433936093    -1.204994061608     0.904926140421    12.000000000000
         C           -3.671600936093     0.151867938392    -1.010815859579    12.000000000000
         C           -3.985257936093    -0.875945061608    -0.119521859579    12.000000000000
         H            4.042132063907     1.451504938392     0.513162140421     1.007825032230
         H            1.767647063907     2.478399938392     0.799199140421     1.007825032230
         H            2.071393063907    -2.150075061608    -0.778198859579     1.007825032230
         H            5.145848063907    -1.149406061608     0.591611140421     1.007825032230
         H            4.461974063907    -2.141011061608    -0.704459859579     1.007825032230
         H            5.197018063907    -0.575715061608    -1.078626859579     1.007825032230
         H           -1.188177936093    -0.754540061608     1.837217140421     1.007825032230
         H           -2.198715936093     1.651700938392    -1.565638859579     1.007825032230
         H           -3.334872936093    -2.002833061608     1.602762140421     1.007825032230
         H           -4.363121936093     0.413974938392    -1.807844859579     1.007825032230
         H           -4.922437936093    -1.417352061608    -0.219679859579     1.007825032230

  Basis Set: AUG-CC-PVTZ
    Blend: AUG-CC-PVTZ
  Basis Set: (AUG-CC-PVTZ AUX)
    Blend: AUG-CC-PVTZ-JKFIT
	 Reference Energy          =    -590.3207556769889379 [Eh]
	 Singles Energy            =      -0.0000000000000000 [Eh]
	 Same-Spin Energy          =      -0.6443319485481066 [Eh]
	 Opposite-Spin Energy      =      -1.9818338785827696 [Eh]
	 Correlation Energy        =      -2.6261658271308761 [Eh]
	 Total Energy              =    -592.9469215041198140 [Eh]

	 ================> DF-SCS-MP2 Energies <==================
	-----------------------------------------------------------
	 SCS Same-Spin Scale       =       0.3333333333333333 [-]
	 SCS Opposite-Spin Scale   =       1.2000000000000000 [-]
	 SCS Same-Spin Energy      =      -0.2147773161827022 [Eh]
	 SCS Opposite-Spin Energy  =      -2.3782006542993233 [Eh]
	 SCS Correlation Energy    =      -2.5929779704820253 [Eh]
	 SCS Total Energy          =    -592.9137336474709628 [Eh]
	-----------------------------------------------------------

  Dipole Moment: [D]
     X:     2.6715      Y:    -0.0294      Z:     0.1593     Total:     2.6764

*** Psi4 exiting successfully. Buy a developer a beer!
