                               Psi4 1.4a3.dev225

  ==> Input File <==

--------------------------------------------------------------------------
#psi4
#
memory 32 gb

molecule  {
0 1
  O       -0.4771680     1.3164760     0.3008390
  N        0.7985240    -0.5535590    -0.2772820
  C        3.2200150    -0.4235850    -0.1586420
  C        0.7425440     0.7008700     0.1517020
  C       -1.6208490     0.5302780     0.1412880
  C        3.1140170     0.9030370     0.2913960
  C        1.8654780     1.4834140     0.4539590
  C        2.0264240    -1.0936290    -0.4226860
  C        4.5555360    -1.0893210    -0.3460000
  C       -1.9196720    -0.4880720     1.0459920
  C       -2.4970780     0.8728280    -0.8843220
  C       -3.1225630    -1.1795470     0.9070330
  C       -3.7017300     0.1773150    -1.0087090
  C       -4.0153870    -0.8504980    -0.1174150
  H        4.0120030     1.4769520     0.5152690
  H        1.7375180     2.5038470     0.8013060
  H        2.0412640    -2.1246280    -0.7760920
  H        5.1157190    -1.1239590     0.5937180
  H        4.4341076    -2.0967919    -0.6958346
  H        5.1668890    -0.5502680    -1.0765200
  H       -1.2183070    -0.7290930     1.8393240
  H       -2.2288450     1.6771480    -1.5635320
  H       -3.3650020    -1.9773860     1.6048690
  H       -4.3932510     0.4394220    -1.8057380
  H       -4.9525670    -1.3919050    -0.2175730
units angstrom
no_reorient  #important for SAPT in psi4, default
symmetry c1  #important for SAPT in psi4, default
}

set PROPERTIES_ORIGIN ["COM"]
properties('MP2/aug-cc-pvtz', properties = ['dipole'])
--------------------------------------------------------------------------

    Molecular point group: c1
  Charge       = 0
  Multiplicity = 1
  Basis Set: AUG-CC-PVTZ
    Blend: AUG-CC-PVTZ
  Basis Set: (AUG-CC-PVTZ AUX)
    Blend: AUG-CC-PVTZ-JKFIT

    Orbital Energies [Eh]
    ---------------------

    Doubly Occupied:

       1A    -20.598529     2A    -15.563354     3A    -11.340657
       4A    -11.295631     5A    -11.277252     6A    -11.261280
       7A    -11.243045     8A    -11.241081     9A    -11.236717
      10A    -11.236618    11A    -11.232053    12A    -11.231313
      13A    -11.230421    14A    -11.230332    15A     -1.430686
      16A     -1.253414    17A     -1.145843    18A     -1.102672
      19A     -1.053213    20A     -1.015234    21A     -1.003944
      22A     -0.944076    23A     -0.877621    24A     -0.842436
      25A     -0.830709    26A     -0.800849    27A     -0.736796
      28A     -0.704723    29A     -0.679260    30A     -0.655460
      31A     -0.643757    32A     -0.626516    33A     -0.610993
      34A     -0.595153    35A     -0.592034    36A     -0.586049
      37A     -0.569568    38A     -0.563239    39A     -0.552077
      40A     -0.521770    41A     -0.513509    42A     -0.511716
      43A     -0.492668    44A     -0.477534    45A     -0.428156
      46A     -0.384362    47A     -0.335413    48A     -0.332308
      49A     -0.313532

  @DF-RHF Final Energy:  -590.33160969771791

   => Energetics <=

    Nuclear Repulsion Energy =            801.8035888545773560
    One-Electron Energy =               -2392.3792507041234785
    Two-Electron Energy =                1000.2440521518282139
    Total Energy =                       -590.3316096977179086
  Basis Set: (AUG-CC-PVTZ AUX)
    Blend: AUG-CC-PVTZ-RI
    Molecular point group: c1

    Geometry (in Angstrom), charge = 0, multiplicity = 1:

       Center              X                  Y                   Z               Mass
    ------------   -----------------  -----------------  -----------------  -----------------
         O           -0.443181082101     1.295429778693     0.296595888395    15.994914619570
         N            0.832510917899    -0.574605221307    -0.281525111605    14.003074004430
         C            3.254001917899    -0.444631221307    -0.162885111605    12.000000000000
         C            0.776530917899     0.679823778693     0.147458888395    12.000000000000
         C           -1.586862082101     0.509231778693     0.137044888395    12.000000000000
         C            3.148003917899     0.881990778693     0.287152888395    12.000000000000
         C            1.899464917899     1.462367778693     0.449715888395    12.000000000000
         C            2.060410917899    -1.114675221307    -0.426929111605    12.000000000000
         C            4.589522917899    -1.110367221307    -0.350243111605    12.000000000000
         C           -1.885685082101    -0.509118221307     1.041748888395    12.000000000000
         C           -2.463091082101     0.851781778693    -0.888565111605    12.000000000000
         C           -3.088576082101    -1.200593221307     0.902789888395    12.000000000000
         C           -3.667743082101     0.156268778693    -1.012952111605    12.000000000000
         C           -3.981400082101    -0.871544221307    -0.121658111605    12.000000000000
         H            4.045989917899     1.455905778693     0.511025888395     1.007825032230
         H            1.771504917899     2.482800778693     0.797062888395     1.007825032230
         H            2.075250917899    -2.145674221307    -0.780335111605     1.007825032230
         H            5.149705917899    -1.145005221307     0.589474888395     1.007825032230
         H            4.468094517899    -2.117838121307    -0.700077711605     1.007825032230
         H            5.200875917899    -0.571314221307    -1.080763111605     1.007825032230
         H           -1.184320082101    -0.750139221307     1.835080888395     1.007825032230
         H           -2.194858082101     1.656101778693    -1.567775111605     1.007825032230
         H           -3.331015082101    -1.998432221307     1.600625888395     1.007825032230
         H           -4.359264082101     0.418375778693    -1.809981111605     1.007825032230
         H           -4.918580082101    -1.412951221307    -0.221816111605     1.007825032230

  Basis Set: AUG-CC-PVTZ
    Blend: AUG-CC-PVTZ
  Basis Set: (AUG-CC-PVTZ AUX)
    Blend: AUG-CC-PVTZ-JKFIT
	 Reference Energy          =    -590.3316096977179086 [Eh]
	 Singles Energy            =      -0.0000000000000000 [Eh]
	 Same-Spin Energy          =      -0.6439945171958887 [Eh]
	 Opposite-Spin Energy      =      -1.9813476503543577 [Eh]
	 Correlation Energy        =      -2.6253421675502464 [Eh]
	 Total Energy              =    -592.9569518652681381 [Eh]

	 ================> DF-SCS-MP2 Energies <==================
	-----------------------------------------------------------
	 SCS Same-Spin Scale       =       0.3333333333333333 [-]
	 SCS Opposite-Spin Scale   =       1.2000000000000000 [-]
	 SCS Same-Spin Energy      =      -0.2146648390652962 [Eh]
	 SCS Opposite-Spin Energy  =      -2.3776171804252293 [Eh]
	 SCS Correlation Energy    =      -2.5922820194905256 [Eh]
	 SCS Total Energy          =    -592.9238917172084484 [Eh]
	-----------------------------------------------------------

  Dipole Moment: [D]
     X:     2.0216      Y:    -0.1932      Z:     0.1532     Total:     2.0365

*** Psi4 exiting successfully. Buy a developer a beer!
