                               Psi4 1.4a3.dev225

  ==> Input File <==

--------------------------------------------------------------------------
#psi4
#
memory 32 gb

molecule  {
0 1
  O       -0.4771680     1.3164760     0.3008390
  N        0.7985240    -0.5535590    -0.2772820
  C        3.2200150    -0.4235850    -0.1586420
  C        0.7425440     0.7008700     0.1517020
  C       -1.6208490     0.5302780     0.1412880
  C        3.1140170     0.9030370     0.2913960
  C        1.8654780     1.4834140     0.4539590
  C        2.0264240    -1.0936290    -0.4226860
  C        4.5555360    -1.0893210    -0.3460000
  C       -1.9196720    -0.4880720     1.0459920
  C       -2.4970780     0.8728280    -0.8843220
  C       -3.1225630    -1.1795470     0.9070330
  C       -3.7017300     0.1773150    -1.0087090
  C       -4.0473151    -0.8387309    -0.1540501
  H        4.0120030     1.4769520     0.5152690
  H        1.7375180     2.5038470     0.8013060
  H        2.0412640    -2.1246280    -0.7760920
  H        5.1157190    -1.1239590     0.5937180
  H        4.4318450    -2.1155640    -0.7023530
  H        5.1668890    -0.5502680    -1.0765200
  H       -1.2183070    -0.7290930     1.8393240
  H       -2.2288450     1.6771480    -1.5635320
  H       -3.3650020    -1.9773860     1.6048690
  H       -4.3932510     0.4394220    -1.8057380
  H       -4.9525670    -1.3919050    -0.2175730
units angstrom
no_reorient  #important for SAPT in psi4, default
symmetry c1  #important for SAPT in psi4, default
}

set PROPERTIES_ORIGIN ["COM"]
properties('MP2/aug-cc-pvtz', properties = ['dipole'])
--------------------------------------------------------------------------

    Molecular point group: c1
  Charge       = 0
  Multiplicity = 1
  Basis Set: AUG-CC-PVTZ
    Blend: AUG-CC-PVTZ
  Basis Set: (AUG-CC-PVTZ AUX)
    Blend: AUG-CC-PVTZ-JKFIT

    Orbital Energies [Eh]
    ---------------------

    Doubly Occupied:

       1A    -20.598915     2A    -15.563647     3A    -11.340907
       4A    -11.296521     5A    -11.277439     6A    -11.261559
       7A    -11.243371     8A    -11.241804     9A    -11.241316
      10A    -11.234286    11A    -11.232853    12A    -11.232491
      13A    -11.230944    14A    -11.230682    15A     -1.431053
      16A     -1.253661    17A     -1.143702    18A     -1.102770
      19A     -1.052943    20A     -1.015500    21A     -1.002492
      22A     -0.942939    23A     -0.878212    24A     -0.840735
      25A     -0.831279    26A     -0.801442    27A     -0.736420
      28A     -0.704922    29A     -0.682882    30A     -0.654462
      31A     -0.643592    32A     -0.626243    33A     -0.611239
      34A     -0.595413    35A     -0.591217    36A     -0.584827
      37A     -0.570129    38A     -0.563857    39A     -0.550141
      40A     -0.521647    41A     -0.519227    42A     -0.509269
      43A     -0.490358    44A     -0.475399    45A     -0.428391
      46A     -0.384622    47A     -0.337839    48A     -0.328799
      49A     -0.313865

  @DF-RHF Final Energy:  -590.32854505619093

   => Energetics <=

    Nuclear Repulsion Energy =            801.1844013012772621
    One-Electron Energy =               -2391.1294500381022772
    Two-Electron Energy =                 999.6165036806339685
    Total Energy =                       -590.3285450561909329
  Basis Set: (AUG-CC-PVTZ AUX)
    Blend: AUG-CC-PVTZ-RI
    Molecular point group: c1

    Geometry (in Angstrom), charge = 0, multiplicity = 1:

       Center              X                  Y                   Z               Mass
    ------------   -----------------  -----------------  -----------------  -----------------
         O           -0.441098690475     1.294769072389     0.299006634069    15.994914619570
         N            0.834593309525    -0.575265927611    -0.279114365931    14.003074004430
         C            3.256084309525    -0.445291927611    -0.160474365931    12.000000000000
         C            0.778613309525     0.679163072389     0.149869634069    12.000000000000
         C           -1.584779690475     0.508571072389     0.139455634069    12.000000000000
         C            3.150086309525     0.881330072389     0.289563634069    12.000000000000
         C            1.901547309525     1.461707072389     0.452126634069    12.000000000000
         C            2.062493309525    -1.115335927611    -0.424518365931    12.000000000000
         C            4.591605309525    -1.111027927611    -0.347832365931    12.000000000000
         C           -1.883602690475    -0.509778927611     1.044159634069    12.000000000000
         C           -2.461008690475     0.851121072389    -0.886154365931    12.000000000000
         C           -3.086493690475    -1.201253927611     0.905200634069    12.000000000000
         C           -3.665660690475     0.155608072389    -1.010541365931    12.000000000000
         C           -4.011245790475    -0.860437827611    -0.155882465931    12.000000000000
         H            4.048072309525     1.455245072389     0.513436634069     1.007825032230
         H            1.773587309525     2.482140072389     0.799473634069     1.007825032230
         H            2.077333309525    -2.146334927611    -0.777924365931     1.007825032230
         H            5.151788309525    -1.145665927611     0.591885634069     1.007825032230
         H            4.467914309525    -2.137270927611    -0.704185365931     1.007825032230
         H            5.202958309525    -0.571974927611    -1.078352365931     1.007825032230
         H           -1.182237690475    -0.750799927611     1.837491634069     1.007825032230
         H           -2.192775690475     1.655441072389    -1.565364365931     1.007825032230
         H           -3.328932690475    -1.999092927611     1.603036634069     1.007825032230
         H           -4.357181690475     0.417715072389    -1.807570365931     1.007825032230
         H           -4.916497690475    -1.413611927611    -0.219405365931     1.007825032230

  Basis Set: AUG-CC-PVTZ
    Blend: AUG-CC-PVTZ
  Basis Set: (AUG-CC-PVTZ AUX)
    Blend: AUG-CC-PVTZ-JKFIT
	 Reference Energy          =    -590.3285450561909329 [Eh]
	 Singles Energy            =      -0.0000000000000000 [Eh]
	 Same-Spin Energy          =      -0.6438502249478832 [Eh]
	 Opposite-Spin Energy      =      -1.9816634838723080 [Eh]
	 Correlation Energy        =      -2.6255137088201912 [Eh]
	 Total Energy              =    -592.9540587650111547 [Eh]

	 ================> DF-SCS-MP2 Energies <==================
	-----------------------------------------------------------
	 SCS Same-Spin Scale       =       0.3333333333333333 [-]
	 SCS Opposite-Spin Scale   =       1.2000000000000000 [-]
	 SCS Same-Spin Energy      =      -0.2146167416492944 [Eh]
	 SCS Opposite-Spin Energy  =      -2.3779961806467695 [Eh]
	 SCS Correlation Energy    =      -2.5926129222960639 [Eh]
	 SCS Total Energy          =    -592.9211579784870310 [Eh]
	-----------------------------------------------------------

  Dipole Moment: [D]
     X:     2.0259      Y:    -0.1949      Z:     0.1673     Total:     2.0422

*** Psi4 exiting successfully. Buy a developer a beer!
