                               Psi4 1.4a3.dev225

  ==> Input File <==

--------------------------------------------------------------------------
#psi4
#
memory 32 gb

molecule  {
0 1
  O       -0.4771680     1.3164760     0.3008390
  N        0.7985240    -0.5535590    -0.2772820
  C        3.2200150    -0.4235850    -0.1586420
  C        0.7425440     0.7008700     0.1517020
  C       -1.5372563     0.5437548     0.1893048
  C        3.1140170     0.9030370     0.2913960
  C        1.8654780     1.4834140     0.4539590
  C        2.0264240    -1.0936290    -0.4226860
  C        4.5555360    -1.0893210    -0.3460000
  C       -1.9196720    -0.4880720     1.0459920
  C       -2.4970780     0.8728280    -0.8843220
  C       -3.1225630    -1.1795470     0.9070330
  C       -3.7017300     0.1773150    -1.0087090
  C       -4.0153870    -0.8504980    -0.1174150
  H        4.0120030     1.4769520     0.5152690
  H        1.7375180     2.5038470     0.8013060
  H        2.0412640    -2.1246280    -0.7760920
  H        5.1157190    -1.1239590     0.5937180
  H        4.4318450    -2.1155640    -0.7023530
  H        5.1668890    -0.5502680    -1.0765200
  H       -1.2183070    -0.7290930     1.8393240
  H       -2.2288450     1.6771480    -1.5635320
  H       -3.3650020    -1.9773860     1.6048690
  H       -4.3932510     0.4394220    -1.8057380
  H       -4.9525670    -1.3919050    -0.2175730
units angstrom
no_reorient  #important for SAPT in psi4, default
symmetry c1  #important for SAPT in psi4, default
}

set PROPERTIES_ORIGIN ["COM"]
properties('MP2/aug-cc-pvtz', properties = ['dipole'])
--------------------------------------------------------------------------

    Molecular point group: c1
  Charge       = 0
  Multiplicity = 1
  Basis Set: AUG-CC-PVTZ
    Blend: AUG-CC-PVTZ
  Basis Set: (AUG-CC-PVTZ AUX)
    Blend: AUG-CC-PVTZ-JKFIT

    Orbital Energies [Eh]
    ---------------------

    Doubly Occupied:

       1A    -20.610030     2A    -15.568809     3A    -11.346576
       4A    -11.299546     5A    -11.281173     6A    -11.265205
       7A    -11.247807     8A    -11.246147     9A    -11.235615
      10A    -11.233635    11A    -11.233588    12A    -11.231904
      13A    -11.226639    14A    -11.226052    15A     -1.465899
      16A     -1.260523    17A     -1.133634    18A     -1.106879
      19A     -1.059602    20A     -1.008807    21A     -0.996513
      22A     -0.947334    23A     -0.885350    24A     -0.848467
      25A     -0.826823    26A     -0.800447    27A     -0.743249
      28A     -0.712416    29A     -0.677837    30A     -0.663637
      31A     -0.648342    32A     -0.630663    33A     -0.618599
      34A     -0.599659    35A     -0.591623    36A     -0.576674
      37A     -0.571776    38A     -0.568355    39A     -0.553486
      40A     -0.525248    41A     -0.517347    42A     -0.513593
      43A     -0.482716    44A     -0.463384    45A     -0.432516
      46A     -0.388264    47A     -0.336262    48A     -0.327261
      49A     -0.305713

  @DF-RHF Final Energy:  -590.31974070558465

   => Energetics <=

    Nuclear Repulsion Energy =            802.2225481587134936
    One-Electron Energy =               -2393.0013287663878145
    Two-Electron Energy =                1000.4590399020897848
    Total Energy =                       -590.3197407055846497
  Basis Set: (AUG-CC-PVTZ AUX)
    Blend: AUG-CC-PVTZ-RI
    Molecular point group: c1

    Geometry (in Angstrom), charge = 0, multiplicity = 1:

       Center              X                  Y                   Z               Mass
    ------------   -----------------  -----------------  -----------------  -----------------
         O           -0.448588528174     1.294658223300     0.293518193962    15.994914619570
         N            0.827103471826    -0.575376776700    -0.284602806038    14.003074004430
         C            3.248594471826    -0.445402776700    -0.165962806038    12.000000000000
         C            0.771123471826     0.679052223300     0.144381193962    12.000000000000
         C           -1.508676828174     0.521937023300     0.181983993962    12.000000000000
         C            3.142596471826     0.881219223300     0.284075193962    12.000000000000
         C            1.894057471826     1.461596223300     0.446638193962    12.000000000000
         C            2.055003471826    -1.115446776700    -0.430006806038    12.000000000000
         C            4.584115471826    -1.111138776700    -0.353320806038    12.000000000000
         C           -1.891092528174    -0.509889776700     1.038671193962    12.000000000000
         C           -2.468498528174     0.851010223300    -0.891642806038    12.000000000000
         C           -3.093983528174    -1.201364776700     0.899712193962    12.000000000000
         C           -3.673150528174     0.155497223300    -1.016029806038    12.000000000000
         C           -3.986807528174    -0.872315776700    -0.124735806038    12.000000000000
         H            4.040582471826     1.455134223300     0.507948193962     1.007825032230
         H            1.766097471826     2.482029223300     0.793985193962     1.007825032230
         H            2.069843471826    -2.146445776700    -0.783412806038     1.007825032230
         H            5.144298471826    -1.145776776700     0.586397193962     1.007825032230
         H            4.460424471826    -2.137381776700    -0.709673806038     1.007825032230
         H            5.195468471826    -0.572085776700    -1.083840806038     1.007825032230
         H           -1.189727528174    -0.750910776700     1.832003193962     1.007825032230
         H           -2.200265528174     1.655330223300    -1.570852806038     1.007825032230
         H           -3.336422528174    -1.999203776700     1.597548193962     1.007825032230
         H           -4.364671528174     0.417604223300    -1.813058806038     1.007825032230
         H           -4.923987528174    -1.413722776700    -0.224893806038     1.007825032230

  Basis Set: AUG-CC-PVTZ
    Blend: AUG-CC-PVTZ
  Basis Set: (AUG-CC-PVTZ AUX)
    Blend: AUG-CC-PVTZ-JKFIT
	 Reference Energy          =    -590.3197407055846497 [Eh]
	 Singles Energy            =      -0.0000000000000000 [Eh]
	 Same-Spin Energy          =      -0.6446694206325616 [Eh]
	 Opposite-Spin Energy      =      -1.9821961372002228 [Eh]
	 Correlation Energy        =      -2.6268655578327844 [Eh]
	 Total Energy              =    -592.9466062634173795 [Eh]

	 ================> DF-SCS-MP2 Energies <==================
	-----------------------------------------------------------
	 SCS Same-Spin Scale       =       0.3333333333333333 [-]
	 SCS Opposite-Spin Scale   =       1.2000000000000000 [-]
	 SCS Same-Spin Energy      =      -0.2148898068775205 [Eh]
	 SCS Opposite-Spin Energy  =      -2.3786353646402674 [Eh]
	 SCS Correlation Energy    =      -2.5935251715177881 [Eh]
	 SCS Total Energy          =    -592.9132658771023898 [Eh]
	-----------------------------------------------------------

  Dipole Moment: [D]
     X:     2.7002      Y:    -0.0533      Z:     0.2094     Total:     2.7089

*** Psi4 exiting successfully. Buy a developer a beer!
