                               Psi4 1.4a3.dev225

  ==> Input File <==

--------------------------------------------------------------------------
#psi4
#
memory 32 gb

molecule  {
0 1
  O       -0.4771680     1.3164760     0.3008390
  N        0.7985240    -0.5535590    -0.2772820
  C        3.2200150    -0.4235850    -0.1586420
  C        0.7425440     0.7008700     0.1517020
  C       -1.6208490     0.5302780     0.1412880
  C        3.1140170     0.9030370     0.2913960
  C        1.8654780     1.4834140     0.4539590
  C        2.0719260    -1.1136423    -0.4280742
  C        4.5555360    -1.0893210    -0.3460000
  C       -1.9196720    -0.4880720     1.0459920
  C       -2.4970780     0.8728280    -0.8843220
  C       -3.1225630    -1.1795470     0.9070330
  C       -3.7017300     0.1773150    -1.0087090
  C       -4.0153870    -0.8504980    -0.1174150
  H        4.0120030     1.4769520     0.5152690
  H        1.7375180     2.5038470     0.8013060
  H        2.0412640    -2.1246280    -0.7760920
  H        5.1157190    -1.1239590     0.5937180
  H        4.4318450    -2.1155640    -0.7023530
  H        5.1668890    -0.5502680    -1.0765200
  H       -1.2183070    -0.7290930     1.8393240
  H       -2.2288450     1.6771480    -1.5635320
  H       -3.3650020    -1.9773860     1.6048690
  H       -4.3932510     0.4394220    -1.8057380
  H       -4.9525670    -1.3919050    -0.2175730
units angstrom
no_reorient  #important for SAPT in psi4, default
symmetry c1  #important for SAPT in psi4, default
}

set PROPERTIES_ORIGIN ["COM"]
properties('MP2/aug-cc-pvtz', properties = ['dipole'])
--------------------------------------------------------------------------

    Molecular point group: c1
  Charge       = 0
  Multiplicity = 1
  Basis Set: AUG-CC-PVTZ
    Blend: AUG-CC-PVTZ
  Basis Set: (AUG-CC-PVTZ AUX)
    Blend: AUG-CC-PVTZ-JKFIT

    Orbital Energies [Eh]
    ---------------------

    Doubly Occupied:

       1A    -20.598494     2A    -15.563661     3A    -11.340290
       4A    -11.295257     5A    -11.275203     6A    -11.263227
       7A    -11.243348     8A    -11.242016     9A    -11.236254
      10A    -11.236147    11A    -11.232289    12A    -11.231578
      13A    -11.230927    14A    -11.230009    15A     -1.430297
      16A     -1.241223    17A     -1.145266    18A     -1.102589
      19A     -1.054604    20A     -1.014765    21A     -1.004018
      22A     -0.942481    23A     -0.881626    24A     -0.840658
      25A     -0.829870    26A     -0.798360    27A     -0.736696
      28A     -0.702378    29A     -0.678615    30A     -0.654911
      31A     -0.644310    32A     -0.629574    33A     -0.612523
      34A     -0.595734    35A     -0.591628    36A     -0.586011
      37A     -0.568890    38A     -0.563273    39A     -0.547455
      40A     -0.519984    41A     -0.511988    42A     -0.510261
      43A     -0.491887    44A     -0.476155    45A     -0.429007
      46A     -0.379524    47A     -0.336062    48A     -0.334073
      49A     -0.316146

  @DF-RHF Final Energy:  -590.32781602006435

   => Energetics <=

    Nuclear Repulsion Energy =            801.0948352162475885
    One-Electron Energy =               -2391.0022129844369374
    Two-Electron Energy =                 999.5795617481248883
    Total Energy =                       -590.3278160200643470
  Basis Set: (AUG-CC-PVTZ AUX)
    Blend: AUG-CC-PVTZ-RI
    Molecular point group: c1

    Geometry (in Angstrom), charge = 0, multiplicity = 1:

       Center              X                  Y                   Z               Mass
    ------------   -----------------  -----------------  -----------------  -----------------
         O           -0.446118902264     1.296829567452     0.296980728695    15.994914619570
         N            0.829573097736    -0.573205432548    -0.281140271305    14.003074004430
         C            3.251064097736    -0.443231432548    -0.162500271305    12.000000000000
         C            0.773593097736     0.681223567452     0.147843728695    12.000000000000
         C           -1.589799902264     0.510631567452     0.137429728695    12.000000000000
         C            3.145066097736     0.883390567452     0.287537728695    12.000000000000
         C            1.896527097736     1.463767567452     0.450100728695    12.000000000000
         C            2.102975097736    -1.133288732548    -0.431932471305    12.000000000000
         C            4.586585097736    -1.108967432548    -0.349858271305    12.000000000000
         C           -1.888622902264    -0.507718432548     1.042133728695    12.000000000000
         C           -2.466028902264     0.853181567452    -0.888180271305    12.000000000000
         C           -3.091513902264    -1.199193432548     0.903174728695    12.000000000000
         C           -3.670680902264     0.157668567452    -1.012567271305    12.000000000000
         C           -3.984337902264    -0.870144432548    -0.121273271305    12.000000000000
         H            4.043052097736     1.457305567452     0.511410728695     1.007825032230
         H            1.768567097736     2.484200567452     0.797447728695     1.007825032230
         H            2.072313097736    -2.144274432548    -0.779950271305     1.007825032230
         H            5.146768097736    -1.143605432548     0.589859728695     1.007825032230
         H            4.462894097736    -2.135210432548    -0.706211271305     1.007825032230
         H            5.197938097736    -0.569914432548    -1.080378271305     1.007825032230
         H           -1.187257902264    -0.748739432548     1.835465728695     1.007825032230
         H           -2.197795902264     1.657501567452    -1.567390271305     1.007825032230
         H           -3.333952902264    -1.997032432548     1.601010728695     1.007825032230
         H           -4.362201902264     0.419775567452    -1.809596271305     1.007825032230
         H           -4.921517902264    -1.411551432548    -0.221431271305     1.007825032230

  Basis Set: AUG-CC-PVTZ
    Blend: AUG-CC-PVTZ
  Basis Set: (AUG-CC-PVTZ AUX)
    Blend: AUG-CC-PVTZ-JKFIT
	 Reference Energy          =    -590.3278160200643470 [Eh]
	 Singles Energy            =      -0.0000000000000000 [Eh]
	 Same-Spin Energy          =      -0.6438932736263238 [Eh]
	 Opposite-Spin Energy      =      -1.9823435658574564 [Eh]
	 Correlation Energy        =      -2.6262368394837803 [Eh]
	 Total Energy              =    -592.9540528595481419 [Eh]

	 ================> DF-SCS-MP2 Energies <==================
	-----------------------------------------------------------
	 SCS Same-Spin Scale       =       0.3333333333333333 [-]
	 SCS Opposite-Spin Scale   =       1.2000000000000000 [-]
	 SCS Same-Spin Energy      =      -0.2146310912087746 [Eh]
	 SCS Opposite-Spin Energy  =      -2.3788122790289474 [Eh]
	 SCS Correlation Energy    =      -2.5934433702377220 [Eh]
	 SCS Total Energy          =    -592.9212593903021116 [Eh]
	-----------------------------------------------------------

  Dipole Moment: [D]
     X:     2.0725      Y:    -0.1782      Z:     0.1617     Total:     2.0865

*** Psi4 exiting successfully. Buy a developer a beer!
