                               Psi4 1.4a3.dev225

  ==> Input File <==

--------------------------------------------------------------------------
#psi4
#
memory 32 gb

molecule  {
0 1
  O       -0.4771680     1.3164760     0.3008390
  N        0.7985240    -0.5535590    -0.2772820
  C        3.2200150    -0.4235850    -0.1586420
  C        0.7425440     0.7008700     0.1517020
  C       -1.6208490     0.5302780     0.1412880
  C        3.1140170     0.9030370     0.2913960
  C        1.8654780     1.4834140     0.4539590
  C        2.0264240    -1.0936290    -0.4226860
  C        4.5555360    -1.0893210    -0.3460000
  C       -1.9196720    -0.4880720     1.0459920
  C       -2.4970780     0.8728280    -0.8843220
  C       -3.1858557    -1.2481566     0.9355081
  C       -3.7017300     0.1773150    -1.0087090
  C       -4.0153870    -0.8504980    -0.1174150
  H        4.0120030     1.4769520     0.5152690
  H        1.7375180     2.5038470     0.8013060
  H        2.0412640    -2.1246280    -0.7760920
  H        5.1157190    -1.1239590     0.5937180
  H        4.4318450    -2.1155640    -0.7023530
  H        5.1668890    -0.5502680    -1.0765200
  H       -1.2183070    -0.7290930     1.8393240
  H       -2.2288450     1.6771480    -1.5635320
  H       -3.3650020    -1.9773860     1.6048690
  H       -4.3932510     0.4394220    -1.8057380
  H       -4.9525670    -1.3919050    -0.2175730
units angstrom
no_reorient  #important for SAPT in psi4, default
symmetry c1  #important for SAPT in psi4, default
}

set PROPERTIES_ORIGIN ["COM"]
properties('MP2/aug-cc-pvtz', properties = ['dipole'])
--------------------------------------------------------------------------

    Molecular point group: c1
  Charge       = 0
  Multiplicity = 1
  Basis Set: AUG-CC-PVTZ
    Blend: AUG-CC-PVTZ
  Basis Set: (AUG-CC-PVTZ AUX)
    Blend: AUG-CC-PVTZ-JKFIT

    Orbital Energies [Eh]
    ---------------------

    Doubly Occupied:

       1A    -20.598433     2A    -15.562916     3A    -11.340353
       4A    -11.294841     5A    -11.276982     6A    -11.261151
       7A    -11.242912     8A    -11.240872     9A    -11.240732
      10A    -11.239366    11A    -11.237311    12A    -11.234212
      13A    -11.232852    14A    -11.232559    15A     -1.430422
      16A     -1.253059    17A     -1.138843    18A     -1.102316
      19A     -1.052871    20A     -1.011016    21A     -1.002218
      22A     -0.942638    23A     -0.876400    24A     -0.844872
      25A     -0.835006    26A     -0.799299    27A     -0.739173
      28A     -0.704633    29A     -0.675707    30A     -0.651743
      31A     -0.645577    32A     -0.637284    33A     -0.611428
      34A     -0.600627    35A     -0.592514    36A     -0.585056
      37A     -0.566720    38A     -0.562297    39A     -0.549055
      40A     -0.520720    41A     -0.520021    42A     -0.496488
      43A     -0.492044    44A     -0.479509    45A     -0.427665
      46A     -0.384087    47A     -0.334487    48A     -0.327856
      49A     -0.313427

  @DF-RHF Final Energy:  -590.31801678515512

   => Energetics <=

    Nuclear Repulsion Energy =            799.8803339610104786
    One-Electron Energy =               -2388.5115572358299687
    Two-Electron Energy =                 998.3132064896644806
    Total Energy =                       -590.3180167851551232
  Basis Set: (AUG-CC-PVTZ AUX)
    Blend: AUG-CC-PVTZ-RI
    Molecular point group: c1

    Geometry (in Angstrom), charge = 0, multiplicity = 1:

       Center              X                  Y                   Z               Mass
    ------------   -----------------  -----------------  -----------------  -----------------
         O           -0.439065153973     1.299980328179     0.294785187970    15.994914619570
         N            0.836626846027    -0.570054671821    -0.283335812030    14.003074004430
         C            3.258117846027    -0.440080671821    -0.164695812030    12.000000000000
         C            0.780646846027     0.684374328179     0.145648187970    12.000000000000
         C           -1.582746153973     0.513782328179     0.135234187970    12.000000000000
         C            3.152119846027     0.886541328179     0.285342187970    12.000000000000
         C            1.903580846027     1.466918328179     0.447905187970    12.000000000000
         C            2.064526846027    -1.110124671821    -0.428739812030    12.000000000000
         C            4.593638846027    -1.105816671821    -0.352053812030    12.000000000000
         C           -1.881569153973    -0.504567671821     1.039938187970    12.000000000000
         C           -2.458975153973     0.856332328179    -0.890375812030    12.000000000000
         C           -3.147752853973    -1.264652271821     0.929454287970    12.000000000000
         C           -3.663627153973     0.160819328179    -1.014762812030    12.000000000000
         C           -3.977284153973    -0.866993671821    -0.123468812030    12.000000000000
         H            4.050105846027     1.460456328179     0.509215187970     1.007825032230
         H            1.775620846027     2.487351328179     0.795252187970     1.007825032230
         H            2.079366846027    -2.141123671821    -0.782145812030     1.007825032230
         H            5.153821846027    -1.140454671821     0.587664187970     1.007825032230
         H            4.469947846027    -2.132059671821    -0.708406812030     1.007825032230
         H            5.204991846027    -0.566763671821    -1.082573812030     1.007825032230
         H           -1.180204153973    -0.745588671821     1.833270187970     1.007825032230
         H           -2.190742153973     1.660652328179    -1.569585812030     1.007825032230
         H           -3.326899153973    -1.993881671821     1.598815187970     1.007825032230
         H           -4.355148153973     0.422926328179    -1.811791812030     1.007825032230
         H           -4.914464153973    -1.408400671821    -0.223626812030     1.007825032230

  Basis Set: AUG-CC-PVTZ
    Blend: AUG-CC-PVTZ
  Basis Set: (AUG-CC-PVTZ AUX)
    Blend: AUG-CC-PVTZ-JKFIT
	 Reference Energy          =    -590.3180167851551232 [Eh]
	 Singles Energy            =      -0.0000000000000000 [Eh]
	 Same-Spin Energy          =      -0.6441437096497945 [Eh]
	 Opposite-Spin Energy      =      -1.9827535704568953 [Eh]
	 Correlation Energy        =      -2.6268972801066899 [Eh]
	 Total Energy              =    -592.9449140652618553 [Eh]

	 ================> DF-SCS-MP2 Energies <==================
	-----------------------------------------------------------
	 SCS Same-Spin Scale       =       0.3333333333333333 [-]
	 SCS Opposite-Spin Scale   =       1.2000000000000000 [-]
	 SCS Same-Spin Energy      =      -0.2147145698832648 [Eh]
	 SCS Opposite-Spin Energy  =      -2.3793042845482741 [Eh]
	 SCS Correlation Energy    =      -2.5940188544315390 [Eh]
	 SCS Total Energy          =    -592.9120356395866338 [Eh]
	-----------------------------------------------------------

  Dipole Moment: [D]
     X:     2.0045      Y:    -0.2046      Z:     0.1619     Total:     2.0214

*** Psi4 exiting successfully. Buy a developer a beer!
