                               Psi4 1.4a3.dev225

  ==> Input File <==

--------------------------------------------------------------------------
#psi4
#
memory 32 gb

molecule  {
0 1
  O       -0.4771680     1.3164760     0.3008390
  N        0.7985240    -0.5535590    -0.2772820
  C        3.2200150    -0.4235850    -0.1586420
  C        0.7425440     0.7008700     0.1517020
  C       -1.6208490     0.5302780     0.1412880
  C        3.1140170     0.9030370     0.2913960
  C        1.8654780     1.4834140     0.4539590
  C        2.0264240    -1.0936290    -0.4226860
  C        4.5555360    -1.0893210    -0.3460000
  C       -1.9196720    -0.4880720     1.0459920
  C       -2.4970780     0.8728280    -0.8843220
  C       -3.1225630    -1.1795470     0.9070330
  C       -3.7017300     0.1773150    -1.0087090
  C       -4.0153870    -0.8504980    -0.1174150
  H        4.0120030     1.4769520     0.5152690
  H        1.7375180     2.5038470     0.8013060
  H        2.0412640    -2.1246280    -0.7760920
  H        5.1107826    -1.0477650     0.5963635
  H        4.4318450    -2.1155640    -0.7023530
  H        5.1668890    -0.5502680    -1.0765200
  H       -1.2183070    -0.7290930     1.8393240
  H       -2.2288450     1.6771480    -1.5635320
  H       -3.3650020    -1.9773860     1.6048690
  H       -4.3932510     0.4394220    -1.8057380
  H       -4.9525670    -1.3919050    -0.2175730
units angstrom
no_reorient  #important for SAPT in psi4, default
symmetry c1  #important for SAPT in psi4, default
}

set PROPERTIES_ORIGIN ["COM"]
properties('MP2/aug-cc-pvtz', properties = ['dipole'])
--------------------------------------------------------------------------

    Molecular point group: c1
  Charge       = 0
  Multiplicity = 1
  Basis Set: AUG-CC-PVTZ
    Blend: AUG-CC-PVTZ
  Basis Set: (AUG-CC-PVTZ AUX)
    Blend: AUG-CC-PVTZ-JKFIT

    Orbital Energies [Eh]
    ---------------------

    Doubly Occupied:

       1A    -20.598415     2A    -15.563297     3A    -11.340465
       4A    -11.295578     5A    -11.276926     6A    -11.261350
       7A    -11.243009     8A    -11.241242     9A    -11.236672
      10A    -11.236572    11A    -11.233119    12A    -11.231999
      13A    -11.231262    14A    -11.230373    15A     -1.430583
      16A     -1.253303    17A     -1.145792    18A     -1.102847
      19A     -1.053062    20A     -1.015184    21A     -1.003758
      22A     -0.942975    23A     -0.877713    24A     -0.841810
      25A     -0.830475    26A     -0.800805    27A     -0.736731
      28A     -0.704920    29A     -0.679188    30A     -0.655391
      31A     -0.642613    32A     -0.626508    33A     -0.610997
      34A     -0.595039    35A     -0.591484    36A     -0.585454
      37A     -0.568745    38A     -0.563465    39A     -0.553930
      40A     -0.520699    41A     -0.513013    42A     -0.511734
      43A     -0.492609    44A     -0.477276    45A     -0.428077
      46A     -0.384266    47A     -0.335358    48A     -0.332100
      49A     -0.313231

  @DF-RHF Final Energy:  -590.33094073665256

   => Energetics <=

    Nuclear Repulsion Energy =            801.7867706201809597
    One-Electron Energy =               -2392.3525977946633247
    Two-Electron Energy =                1000.2348864378298003
    Total Energy =                       -590.3309407366525647
  Basis Set: (AUG-CC-PVTZ AUX)
    Blend: AUG-CC-PVTZ-RI
    Molecular point group: c1

    Geometry (in Angstrom), charge = 0, multiplicity = 1:

       Center              X                  Y                   Z               Mass
    ------------   -----------------  -----------------  -----------------  -----------------
         O           -0.443141881900     1.295117103323     0.296616977221    15.994914619570
         N            0.832550118100    -0.574917896677    -0.281504022779    14.003074004430
         C            3.254041118100    -0.444943896677    -0.162864022779    12.000000000000
         C            0.776570118100     0.679511103323     0.147479977221    12.000000000000
         C           -1.586822881900     0.508919103323     0.137065977221    12.000000000000
         C            3.148043118100     0.881678103323     0.287173977221    12.000000000000
         C            1.899504118100     1.462055103323     0.449736977221    12.000000000000
         C            2.060450118100    -1.114987896677    -0.426908022779    12.000000000000
         C            4.589562118100    -1.110679896677    -0.350222022779    12.000000000000
         C           -1.885645881900    -0.509430896677     1.041769977221    12.000000000000
         C           -2.463051881900     0.851469103323    -0.888544022779    12.000000000000
         C           -3.088536881900    -1.200905896677     0.902810977221    12.000000000000
         C           -3.667703881900     0.155956103323    -1.012931022779    12.000000000000
         C           -3.981360881900    -0.871856896677    -0.121637022779    12.000000000000
         H            4.046029118100     1.455593103323     0.511046977221     1.007825032230
         H            1.771544118100     2.482488103323     0.797083977221     1.007825032230
         H            2.075290118100    -2.145986896677    -0.780314022779     1.007825032230
         H            5.144808718100    -1.069123896677     0.592141477221     1.007825032230
         H            4.465871118100    -2.136922896677    -0.706575022779     1.007825032230
         H            5.200915118100    -0.571626896677    -1.080742022779     1.007825032230
         H           -1.184280881900    -0.750451896677     1.835101977221     1.007825032230
         H           -2.194818881900     1.655789103323    -1.567754022779     1.007825032230
         H           -3.330975881900    -1.998744896677     1.600646977221     1.007825032230
         H           -4.359224881900     0.418063103323    -1.809960022779     1.007825032230
         H           -4.918540881900    -1.413263896677    -0.221795022779     1.007825032230

  Basis Set: AUG-CC-PVTZ
    Blend: AUG-CC-PVTZ
  Basis Set: (AUG-CC-PVTZ AUX)
    Blend: AUG-CC-PVTZ-JKFIT
	 Reference Energy          =    -590.3309407366525647 [Eh]
	 Singles Energy            =      -0.0000000000000000 [Eh]
	 Same-Spin Energy          =      -0.6440700180670340 [Eh]
	 Opposite-Spin Energy      =      -1.9815933552421272 [Eh]
	 Correlation Energy        =      -2.6256633733091612 [Eh]
	 Total Energy              =    -592.9566041099617451 [Eh]

	 ================> DF-SCS-MP2 Energies <==================
	-----------------------------------------------------------
	 SCS Same-Spin Scale       =       0.3333333333333333 [-]
	 SCS Opposite-Spin Scale   =       1.2000000000000000 [-]
	 SCS Same-Spin Energy      =      -0.2146900060223447 [Eh]
	 SCS Opposite-Spin Energy  =      -2.3779120262905526 [Eh]
	 SCS Correlation Energy    =      -2.5926020323128971 [Eh]
	 SCS Total Energy          =    -592.9235427689654898 [Eh]
	-----------------------------------------------------------

  Dipole Moment: [D]
     X:     2.0337      Y:    -0.1661      Z:     0.1465     Total:     2.0457

*** Psi4 exiting successfully. Buy a developer a beer!
