                               Psi4 1.4a3.dev225

  ==> Input File <==

--------------------------------------------------------------------------
#psi4
#
memory 32 gb

molecule  {
0 1
  O       -0.4771680     1.3164760     0.3008390
  N        0.7985240    -0.5535590    -0.2772820
  C        3.2200150    -0.4235850    -0.1586420
  C        0.7425440     0.7008700     0.1517020
  C       -1.6208490     0.5302780     0.1412880
  C        3.1140170     0.9030370     0.2913960
  C        1.8654780     1.4834140     0.4539590
  C        2.0264240    -1.0936290    -0.4226860
  C        4.5555360    -1.0893210    -0.3460000
  C       -1.9196720    -0.4880720     1.0459920
  C       -2.4970780     0.8728280    -0.8843220
  C       -3.1536844    -1.2140733     0.9219037
  C       -3.7017300     0.1773150    -1.0087090
  C       -4.0153870    -0.8504980    -0.1174150
  H        4.0120030     1.4769520     0.5152690
  H        1.7375180     2.5038470     0.8013060
  H        2.0412640    -2.1246280    -0.7760920
  H        5.1157190    -1.1239590     0.5937180
  H        4.4318450    -2.1155640    -0.7023530
  H        5.1668890    -0.5502680    -1.0765200
  H       -1.2183070    -0.7290930     1.8393240
  H       -2.2288450     1.6771480    -1.5635320
  H       -3.3650020    -1.9773860     1.6048690
  H       -4.3932510     0.4394220    -1.8057380
  H       -4.9525670    -1.3919050    -0.2175730
units angstrom
no_reorient  #important for SAPT in psi4, default
symmetry c1  #important for SAPT in psi4, default
}

set PROPERTIES_ORIGIN ["COM"]
properties('MP2/aug-cc-pvtz', properties = ['dipole'])
--------------------------------------------------------------------------

    Molecular point group: c1
  Charge       = 0
  Multiplicity = 1
  Basis Set: AUG-CC-PVTZ
    Blend: AUG-CC-PVTZ
  Basis Set: (AUG-CC-PVTZ AUX)
    Blend: AUG-CC-PVTZ-JKFIT

    Orbital Energies [Eh]
    ---------------------

    Doubly Occupied:

       1A    -20.598488     2A    -15.563138     3A    -11.340520
       4A    -11.295212     5A    -11.277126     6A    -11.261276
       7A    -11.243049     8A    -11.241001     9A    -11.238140
      10A    -11.236934    11A    -11.236351    12A    -11.232724
      13A    -11.232649    14A    -11.231464    15A     -1.430555
      16A     -1.253245    17A     -1.142029    18A     -1.102454
      19A     -1.052922    20A     -1.012154    21A     -1.003629
      22A     -0.942765    23A     -0.876991    24A     -0.842823
      25A     -0.833239    26A     -0.799898    27A     -0.737770
      28A     -0.704670    29A     -0.677368    30A     -0.653574
      31A     -0.643678    32A     -0.631720    33A     -0.611275
      34A     -0.597840    35A     -0.592450    36A     -0.585761
      37A     -0.568142    38A     -0.562895    39A     -0.549294
      40A     -0.520842    41A     -0.516391    42A     -0.504947
      43A     -0.492407    44A     -0.479275    45A     -0.427930
      46A     -0.384256    47A     -0.333321    48A     -0.331321
      49A     -0.313654

  @DF-RHF Final Energy:  -590.32792483902494

   => Energetics <=

    Nuclear Repulsion Energy =            800.7818526360915712
    One-Electron Energy =               -2390.3364416740550951
    Two-Electron Energy =                 999.2266641989385789
    Total Energy =                       -590.3279248390249450
  Basis Set: (AUG-CC-PVTZ AUX)
    Blend: AUG-CC-PVTZ-RI
    Molecular point group: c1

    Geometry (in Angstrom), charge = 0, multiplicity = 1:

       Center              X                  Y                   Z               Mass
    ------------   -----------------  -----------------  -----------------  -----------------
         O           -0.441150993195     1.297770523665     0.295667234735    15.994914619570
         N            0.834541006805    -0.572264476335    -0.282453765265    14.003074004430
         C            3.256032006805    -0.442290476335    -0.163813765265    12.000000000000
         C            0.778561006805     0.682164523665     0.146530234735    12.000000000000
         C           -1.584831993195     0.511572523665     0.136116234735    12.000000000000
         C            3.150034006805     0.884331523665     0.286224234735    12.000000000000
         C            1.901495006805     1.464708523665     0.448787234735    12.000000000000
         C            2.062441006805    -1.112334476335    -0.427857765265    12.000000000000
         C            4.591553006805    -1.108026476335    -0.351171765265    12.000000000000
         C           -1.883654993195    -0.506777476335     1.040820234735    12.000000000000
         C           -2.461060993195     0.854122523665    -0.889493765265    12.000000000000
         C           -3.117667393195    -1.232778776335     0.916731934735    12.000000000000
         C           -3.665712993195     0.158609523665    -1.013880765265    12.000000000000
         C           -3.979369993195    -0.869203476335    -0.122586765265    12.000000000000
         H            4.048020006805     1.458246523665     0.510097234735     1.007825032230
         H            1.773535006805     2.485141523665     0.796134234735     1.007825032230
         H            2.077281006805    -2.143333476335    -0.781263765265     1.007825032230
         H            5.151736006805    -1.142664476335     0.588546234735     1.007825032230
         H            4.467862006805    -2.134269476335    -0.707524765265     1.007825032230
         H            5.202906006805    -0.568973476335    -1.081691765265     1.007825032230
         H           -1.182289993195    -0.747798476335     1.834152234735     1.007825032230
         H           -2.192827993195     1.658442523665    -1.568703765265     1.007825032230
         H           -3.328984993195    -1.996091476335     1.599697234735     1.007825032230
         H           -4.357233993195     0.420716523665    -1.810909765265     1.007825032230
         H           -4.916549993195    -1.410610476335    -0.222744765265     1.007825032230

  Basis Set: AUG-CC-PVTZ
    Blend: AUG-CC-PVTZ
  Basis Set: (AUG-CC-PVTZ AUX)
    Blend: AUG-CC-PVTZ-JKFIT
	 Reference Energy          =    -590.3279248390249450 [Eh]
	 Singles Energy            =      -0.0000000000000000 [Eh]
	 Same-Spin Energy          =      -0.6440410019698369 [Eh]
	 Opposite-Spin Energy      =      -1.9819342753842890 [Eh]
	 Correlation Energy        =      -2.6259752773541258 [Eh]
	 Total Energy              =    -592.9539001163790317 [Eh]

	 ================> DF-SCS-MP2 Energies <==================
	-----------------------------------------------------------
	 SCS Same-Spin Scale       =       0.3333333333333333 [-]
	 SCS Opposite-Spin Scale   =       1.2000000000000000 [-]
	 SCS Same-Spin Energy      =      -0.2146803339899456 [Eh]
	 SCS Opposite-Spin Energy  =      -2.3783211304611469 [Eh]
	 SCS Correlation Energy    =      -2.5930014644510924 [Eh]
	 SCS Total Energy          =    -592.9209263034759942 [Eh]
	-----------------------------------------------------------

  Dipole Moment: [D]
     X:     2.0099      Y:    -0.1977      Z:     0.1627     Total:     2.0261

*** Psi4 exiting successfully. Buy a developer a beer!
