                               Psi4 1.4a3.dev225

  ==> Input File <==

--------------------------------------------------------------------------
#psi4
#
memory 32 gb

molecule  {
0 1
  O       -0.4771680     1.3164760     0.3008390
  N        0.7985240    -0.5535590    -0.2772820
  C        3.2200150    -0.4235850    -0.1586420
  C        0.7425440     0.7008700     0.1517020
  C       -1.6208490     0.5302780     0.1412880
  C        3.1140170     0.9030370     0.2913960
  C        1.8654780     1.4834140     0.4539590
  C        2.0264240    -1.0936290    -0.4226860
  C        4.5555360    -1.0893210    -0.3460000
  C       -1.9196720    -0.4880720     1.0459920
  C       -2.4970780     0.8728280    -0.8843220
  C       -3.1225630    -1.1795470     0.9070330
  C       -3.7017300     0.1773150    -1.0087090
  C       -4.0153870    -0.8504980    -0.1174150
  H        4.0120030     1.4769520     0.5152690
  H        1.7375180     2.5038470     0.8013060
  H        2.0412640    -2.1246280    -0.7760920
  H        5.1157190    -1.1239590     0.5937180
  H        4.4318450    -2.1155640    -0.7023530
  H        5.1668890    -0.5502680    -1.0765200
  H       -1.1537241    -0.7512866     1.9123753
  H       -2.2288450     1.6771480    -1.5635320
  H       -3.3650020    -1.9773860     1.6048690
  H       -4.3932510     0.4394220    -1.8057380
  H       -4.9525670    -1.3919050    -0.2175730
units angstrom
no_reorient  #important for SAPT in psi4, default
symmetry c1  #important for SAPT in psi4, default
}

set PROPERTIES_ORIGIN ["COM"]
properties('MP2/aug-cc-pvtz', properties = ['dipole'])
--------------------------------------------------------------------------

    Molecular point group: c1
  Charge       = 0
  Multiplicity = 1
  Basis Set: AUG-CC-PVTZ
    Blend: AUG-CC-PVTZ
  Basis Set: (AUG-CC-PVTZ AUX)
    Blend: AUG-CC-PVTZ-JKFIT

    Orbital Energies [Eh]
    ---------------------

    Doubly Occupied:

       1A    -20.598521     2A    -15.563116     3A    -11.340515
       4A    -11.296735     5A    -11.277087     6A    -11.261239
       7A    -11.243230     8A    -11.243037     9A    -11.240987
      10A    -11.237487    11A    -11.237109    12A    -11.232636
      13A    -11.232111    14A    -11.231188    15A     -1.430626
      16A     -1.253243    17A     -1.146082    18A     -1.102432
      19A     -1.052962    20A     -1.013660    21A     -1.003411
      22A     -0.942677    23A     -0.877401    24A     -0.840370
      25A     -0.829432    26A     -0.800075    27A     -0.735686
      28A     -0.704399    29A     -0.674612    30A     -0.654773
      31A     -0.642679    32A     -0.623738    33A     -0.610593
      34A     -0.594427    35A     -0.591101    36A     -0.581577
      37A     -0.567475    38A     -0.562459    39A     -0.549432
      40A     -0.520964    41A     -0.512385    42A     -0.510297
      43A     -0.492340    44A     -0.476184    45A     -0.427855
      46A     -0.384192    47A     -0.335964    48A     -0.332661
      49A     -0.313748

  @DF-RHF Final Energy:  -590.32402827432475

   => Energetics <=

    Nuclear Repulsion Energy =            801.2625124594694626
    One-Electron Energy =               -2391.3192587279650070
    Two-Electron Energy =                 999.7327179941707982
    Total Energy =                       -590.3240282743247462
  Basis Set: (AUG-CC-PVTZ AUX)
    Blend: AUG-CC-PVTZ-RI
    Molecular point group: c1

    Geometry (in Angstrom), charge = 0, multiplicity = 1:

       Center              X                  Y                   Z               Mass
    ------------   -----------------  -----------------  -----------------  -----------------
         O           -0.443520430378     1.295652846293     0.296233601547    15.994914619570
         N            0.832171569622    -0.574382153707    -0.281887398453    14.003074004430
         C            3.253662569622    -0.444408153707    -0.163247398453    12.000000000000
         C            0.776191569622     0.680046846293     0.147096601547    12.000000000000
         C           -1.587201430378     0.509454846293     0.136682601547    12.000000000000
         C            3.147664569622     0.882213846293     0.286790601547    12.000000000000
         C            1.899125569622     1.462590846293     0.449353601547    12.000000000000
         C            2.060071569622    -1.114452153707    -0.427291398453    12.000000000000
         C            4.589183569622    -1.110144153707    -0.350605398453    12.000000000000
         C           -1.886024430378    -0.508895153707     1.041386601547    12.000000000000
         C           -2.463430430378     0.852004846293    -0.888927398453    12.000000000000
         C           -3.088915430378    -1.200370153707     0.902427601547    12.000000000000
         C           -3.668082430378     0.156491846293    -1.013314398453    12.000000000000
         C           -3.981739430378    -0.871321153707    -0.122020398453    12.000000000000
         H            4.045650569622     1.456128846293     0.510663601547     1.007825032230
         H            1.771165569622     2.483023846293     0.796700601547     1.007825032230
         H            2.074911569622    -2.145451153707    -0.780697398453     1.007825032230
         H            5.149366569622    -1.144782153707     0.589112601547     1.007825032230
         H            4.465492569622    -2.136387153707    -0.706958398453     1.007825032230
         H            5.200536569622    -0.571091153707    -1.081125398453     1.007825032230
         H           -1.120076530378    -0.772109753707     1.907769901547     1.007825032230
         H           -2.195197430378     1.656324846293    -1.568137398453     1.007825032230
         H           -3.331354430378    -1.998209153707     1.600263601547     1.007825032230
         H           -4.359603430378     0.418598846293    -1.810343398453     1.007825032230
         H           -4.918919430378    -1.412728153707    -0.222178398453     1.007825032230

  Basis Set: AUG-CC-PVTZ
    Blend: AUG-CC-PVTZ
  Basis Set: (AUG-CC-PVTZ AUX)
    Blend: AUG-CC-PVTZ-JKFIT
	 Reference Energy          =    -590.3240282743247462 [Eh]
	 Singles Energy            =      -0.0000000000000000 [Eh]
	 Same-Spin Energy          =      -0.6442926678693524 [Eh]
	 Opposite-Spin Energy      =      -1.9824363566941974 [Eh]
	 Correlation Energy        =      -2.6267290245635495 [Eh]
	 Total Energy              =    -592.9507572988883339 [Eh]

	 ================> DF-SCS-MP2 Energies <==================
	-----------------------------------------------------------
	 SCS Same-Spin Scale       =       0.3333333333333333 [-]
	 SCS Opposite-Spin Scale   =       1.2000000000000000 [-]
	 SCS Same-Spin Energy      =      -0.2147642226231175 [Eh]
	 SCS Opposite-Spin Energy  =      -2.3789236280330366 [Eh]
	 SCS Correlation Energy    =      -2.5936878506561540 [Eh]
	 SCS Total Energy          =    -592.9177161249808705 [Eh]
	-----------------------------------------------------------

  Dipole Moment: [D]
     X:     1.9917      Y:    -0.1851      Z:     0.1393     Total:     2.0051

*** Psi4 exiting successfully. Buy a developer a beer!
