                               Psi4 1.4a3.dev225

  ==> Input File <==

--------------------------------------------------------------------------
#psi4
#
memory 32 gb

molecule  {
0 1
  O       -0.4771680     1.3164760     0.3008390
  N        0.7985240    -0.5535590    -0.2772820
  C        3.2200150    -0.4235850    -0.1586420
  C        0.7425440     0.7008700     0.1517020
  C       -1.6208490     0.5302780     0.1412880
  C        3.1140170     0.9030370     0.2913960
  C        1.8654780     1.4834140     0.4539590
  C        2.0264240    -1.0936290    -0.4226860
  C        4.5555360    -1.0893210    -0.3460000
  C       -1.9196720    -0.4880720     1.0459920
  C       -2.4970780     0.8728280    -0.8843220
  C       -3.1225630    -1.1795470     0.9070330
  C       -3.7017300     0.1773150    -1.0087090
  C       -4.0153870    -0.8504980    -0.1174150
  H        4.0120030     1.4769520     0.5152690
  H        1.7375180     2.5038470     0.8013060
  H        2.0412640    -2.1246280    -0.7760920
  H        5.1259547    -1.1245919     0.6108886
  H        4.4318450    -2.1155640    -0.7023530
  H        5.1668890    -0.5502680    -1.0765200
  H       -1.2183070    -0.7290930     1.8393240
  H       -2.2288450     1.6771480    -1.5635320
  H       -3.3650020    -1.9773860     1.6048690
  H       -4.3932510     0.4394220    -1.8057380
  H       -4.9525670    -1.3919050    -0.2175730
units angstrom
no_reorient  #important for SAPT in psi4, default
symmetry c1  #important for SAPT in psi4, default
}

set PROPERTIES_ORIGIN ["COM"]
properties('MP2/aug-cc-pvtz', properties = ['dipole'])
--------------------------------------------------------------------------

    Molecular point group: c1
  Charge       = 0
  Multiplicity = 1
  Basis Set: AUG-CC-PVTZ
    Blend: AUG-CC-PVTZ
  Basis Set: (AUG-CC-PVTZ AUX)
    Blend: AUG-CC-PVTZ-JKFIT

    Orbital Energies [Eh]
    ---------------------

    Doubly Occupied:

       1A    -20.598643     2A    -15.563472     3A    -11.340819
       4A    -11.295694     5A    -11.277430     6A    -11.261497
       7A    -11.243369     8A    -11.241220     9A    -11.236768
      10A    -11.236668    11A    -11.235157    12A    -11.232111
      13A    -11.231372    14A    -11.230472    15A     -1.430795
      16A     -1.253553    17A     -1.145901    18A     -1.102534
      19A     -1.052925    20A     -1.015282    21A     -1.003667
      22A     -0.941745    23A     -0.877730    24A     -0.841911
      25A     -0.830605    26A     -0.800815    27A     -0.736862
      28A     -0.704708    29A     -0.679220    30A     -0.655520
      31A     -0.643216    32A     -0.626519    33A     -0.611103
      34A     -0.594875    35A     -0.591309    36A     -0.585223
      37A     -0.569127    38A     -0.563157    39A     -0.548594
      40A     -0.521299    41A     -0.513457    42A     -0.511659
      43A     -0.492724    44A     -0.477490    45A     -0.428263
      46A     -0.384471    47A     -0.335467    48A     -0.332366
      49A     -0.313596

  @DF-RHF Final Energy:  -590.33105969298185

   => Energetics <=

    Nuclear Repulsion Energy =            801.6298789539694098
    One-Electron Energy =               -2392.0371119329861358
    Two-Electron Energy =                1000.0761732860348729
    Total Energy =                       -590.3310596929818530
  Basis Set: (AUG-CC-PVTZ AUX)
    Blend: AUG-CC-PVTZ-RI
    Molecular point group: c1

    Geometry (in Angstrom), charge = 0, multiplicity = 1:

       Center              X                  Y                   Z               Mass
    ------------   -----------------  -----------------  -----------------  -----------------
         O           -0.443224497452     1.295535443353     0.296537884731    15.994914619570
         N            0.832467502548    -0.574499556647    -0.281583115269    14.003074004430
         C            3.253958502548    -0.444525556647    -0.162943115269    12.000000000000
         C            0.776487502548     0.679929443353     0.147400884731    12.000000000000
         C           -1.586905497452     0.509337443353     0.136986884731    12.000000000000
         C            3.147960502548     0.882096443353     0.287094884731    12.000000000000
         C            1.899421502548     1.462473443353     0.449657884731    12.000000000000
         C            2.060367502548    -1.114569556647    -0.426987115269    12.000000000000
         C            4.589479502548    -1.110261556647    -0.350301115269    12.000000000000
         C           -1.885728497452    -0.509012556647     1.041690884731    12.000000000000
         C           -2.463134497452     0.851887443353    -0.888623115269    12.000000000000
         C           -3.088619497452    -1.200487556647     0.902731884731    12.000000000000
         C           -3.667786497452     0.156374443353    -1.013010115269    12.000000000000
         C           -3.981443497452    -0.871438556647    -0.121716115269    12.000000000000
         H            4.045946502548     1.456011443353     0.510967884731     1.007825032230
         H            1.771461502548     2.482906443353     0.797004884731     1.007825032230
         H            2.075207502548    -2.145568556647    -0.780393115269     1.007825032230
         H            5.159898202548    -1.145532456647     0.606587484731     1.007825032230
         H            4.465788502548    -2.136504556647    -0.706654115269     1.007825032230
         H            5.200832502548    -0.571208556647    -1.080821115269     1.007825032230
         H           -1.184363497452    -0.750033556647     1.835022884731     1.007825032230
         H           -2.194901497452     1.656207443353    -1.567833115269     1.007825032230
         H           -3.331058497452    -1.998326556647     1.600567884731     1.007825032230
         H           -4.359307497452     0.418481443353    -1.810039115269     1.007825032230
         H           -4.918623497452    -1.412845556647    -0.221874115269     1.007825032230

  Basis Set: AUG-CC-PVTZ
    Blend: AUG-CC-PVTZ
  Basis Set: (AUG-CC-PVTZ AUX)
    Blend: AUG-CC-PVTZ-JKFIT
	 Reference Energy          =    -590.3310596929818530 [Eh]
	 Singles Energy            =      -0.0000000000000000 [Eh]
	 Same-Spin Energy          =      -0.6439921134884723 [Eh]
	 Opposite-Spin Energy      =      -1.9815975869926881 [Eh]
	 Correlation Energy        =      -2.6255897004811604 [Eh]
	 Total Energy              =    -592.9566493934630671 [Eh]

	 ================> DF-SCS-MP2 Energies <==================
	-----------------------------------------------------------
	 SCS Same-Spin Scale       =       0.3333333333333333 [-]
	 SCS Opposite-Spin Scale   =       1.2000000000000000 [-]
	 SCS Same-Spin Energy      =      -0.2146640378294908 [Eh]
	 SCS Opposite-Spin Energy  =      -2.3779171043912255 [Eh]
	 SCS Correlation Energy    =      -2.5925811422207161 [Eh]
	 SCS Total Energy          =    -592.9236408352026046 [Eh]
	-----------------------------------------------------------

  Dipole Moment: [D]
     X:     2.0058      Y:    -0.1809      Z:     0.1508     Total:     2.0196

*** Psi4 exiting successfully. Buy a developer a beer!
