                               Psi4 1.4a3.dev225

  ==> Input File <==

--------------------------------------------------------------------------
#psi4
#
memory 32 gb

molecule  {
0 1
  O       -0.4771680     1.3164760     0.3008390
  N        0.7985240    -0.5535590    -0.2772820
  C        3.2200150    -0.4235850    -0.1586420
  C        0.7425440     0.7008700     0.1517020
  C       -1.6208490     0.5302780     0.1412880
  C        3.1140170     0.9030370     0.2913960
  C        1.8654780     1.4834140     0.4539590
  C        2.0264240    -1.0936290    -0.4226860
  C        4.5555360    -1.0893210    -0.3460000
  C       -1.9196720    -0.4880720     1.0459920
  C       -2.4970780     0.8728280    -0.8843220
  C       -3.1225630    -1.1795470     0.9070330
  C       -3.7017300     0.1773150    -1.0087090
  C       -4.0153870    -0.8504980    -0.1174150
  H        4.0120030     1.4769520     0.5152690
  H        1.7398756     2.4850458     0.7949062
  H        2.0412640    -2.1246280    -0.7760920
  H        5.1157190    -1.1239590     0.5937180
  H        4.4318450    -2.1155640    -0.7023530
  H        5.1668890    -0.5502680    -1.0765200
  H       -1.2183070    -0.7290930     1.8393240
  H       -2.2288450     1.6771480    -1.5635320
  H       -3.3650020    -1.9773860     1.6048690
  H       -4.3932510     0.4394220    -1.8057380
  H       -4.9525670    -1.3919050    -0.2175730
units angstrom
no_reorient  #important for SAPT in psi4, default
symmetry c1  #important for SAPT in psi4, default
}

set PROPERTIES_ORIGIN ["COM"]
properties('MP2/aug-cc-pvtz', properties = ['dipole'])
--------------------------------------------------------------------------

    Molecular point group: c1
  Charge       = 0
  Multiplicity = 1
  Basis Set: AUG-CC-PVTZ
    Blend: AUG-CC-PVTZ
  Basis Set: (AUG-CC-PVTZ AUX)
    Blend: AUG-CC-PVTZ-JKFIT

    Orbital Energies [Eh]
    ---------------------

    Doubly Occupied:

       1A    -20.598599     2A    -15.563258     3A    -11.340565
       4A    -11.295670     5A    -11.277250     6A    -11.261299
       7A    -11.243103     8A    -11.238918     9A    -11.236739
      10A    -11.236639    11A    -11.232696    12A    -11.232080
      13A    -11.231341    14A    -11.230443    15A     -1.430751
      16A     -1.253371    17A     -1.145874    18A     -1.102699
      19A     -1.053486    20A     -1.015256    21A     -1.003841
      22A     -0.942852    23A     -0.878002    24A     -0.842723
      25A     -0.830897    26A     -0.800875    27A     -0.736802
      28A     -0.705079    29A     -0.679159    30A     -0.655519
      31A     -0.646376    32A     -0.626832    33A     -0.611511
      34A     -0.594788    35A     -0.592100    36A     -0.586126
      37A     -0.569660    38A     -0.563342    39A     -0.549558
      40A     -0.521662    41A     -0.513526    42A     -0.511728
      43A     -0.492697    44A     -0.477565    45A     -0.428265
      46A     -0.384375    47A     -0.335434    48A     -0.332326
      49A     -0.313552

  @DF-RHF Final Energy:  -590.33170476337159

   => Energetics <=

    Nuclear Repulsion Energy =            801.8273153914578870
    One-Electron Energy =               -2392.4236234264180894
    Two-Electron Energy =                1000.2646032715886122
    Total Energy =                       -590.3317047633715902
  Basis Set: (AUG-CC-PVTZ AUX)
    Blend: AUG-CC-PVTZ-RI
    Molecular point group: c1

    Geometry (in Angstrom), charge = 0, multiplicity = 1:

       Center              X                  Y                   Z               Mass
    ------------   -----------------  -----------------  -----------------  -----------------
         O           -0.443181599397     1.295634373899     0.296666230946    15.994914619570
         N            0.832510400603    -0.574400626101    -0.281454769054    14.003074004430
         C            3.254001400603    -0.444426626101    -0.162814769054    12.000000000000
         C            0.776530400603     0.680028373899     0.147529230946    12.000000000000
         C           -1.586862599397     0.509436373899     0.137115230946    12.000000000000
         C            3.148003400603     0.882195373899     0.287223230946    12.000000000000
         C            1.899464400603     1.462572373899     0.449786230946    12.000000000000
         C            2.060410400603    -1.114470626101    -0.426858769054    12.000000000000
         C            4.589522400603    -1.110162626101    -0.350172769054    12.000000000000
         C           -1.885685599397    -0.508913626101     1.041819230946    12.000000000000
         C           -2.463091599397     0.851986373899    -0.888494769054    12.000000000000
         C           -3.088576599397    -1.200388626101     0.902860230946    12.000000000000
         C           -3.667743599397     0.156473373899    -1.012881769054    12.000000000000
         C           -3.981400599397    -0.871339626101    -0.121587769054    12.000000000000
         H            4.045989400603     1.456110373899     0.511096230946     1.007825032230
         H            1.773862000603     2.464204173899     0.790733430946     1.007825032230
         H            2.075250400603    -2.145469626101    -0.780264769054     1.007825032230
         H            5.149705400603    -1.144800626101     0.589545230946     1.007825032230
         H            4.465831400603    -2.136405626101    -0.706525769054     1.007825032230
         H            5.200875400603    -0.571109626101    -1.080692769054     1.007825032230
         H           -1.184320599397    -0.749934626101     1.835151230946     1.007825032230
         H           -2.194858599397     1.656306373899    -1.567704769054     1.007825032230
         H           -3.331015599397    -1.998227626101     1.600696230946     1.007825032230
         H           -4.359264599397     0.418580373899    -1.809910769054     1.007825032230
         H           -4.918580599397    -1.412746626101    -0.221745769054     1.007825032230

  Basis Set: AUG-CC-PVTZ
    Blend: AUG-CC-PVTZ
  Basis Set: (AUG-CC-PVTZ AUX)
    Blend: AUG-CC-PVTZ-JKFIT
	 Reference Energy          =    -590.3317047633715902 [Eh]
	 Singles Energy            =      -0.0000000000000000 [Eh]
	 Same-Spin Energy          =      -0.6439515404053574 [Eh]
	 Opposite-Spin Energy      =      -1.9813297334286517 [Eh]
	 Correlation Energy        =      -2.6252812738340090 [Eh]
	 Total Energy              =    -592.9569860372056382 [Eh]

	 ================> DF-SCS-MP2 Energies <==================
	-----------------------------------------------------------
	 SCS Same-Spin Scale       =       0.3333333333333333 [-]
	 SCS Opposite-Spin Scale   =       1.2000000000000000 [-]
	 SCS Same-Spin Energy      =      -0.2146505134684525 [Eh]
	 SCS Opposite-Spin Energy  =      -2.3775956801143820 [Eh]
	 SCS Correlation Energy    =      -2.5922461935828345 [Eh]
	 SCS Total Energy          =    -592.9239509569543998 [Eh]
	-----------------------------------------------------------

  Dipole Moment: [D]
     X:     2.0161      Y:    -0.1823      Z:     0.1569     Total:     2.0304

*** Psi4 exiting successfully. Buy a developer a beer!
