                               Psi4 1.4a3.dev225

  ==> Input File <==

--------------------------------------------------------------------------
#psi4
#
memory 32 gb

molecule  {
0 1
  O       -0.4771680     1.3164760     0.3008390
  N        0.7985240    -0.5535590    -0.2772820
  C        3.2200150    -0.4235850    -0.1586420
  C        0.7139833     0.7386884     0.1638576
  C       -1.6208490     0.5302780     0.1412880
  C        3.1140170     0.9030370     0.2913960
  C        1.8654780     1.4834140     0.4539590
  C        2.0264240    -1.0936290    -0.4226860
  C        4.5555360    -1.0893210    -0.3460000
  C       -1.9196720    -0.4880720     1.0459920
  C       -2.4970780     0.8728280    -0.8843220
  C       -3.1225630    -1.1795470     0.9070330
  C       -3.7017300     0.1773150    -1.0087090
  C       -4.0153870    -0.8504980    -0.1174150
  H        4.0120030     1.4769520     0.5152690
  H        1.7375180     2.5038470     0.8013060
  H        2.0412640    -2.1246280    -0.7760920
  H        5.1157190    -1.1239590     0.5937180
  H        4.4318450    -2.1155640    -0.7023530
  H        5.1668890    -0.5502680    -1.0765200
  H       -1.2183070    -0.7290930     1.8393240
  H       -2.2288450     1.6771480    -1.5635320
  H       -3.3650020    -1.9773860     1.6048690
  H       -4.3932510     0.4394220    -1.8057380
  H       -4.9525670    -1.3919050    -0.2175730
units angstrom
no_reorient  #important for SAPT in psi4, default
symmetry c1  #important for SAPT in psi4, default
}

set PROPERTIES_ORIGIN ["COM"]
properties('MP2/aug-cc-pvtz', properties = ['dipole'])
--------------------------------------------------------------------------

    Molecular point group: c1
  Charge       = 0
  Multiplicity = 1
  Basis Set: AUG-CC-PVTZ
    Blend: AUG-CC-PVTZ
  Basis Set: (AUG-CC-PVTZ AUX)
    Blend: AUG-CC-PVTZ-JKFIT

    Orbital Energies [Eh]
    ---------------------

    Doubly Occupied:

       1A    -20.606579     2A    -15.561289     3A    -11.343046
       4A    -11.300214     5A    -11.274911     6A    -11.259438
       7A    -11.239418     8A    -11.239000     9A    -11.238856
      10A    -11.237606    11A    -11.235081    12A    -11.234553
      13A    -11.232939    14A    -11.230478    15A     -1.450672
      16A     -1.239131    17A     -1.149582    18A     -1.096219
      19A     -1.053009    20A     -1.017842    21A     -1.007496
      22A     -0.940188    23A     -0.876608    24A     -0.844934
      25A     -0.832848    26A     -0.800763    27A     -0.743142
      28A     -0.705109    29A     -0.680764    30A     -0.661751
      31A     -0.642578    32A     -0.625509    33A     -0.613859
      34A     -0.596172    35A     -0.592939    36A     -0.586222
      37A     -0.573307    38A     -0.561923    39A     -0.546241
      40A     -0.517805    41A     -0.515084    42A     -0.511248
      43A     -0.496409    44A     -0.479791    45A     -0.420826
      46A     -0.379846    47A     -0.337538    48A     -0.332789
      49A     -0.310618

  @DF-RHF Final Energy:  -590.32807220684185

   => Energetics <=

    Nuclear Repulsion Energy =            801.5939464488566273
    One-Electron Energy =               -2391.8956938029486992
    Two-Electron Energy =                 999.9736751472503329
    Total Energy =                       -590.3280722068418527
  Basis Set: (AUG-CC-PVTZ AUX)
    Blend: AUG-CC-PVTZ-RI
    Molecular point group: c1

    Geometry (in Angstrom), charge = 0, multiplicity = 1:

       Center              X                  Y                   Z               Mass
    ------------   -----------------  -----------------  -----------------  -----------------
         O           -0.441317017213     1.293080025838     0.295843269340    15.994914619570
         N            0.834374982787    -0.576954974162    -0.282277730660    14.003074004430
         C            3.255865982787    -0.446980974162    -0.163637730660    12.000000000000
         C            0.749834282787     0.715292425838     0.158861869340    12.000000000000
         C           -1.584998017213     0.506882025838     0.136292269340    12.000000000000
         C            3.149867982787     0.879641025838     0.286400269340    12.000000000000
         C            1.901328982787     1.460018025838     0.448963269340    12.000000000000
         C            2.062274982787    -1.117024974162    -0.427681730660    12.000000000000
         C            4.591386982787    -1.112716974162    -0.350995730660    12.000000000000
         C           -1.883821017213    -0.511467974162     1.040996269340    12.000000000000
         C           -2.461227017213     0.849432025838    -0.889317730660    12.000000000000
         C           -3.086712017213    -1.202942974162     0.902037269340    12.000000000000
         C           -3.665879017213     0.153919025838    -1.013704730660    12.000000000000
         C           -3.979536017213    -0.873893974162    -0.122410730660    12.000000000000
         H            4.047853982787     1.453556025838     0.510273269340     1.007825032230
         H            1.773368982787     2.480451025838     0.796310269340     1.007825032230
         H            2.077114982787    -2.148023974162    -0.781087730660     1.007825032230
         H            5.151569982787    -1.147354974162     0.588722269340     1.007825032230
         H            4.467695982787    -2.138959974162    -0.707348730660     1.007825032230
         H            5.202739982787    -0.573663974162    -1.081515730660     1.007825032230
         H           -1.182456017213    -0.752488974162     1.834328269340     1.007825032230
         H           -2.192994017213     1.653752025838    -1.568527730660     1.007825032230
         H           -3.329151017213    -2.000781974162     1.599873269340     1.007825032230
         H           -4.357400017213     0.416026025838    -1.810733730660     1.007825032230
         H           -4.916716017213    -1.415300974162    -0.222568730660     1.007825032230

  Basis Set: AUG-CC-PVTZ
    Blend: AUG-CC-PVTZ
  Basis Set: (AUG-CC-PVTZ AUX)
    Blend: AUG-CC-PVTZ-JKFIT
	 Reference Energy          =    -590.3280722068418527 [Eh]
	 Singles Energy            =      -0.0000000000000000 [Eh]
	 Same-Spin Energy          =      -0.6442921833719739 [Eh]
	 Opposite-Spin Energy      =      -1.9817670584507516 [Eh]
	 Correlation Energy        =      -2.6260592418227255 [Eh]
	 Total Energy              =    -592.9541314486646115 [Eh]

	 ================> DF-SCS-MP2 Energies <==================
	-----------------------------------------------------------
	 SCS Same-Spin Scale       =       0.3333333333333333 [-]
	 SCS Opposite-Spin Scale   =       1.2000000000000000 [-]
	 SCS Same-Spin Energy      =      -0.2147640611239913 [Eh]
	 SCS Opposite-Spin Energy  =      -2.3781204701409018 [Eh]
	 SCS Correlation Energy    =      -2.5928845312648932 [Eh]
	 SCS Total Energy          =    -592.9209567381067245 [Eh]
	-----------------------------------------------------------

  Dipole Moment: [D]
     X:     1.5798      Y:    -0.1021      Z:     0.1890     Total:     1.5943

*** Psi4 exiting successfully. Buy a developer a beer!
