                               Psi4 1.4a3.dev225

  ==> Input File <==

--------------------------------------------------------------------------
#psi4
#
memory 32 gb

molecule  {
0 1
  O       -0.4771680     1.3164760     0.3008390
  N        0.7985240    -0.5535590    -0.2772820
  C        3.2200150    -0.4235850    -0.1586420
  C        0.7425440     0.7008700     0.1517020
  C       -1.6208490     0.5302780     0.1412880
  C        3.1140170     0.9030370     0.2913960
  C        1.8654780     1.4834140     0.4539590
  C        2.0264240    -1.0936290    -0.4226860
  C        4.5555360    -1.0893210    -0.3460000
  C       -1.9196720    -0.4880720     1.0459920
  C       -2.4970780     0.8728280    -0.8843220
  C       -3.1225630    -1.1795470     0.9070330
  C       -3.7017300     0.1773150    -1.0087090
  C       -4.0153870    -0.8504980    -0.1174150
  H        4.0120030     1.4769520     0.5152690
  H        1.7375180     2.5038470     0.8013060
  H        2.0412640    -2.1246280    -0.7760920
  H        5.1135908    -1.0858599     0.5956144
  H        4.4318450    -2.1155640    -0.7023530
  H        5.1668890    -0.5502680    -1.0765200
  H       -1.2183070    -0.7290930     1.8393240
  H       -2.2288450     1.6771480    -1.5635320
  H       -3.3650020    -1.9773860     1.6048690
  H       -4.3932510     0.4394220    -1.8057380
  H       -4.9525670    -1.3919050    -0.2175730
units angstrom
no_reorient  #important for SAPT in psi4, default
symmetry c1  #important for SAPT in psi4, default
}

set PROPERTIES_ORIGIN ["COM"]
properties('MP2/aug-cc-pvtz', properties = ['dipole'])
--------------------------------------------------------------------------

    Molecular point group: c1
  Charge       = 0
  Multiplicity = 1
  Basis Set: AUG-CC-PVTZ
    Blend: AUG-CC-PVTZ
  Basis Set: (AUG-CC-PVTZ AUX)
    Blend: AUG-CC-PVTZ-JKFIT

    Orbital Energies [Eh]
    ---------------------

    Doubly Occupied:

       1A    -20.598493     2A    -15.563345     3A    -11.340593
       4A    -11.295616     5A    -11.277114     6A    -11.261387
       7A    -11.243103     8A    -11.241198     9A    -11.236704
      10A    -11.236604    11A    -11.232933    12A    -11.232036
      13A    -11.231298    14A    -11.230406    15A     -1.430655
      16A     -1.253385    17A     -1.145827    18A     -1.102725
      19A     -1.053037    20A     -1.015217    21A     -1.003763
      22A     -0.942925    23A     -0.877690    24A     -0.841964
      25A     -0.830553    26A     -0.800832    27A     -0.736768
      28A     -0.704816    29A     -0.679176    30A     -0.655439
      31A     -0.642894    32A     -0.626480    33A     -0.611024
      34A     -0.594799    35A     -0.591855    36A     -0.585827
      37A     -0.569205    38A     -0.563361    39A     -0.551857
      40A     -0.520928    41A     -0.513303    42A     -0.511728
      43A     -0.492650    44A     -0.477436    45A     -0.428144
      46A     -0.384361    47A     -0.335395    48A     -0.332227
      49A     -0.313411

  @DF-RHF Final Energy:  -590.33138983964284

   => Energetics <=

    Nuclear Repulsion Energy =            801.7512714324168428
    One-Electron Energy =               -2392.2803524365122030
    Two-Electron Energy =                1000.1976911644525217
    Total Energy =                       -590.3313898396428385
  Basis Set: (AUG-CC-PVTZ AUX)
    Blend: AUG-CC-PVTZ-RI
    Molecular point group: c1

    Geometry (in Angstrom), charge = 0, multiplicity = 1:

       Center              X                  Y                   Z               Mass
    ------------   -----------------  -----------------  -----------------  -----------------
         O           -0.443157173191     1.295324538760     0.296621056241    15.994914619570
         N            0.832534826809    -0.574710461240    -0.281499943759    14.003074004430
         C            3.254025826809    -0.444736461240    -0.162859943759    12.000000000000
         C            0.776554826809     0.679718538760     0.147484056241    12.000000000000
         C           -1.586838173191     0.509126538760     0.137070056241    12.000000000000
         C            3.148027826809     0.881885538760     0.287178056241    12.000000000000
         C            1.899488826809     1.462262538760     0.449741056241    12.000000000000
         C            2.060434826809    -1.114780461240    -0.426903943759    12.000000000000
         C            4.589546826809    -1.110472461240    -0.350217943759    12.000000000000
         C           -1.885661173191    -0.509223461240     1.041774056241    12.000000000000
         C           -2.463067173191     0.851676538760    -0.888539943759    12.000000000000
         C           -3.088552173191    -1.200698461240     0.902815056241    12.000000000000
         C           -3.667719173191     0.156163538760    -1.012926943759    12.000000000000
         C           -3.981376173191    -0.871649461240    -0.121632943759    12.000000000000
         H            4.046013826809     1.455800538760     0.511051056241     1.007825032230
         H            1.771528826809     2.482695538760     0.797088056241     1.007825032230
         H            2.075274826809    -2.145779461240    -0.780309943759     1.007825032230
         H            5.147601626809    -1.107011361240     0.591396456241     1.007825032230
         H            4.465855826809    -2.136715461240    -0.706570943759     1.007825032230
         H            5.200899826809    -0.571419461240    -1.080737943759     1.007825032230
         H           -1.184296173191    -0.750244461240     1.835106056241     1.007825032230
         H           -2.194834173191     1.655996538760    -1.567749943759     1.007825032230
         H           -3.330991173191    -1.998537461240     1.600651056241     1.007825032230
         H           -4.359240173191     0.418270538760    -1.809955943759     1.007825032230
         H           -4.918556173191    -1.413056461240    -0.221790943759     1.007825032230

  Basis Set: AUG-CC-PVTZ
    Blend: AUG-CC-PVTZ
  Basis Set: (AUG-CC-PVTZ AUX)
    Blend: AUG-CC-PVTZ-JKFIT
	 Reference Energy          =    -590.3313898396428385 [Eh]
	 Singles Energy            =      -0.0000000000000000 [Eh]
	 Same-Spin Energy          =      -0.6440278503853353 [Eh]
	 Opposite-Spin Energy      =      -1.9815291632654750 [Eh]
	 Correlation Energy        =      -2.6255570136508104 [Eh]
	 Total Energy              =    -592.9569468532936298 [Eh]

	 ================> DF-SCS-MP2 Energies <==================
	-----------------------------------------------------------
	 SCS Same-Spin Scale       =       0.3333333333333333 [-]
	 SCS Opposite-Spin Scale   =       1.2000000000000000 [-]
	 SCS Same-Spin Energy      =      -0.2146759501284451 [Eh]
	 SCS Opposite-Spin Energy  =      -2.3778349959185698 [Eh]
	 SCS Correlation Energy    =      -2.5925109460470148 [Eh]
	 SCS Total Energy          =    -592.9239007856898525 [Eh]
	-----------------------------------------------------------

  Dipole Moment: [D]
     X:     2.0253      Y:    -0.1747      Z:     0.1517     Total:     2.0385

*** Psi4 exiting successfully. Buy a developer a beer!
