                               Psi4 1.4a3.dev225

  ==> Input File <==

--------------------------------------------------------------------------
#psi4
#
memory 32 gb

molecule  {
0 1
  O       -0.4771680     1.3164760     0.3008390
  N        0.7985240    -0.5535590    -0.2772820
  C        3.2200150    -0.4235850    -0.1586420
  C        0.7425440     0.7008700     0.1517020
  C       -1.6208490     0.5302780     0.1412880
  C        3.1140170     0.9030370     0.2913960
  C        1.8654780     1.4834140     0.4539590
  C        2.0264240    -1.0936290    -0.4226860
  C        4.5555360    -1.0893210    -0.3460000
  C       -1.9196720    -0.4880720     1.0459920
  C       -2.5031486     0.8863731    -0.9036556
  C       -3.1225630    -1.1795470     0.9070330
  C       -3.7017300     0.1773150    -1.0087090
  C       -4.0153870    -0.8504980    -0.1174150
  H        4.0120030     1.4769520     0.5152690
  H        1.7375180     2.5038470     0.8013060
  H        2.0412640    -2.1246280    -0.7760920
  H        5.1157190    -1.1239590     0.5937180
  H        4.4318450    -2.1155640    -0.7023530
  H        5.1668890    -0.5502680    -1.0765200
  H       -1.2183070    -0.7290930     1.8393240
  H       -2.2288450     1.6771480    -1.5635320
  H       -3.3650020    -1.9773860     1.6048690
  H       -4.3932510     0.4394220    -1.8057380
  H       -4.9525670    -1.3919050    -0.2175730
units angstrom
no_reorient  #important for SAPT in psi4, default
symmetry c1  #important for SAPT in psi4, default
}

set PROPERTIES_ORIGIN ["COM"]
properties('MP2/aug-cc-pvtz', properties = ['dipole'])
--------------------------------------------------------------------------

    Molecular point group: c1
  Charge       = 0
  Multiplicity = 1
  Basis Set: AUG-CC-PVTZ
    Blend: AUG-CC-PVTZ
  Basis Set: (AUG-CC-PVTZ AUX)
    Blend: AUG-CC-PVTZ-JKFIT

    Orbital Energies [Eh]
    ---------------------

    Doubly Occupied:

       1A    -20.598657     2A    -15.563358     3A    -11.340725
       4A    -11.298205     5A    -11.277290     6A    -11.261431
       7A    -11.243216     8A    -11.241170     9A    -11.237220
      10A    -11.236908    11A    -11.232762    12A    -11.232146
      13A    -11.231844    14A    -11.230312    15A     -1.430720
      16A     -1.253413    17A     -1.143871    18A     -1.102619
      19A     -1.052821    20A     -1.015755    21A     -1.002051
      22A     -0.942818    23A     -0.877780    24A     -0.841483
      25A     -0.831415    26A     -0.800418    27A     -0.735835
      28A     -0.704858    29A     -0.681164    30A     -0.654764
      31A     -0.643468    32A     -0.626981    33A     -0.610996
      34A     -0.593920    35A     -0.592423    36A     -0.587543
      37A     -0.570100    38A     -0.563216    39A     -0.549588
      40A     -0.521085    41A     -0.514467    42A     -0.512200
      43A     -0.491757    44A     -0.476483    45A     -0.428152
      46A     -0.384451    47A     -0.336000    48A     -0.330983
      49A     -0.312761

  @DF-RHF Final Energy:  -590.33039738831587

   => Energetics <=

    Nuclear Repulsion Energy =            801.2552593074152583
    One-Electron Energy =               -2391.2841058059802890
    Two-Electron Energy =                 999.6984491102492711
    Total Energy =                       -590.3303973883158733
  Basis Set: (AUG-CC-PVTZ AUX)
    Blend: AUG-CC-PVTZ-RI
    Molecular point group: c1

    Geometry (in Angstrom), charge = 0, multiplicity = 1:

       Center              X                  Y                   Z               Mass
    ------------   -----------------  -----------------  -----------------  -----------------
         O           -0.442775171925     1.294653795042     0.297884884333    15.994914619570
         N            0.832916828075    -0.575381204958    -0.280236115667    14.003074004430
         C            3.254407828075    -0.445407204958    -0.161596115667    12.000000000000
         C            0.776936828075     0.679047795042     0.148747884333    12.000000000000
         C           -1.586456171925     0.508455795042     0.138333884333    12.000000000000
         C            3.148409828075     0.881214795042     0.288441884333    12.000000000000
         C            1.899870828075     1.461591795042     0.451004884333    12.000000000000
         C            2.060816828075    -1.115451204958    -0.425640115667    12.000000000000
         C            4.589928828075    -1.111143204958    -0.348954115667    12.000000000000
         C           -1.885279171925    -0.509894204958     1.043037884333    12.000000000000
         C           -2.468755771925     0.864550895042    -0.906609715667    12.000000000000
         C           -3.088170171925    -1.201369204958     0.904078884333    12.000000000000
         C           -3.667337171925     0.155492795042    -1.011663115667    12.000000000000
         C           -3.980994171925    -0.872320204958    -0.120369115667    12.000000000000
         H            4.046395828075     1.455129795042     0.512314884333     1.007825032230
         H            1.771910828075     2.482024795042     0.798351884333     1.007825032230
         H            2.075656828075    -2.146450204958    -0.779046115667     1.007825032230
         H            5.150111828075    -1.145781204958     0.590763884333     1.007825032230
         H            4.466237828075    -2.137386204958    -0.705307115667     1.007825032230
         H            5.201281828075    -0.572090204958    -1.079474115667     1.007825032230
         H           -1.183914171925    -0.750915204958     1.836369884333     1.007825032230
         H           -2.194452171925     1.655325795042    -1.566486115667     1.007825032230
         H           -3.330609171925    -1.999208204958     1.601914884333     1.007825032230
         H           -4.358858171925     0.417599795042    -1.808692115667     1.007825032230
         H           -4.918174171925    -1.413727204958    -0.220527115667     1.007825032230

  Basis Set: AUG-CC-PVTZ
    Blend: AUG-CC-PVTZ
  Basis Set: (AUG-CC-PVTZ AUX)
    Blend: AUG-CC-PVTZ-JKFIT
	 Reference Energy          =    -590.3303973883158733 [Eh]
	 Singles Energy            =      -0.0000000000000000 [Eh]
	 Same-Spin Energy          =      -0.6440261480174703 [Eh]
	 Opposite-Spin Energy      =      -1.9816670937019214 [Eh]
	 Correlation Energy        =      -2.6256932417193917 [Eh]
	 Total Energy              =    -592.9560906300353054 [Eh]

	 ================> DF-SCS-MP2 Energies <==================
	-----------------------------------------------------------
	 SCS Same-Spin Scale       =       0.3333333333333333 [-]
	 SCS Opposite-Spin Scale   =       1.2000000000000000 [-]
	 SCS Same-Spin Energy      =      -0.2146753826724901 [Eh]
	 SCS Opposite-Spin Energy  =      -2.3780005124423056 [Eh]
	 SCS Correlation Energy    =      -2.5926758951147955 [Eh]
	 SCS Total Energy          =    -592.9230732834306536 [Eh]
	-----------------------------------------------------------

  Dipole Moment: [D]
     X:     2.0288      Y:    -0.1772      Z:     0.1603     Total:     2.0428

*** Psi4 exiting successfully. Buy a developer a beer!
