                               Psi4 1.4a3.dev225

  ==> Input File <==

--------------------------------------------------------------------------
#psi4
#
memory 32 gb

molecule  {
0 1
  O       -0.4771680     1.3164760     0.3008390
  N        0.7985240    -0.5535590    -0.2772820
  C        3.2200150    -0.4235850    -0.1586420
  C        0.7425440     0.7008700     0.1517020
  C       -1.6208490     0.5302780     0.1412880
  C        3.1140170     0.9030370     0.2913960
  C        1.8654780     1.4834140     0.4539590
  C        2.0264240    -1.0936290    -0.4226860
  C        4.5555360    -1.0893210    -0.3460000
  C       -1.9196720    -0.4880720     1.0459920
  C       -2.4970780     0.8728280    -0.8843220
  C       -3.1225630    -1.1795470     0.9070330
  C       -3.7017300     0.1773150    -1.0087090
  C       -4.0378531    -0.9241166    -0.0535748
  H        4.0120030     1.4769520     0.5152690
  H        1.7375180     2.5038470     0.8013060
  H        2.0412640    -2.1246280    -0.7760920
  H        5.1157190    -1.1239590     0.5937180
  H        4.4318450    -2.1155640    -0.7023530
  H        5.1668890    -0.5502680    -1.0765200
  H       -1.2183070    -0.7290930     1.8393240
  H       -2.2288450     1.6771480    -1.5635320
  H       -3.3650020    -1.9773860     1.6048690
  H       -4.3932510     0.4394220    -1.8057380
  H       -4.9525670    -1.3919050    -0.2175730
units angstrom
no_reorient  #important for SAPT in psi4, default
symmetry c1  #important for SAPT in psi4, default
}

set PROPERTIES_ORIGIN ["COM"]
properties('MP2/aug-cc-pvtz', properties = ['dipole'])
--------------------------------------------------------------------------

    Molecular point group: c1
  Charge       = 0
  Multiplicity = 1
  Basis Set: AUG-CC-PVTZ
    Blend: AUG-CC-PVTZ
  Basis Set: (AUG-CC-PVTZ AUX)
    Blend: AUG-CC-PVTZ-JKFIT

    Orbital Energies [Eh]
    ---------------------

    Doubly Occupied:

       1A    -20.599111     2A    -15.563378     3A    -11.340995
       4A    -11.296993     5A    -11.277338     6A    -11.261499
       7A    -11.246593     8A    -11.243268     9A    -11.241277
      10A    -11.232785    11A    -11.232654    12A    -11.232261
      13A    -11.231354    14A    -11.230605    15A     -1.431272
      16A     -1.253548    17A     -1.142081    18A     -1.102676
      19A     -1.053324    20A     -1.017785    21A     -0.998708
      22A     -0.943561    23A     -0.878543    24A     -0.845109
      25A     -0.825241    26A     -0.802535    27A     -0.736334
      28A     -0.704728    29A     -0.686665    30A     -0.655517
      31A     -0.643694    32A     -0.625845    33A     -0.610579
      34A     -0.597629    35A     -0.589463    36A     -0.584094
      37A     -0.569880    38A     -0.563329    39A     -0.549970
      40A     -0.529061    41A     -0.520661    42A     -0.504949
      43A     -0.486969    44A     -0.471482    45A     -0.428037
      46A     -0.384463    47A     -0.342024    48A     -0.328638
      49A     -0.309401

  @DF-RHF Final Energy:  -590.31969153072453

   => Energetics <=

    Nuclear Repulsion Energy =            800.7798383861004368
    One-Electron Energy =               -2390.3032447046889502
    Two-Electron Energy =                 999.2037147878639871
    Total Energy =                       -590.3196915307245263
  Basis Set: (AUG-CC-PVTZ AUX)
    Blend: AUG-CC-PVTZ-RI
    Molecular point group: c1

    Geometry (in Angstrom), charge = 0, multiplicity = 1:

       Center              X                  Y                   Z               Mass
    ------------   -----------------  -----------------  -----------------  -----------------
         O           -0.441712163064     1.300305088716     0.292492277436    15.994914619570
         N            0.833979836936    -0.569729911284    -0.285628722564    14.003074004430
         C            3.255470836936    -0.439755911284    -0.166988722564    12.000000000000
         C            0.777999836936     0.684699088716     0.143355277436    12.000000000000
         C           -1.585393163064     0.514107088716     0.132941277436    12.000000000000
         C            3.149472836936     0.886866088716     0.283049277436    12.000000000000
         C            1.900933836936     1.467243088716     0.445612277436    12.000000000000
         C            2.061879836936    -1.109799911284    -0.431032722564    12.000000000000
         C            4.590991836936    -1.105491911284    -0.354346722564    12.000000000000
         C           -1.884216163064    -0.504242911284     1.037645277436    12.000000000000
         C           -2.461622163064     0.856657088716    -0.892668722564    12.000000000000
         C           -3.087107163064    -1.195717911284     0.898686277436    12.000000000000
         C           -3.666274163064     0.161144088716    -1.017055722564    12.000000000000
         C           -4.002397263064    -0.940287511284    -0.061921522564    12.000000000000
         H            4.047458836936     1.460781088716     0.506922277436     1.007825032230
         H            1.772973836936     2.487676088716     0.792959277436     1.007825032230
         H            2.076719836936    -2.140798911284    -0.784438722564     1.007825032230
         H            5.151174836936    -1.140129911284     0.585371277436     1.007825032230
         H            4.467300836936    -2.131734911284    -0.710699722564     1.007825032230
         H            5.202344836936    -0.566438911284    -1.084866722564     1.007825032230
         H           -1.182851163064    -0.745263911284     1.830977277436     1.007825032230
         H           -2.193389163064     1.660977088716    -1.571878722564     1.007825032230
         H           -3.329546163064    -1.993556911284     1.596522277436     1.007825032230
         H           -4.357795163064     0.423251088716    -1.814084722564     1.007825032230
         H           -4.917111163064    -1.408075911284    -0.225919722564     1.007825032230

  Basis Set: AUG-CC-PVTZ
    Blend: AUG-CC-PVTZ
  Basis Set: (AUG-CC-PVTZ AUX)
    Blend: AUG-CC-PVTZ-JKFIT
	 Reference Energy          =    -590.3196915307245263 [Eh]
	 Singles Energy            =      -0.0000000000000000 [Eh]
	 Same-Spin Energy          =      -0.6439366839858086 [Eh]
	 Opposite-Spin Energy      =      -1.9823346099528081 [Eh]
	 Correlation Energy        =      -2.6262712939386166 [Eh]
	 Total Energy              =    -592.9459628246631837 [Eh]

	 ================> DF-SCS-MP2 Energies <==================
	-----------------------------------------------------------
	 SCS Same-Spin Scale       =       0.3333333333333333 [-]
	 SCS Opposite-Spin Scale   =       1.2000000000000000 [-]
	 SCS Same-Spin Energy      =      -0.2146455613286029 [Eh]
	 SCS Opposite-Spin Energy  =      -2.3788015319433695 [Eh]
	 SCS Correlation Energy    =      -2.5934470932719722 [Eh]
	 SCS Total Energy          =    -592.9131386239964741 [Eh]
	-----------------------------------------------------------

  Dipole Moment: [D]
     X:     2.0096      Y:    -0.1718      Z:     0.1314     Total:     2.0212

*** Psi4 exiting successfully. Buy a developer a beer!
