                               Psi4 1.4a3.dev225

  ==> Input File <==

--------------------------------------------------------------------------
#psi4
#
memory 32 gb

molecule  {
0 1
  O       -0.4771680     1.3164760     0.3008390
  N        0.7985240    -0.5535590    -0.2772820
  C        3.2200150    -0.4235850    -0.1586420
  C        0.7425440     0.7008700     0.1517020
  C       -1.7182951     0.4293302     0.1804787
  C        3.1140170     0.9030370     0.2913960
  C        1.8654780     1.4834140     0.4539590
  C        2.0264240    -1.0936290    -0.4226860
  C        4.5555360    -1.0893210    -0.3460000
  C       -1.9196720    -0.4880720     1.0459920
  C       -2.4970780     0.8728280    -0.8843220
  C       -3.1225630    -1.1795470     0.9070330
  C       -3.7017300     0.1773150    -1.0087090
  C       -4.0153870    -0.8504980    -0.1174150
  H        4.0120030     1.4769520     0.5152690
  H        1.7375180     2.5038470     0.8013060
  H        2.0412640    -2.1246280    -0.7760920
  H        5.1157190    -1.1239590     0.5937180
  H        4.4318450    -2.1155640    -0.7023530
  H        5.1668890    -0.5502680    -1.0765200
  H       -1.2183070    -0.7290930     1.8393240
  H       -2.2288450     1.6771480    -1.5635320
  H       -3.3650020    -1.9773860     1.6048690
  H       -4.3932510     0.4394220    -1.8057380
  H       -4.9525670    -1.3919050    -0.2175730
units angstrom
no_reorient  #important for SAPT in psi4, default
symmetry c1  #important for SAPT in psi4, default
}

set PROPERTIES_ORIGIN ["COM"]
properties('MP2/aug-cc-pvtz', properties = ['dipole'])
--------------------------------------------------------------------------

    Molecular point group: c1
  Charge       = 0
  Multiplicity = 1
  Basis Set: AUG-CC-PVTZ
    Blend: AUG-CC-PVTZ
  Basis Set: (AUG-CC-PVTZ AUX)
    Blend: AUG-CC-PVTZ-JKFIT

    Orbital Energies [Eh]
    ---------------------

    Doubly Occupied:

       1A    -20.580326     2A    -15.555497     3A    -11.330605
       4A    -11.292914     5A    -11.271608     6A    -11.255574
       7A    -11.244359     8A    -11.242596     9A    -11.240228
      10A    -11.236559    11A    -11.236214    12A    -11.233418
      13A    -11.228586    14A    -11.226444    15A     -1.388519
      16A     -1.242831    17A     -1.168899    18A     -1.096333
      19A     -1.045136    20A     -1.034494    21A     -1.008743
      22A     -0.935634    23A     -0.867413    24A     -0.847584
      25A     -0.827805    26A     -0.800381    27A     -0.726539
      28A     -0.696954    29A     -0.678949    30A     -0.651145
      31A     -0.636346    32A     -0.626042    33A     -0.611085
      34A     -0.598558    35A     -0.585913    36A     -0.582294
      37A     -0.564282    38A     -0.554268    39A     -0.544769
      40A     -0.519718    41A     -0.516268    42A     -0.508573
      43A     -0.496370    44A     -0.479295    45A     -0.421350
      46A     -0.378921    47A     -0.351977    48A     -0.335766
      49A     -0.311786

  @DF-RHF Final Energy:  -590.30530453615881

   => Energetics <=

    Nuclear Repulsion Energy =            801.6112978519743137
    One-Electron Energy =               -2392.2014670742632916
    Two-Electron Energy =                1000.2848646861301631
    Total Energy =                       -590.3053045361588147
  Basis Set: (AUG-CC-PVTZ AUX)
    Blend: AUG-CC-PVTZ-RI
    Molecular point group: c1

    Geometry (in Angstrom), charge = 0, multiplicity = 1:

       Center              X                  Y                   Z               Mass
    ------------   -----------------  -----------------  -----------------  -----------------
         O           -0.436850804497     1.302076988430     0.294090437718    15.994914619570
         N            0.838841195503    -0.567958011570    -0.284030562282    14.003074004430
         C            3.260332195503    -0.437984011570    -0.165390562282    12.000000000000
         C            0.782861195503     0.686470988430     0.144953437718    12.000000000000
         C           -1.677977904497     0.414931188430     0.173730137718    12.000000000000
         C            3.154334195503     0.888637988430     0.284647437718    12.000000000000
         C            1.905795195503     1.469014988430     0.447210437718    12.000000000000
         C            2.066741195503    -1.108028011570    -0.429434562282    12.000000000000
         C            4.595853195503    -1.103720011570    -0.352748562282    12.000000000000
         C           -1.879354804497    -0.502471011570     1.039243437718    12.000000000000
         C           -2.456760804497     0.858428988430    -0.891070562282    12.000000000000
         C           -3.082245804497    -1.193946011570     0.900284437718    12.000000000000
         C           -3.661412804497     0.162915988430    -1.015457562282    12.000000000000
         C           -3.975069804497    -0.864897011570    -0.124163562282    12.000000000000
         H            4.052320195503     1.462552988430     0.508520437718     1.007825032230
         H            1.777835195503     2.489447988430     0.794557437718     1.007825032230
         H            2.081581195503    -2.139027011570    -0.782840562282     1.007825032230
         H            5.156036195503    -1.138358011570     0.586969437718     1.007825032230
         H            4.472162195503    -2.129963011570    -0.709101562282     1.007825032230
         H            5.207206195503    -0.564667011570    -1.083268562282     1.007825032230
         H           -1.177989804497    -0.743492011570     1.832575437718     1.007825032230
         H           -2.188527804497     1.662748988430    -1.570280562282     1.007825032230
         H           -3.324684804497    -1.991785011570     1.598120437718     1.007825032230
         H           -4.352933804497     0.425022988430    -1.812486562282     1.007825032230
         H           -4.912249804497    -1.406304011570    -0.224321562282     1.007825032230

  Basis Set: AUG-CC-PVTZ
    Blend: AUG-CC-PVTZ
  Basis Set: (AUG-CC-PVTZ AUX)
    Blend: AUG-CC-PVTZ-JKFIT
	 Reference Energy          =    -590.3053045361588147 [Eh]
	 Singles Energy            =      -0.0000000000000000 [Eh]
	 Same-Spin Energy          =      -0.6444361201388467 [Eh]
	 Opposite-Spin Energy      =      -1.9833880202011345 [Eh]
	 Correlation Energy        =      -2.6278241403399809 [Eh]
	 Total Energy              =    -592.9331286764987681 [Eh]

	 ================> DF-SCS-MP2 Energies <==================
	-----------------------------------------------------------
	 SCS Same-Spin Scale       =       0.3333333333333333 [-]
	 SCS Opposite-Spin Scale   =       1.2000000000000000 [-]
	 SCS Same-Spin Energy      =      -0.2148120400462822 [Eh]
	 SCS Opposite-Spin Energy  =      -2.3800656242413614 [Eh]
	 SCS Correlation Energy    =      -2.5948776642876434 [Eh]
	 SCS Total Energy          =    -592.9001822004464657 [Eh]
	-----------------------------------------------------------

  Dipole Moment: [D]
     X:     1.0655      Y:    -0.4087      Z:     0.1653     Total:     1.1531

*** Psi4 exiting successfully. Buy a developer a beer!
