                               Psi4 1.4a3.dev225

  ==> Input File <==

--------------------------------------------------------------------------
#psi4
#
memory 32 gb

molecule  {
0 1
  O       -0.4771680     1.3164760     0.3008390
  N        0.7985240    -0.5535590    -0.2772820
  C        3.2200150    -0.4235850    -0.1586420
  C        0.7425440     0.7008700     0.1517020
  C       -1.6208490     0.5302780     0.1412880
  C        3.1215620     0.8086076     0.2593622
  C        1.8654780     1.4834140     0.4539590
  C        2.0264240    -1.0936290    -0.4226860
  C        4.5555360    -1.0893210    -0.3460000
  C       -1.9196720    -0.4880720     1.0459920
  C       -2.4970780     0.8728280    -0.8843220
  C       -3.1225630    -1.1795470     0.9070330
  C       -3.7017300     0.1773150    -1.0087090
  C       -4.0153870    -0.8504980    -0.1174150
  H        4.0120030     1.4769520     0.5152690
  H        1.7375180     2.5038470     0.8013060
  H        2.0412640    -2.1246280    -0.7760920
  H        5.1157190    -1.1239590     0.5937180
  H        4.4318450    -2.1155640    -0.7023530
  H        5.1668890    -0.5502680    -1.0765200
  H       -1.2183070    -0.7290930     1.8393240
  H       -2.2288450     1.6771480    -1.5635320
  H       -3.3650020    -1.9773860     1.6048690
  H       -4.3932510     0.4394220    -1.8057380
  H       -4.9525670    -1.3919050    -0.2175730
units angstrom
no_reorient  #important for SAPT in psi4, default
symmetry c1  #important for SAPT in psi4, default
}

set PROPERTIES_ORIGIN ["COM"]
properties('MP2/aug-cc-pvtz', properties = ['dipole'])
--------------------------------------------------------------------------

    Molecular point group: c1
  Charge       = 0
  Multiplicity = 1
  Basis Set: AUG-CC-PVTZ
    Blend: AUG-CC-PVTZ
  Basis Set: (AUG-CC-PVTZ AUX)
    Blend: AUG-CC-PVTZ-JKFIT

    Orbital Energies [Eh]
    ---------------------

    Doubly Occupied:

       1A    -20.596120     2A    -15.566001     3A    -11.337386
       4A    -11.294847     5A    -11.284229     6A    -11.258487
       7A    -11.242010     8A    -11.236444     9A    -11.236335
      10A    -11.234232    11A    -11.233416    12A    -11.231572
      13A    -11.230729    14A    -11.230038    15A     -1.428877
      16A     -1.257418    17A     -1.145491    18A     -1.115608
      19A     -1.048061    20A     -1.014853    21A     -1.000895
      22A     -0.946153    23A     -0.881780    24A     -0.844737
      25A     -0.831024    26A     -0.796995    27A     -0.734082
      28A     -0.706249    29A     -0.679435    30A     -0.654643
      31A     -0.645340    32A     -0.625904    33A     -0.610457
      34A     -0.595305    35A     -0.592155    36A     -0.586874
      37A     -0.569406    38A     -0.553418    39A     -0.546801
      40A     -0.526216    41A     -0.514537    42A     -0.510535
      43A     -0.491858    44A     -0.478950    45A     -0.428481
      46A     -0.386396    47A     -0.334917    48A     -0.333438
      49A     -0.314713

  @DF-RHF Final Energy:  -590.31766260410507

   => Energetics <=

    Nuclear Repulsion Energy =            802.8571658573901004
    One-Electron Energy =               -2394.4619625673740302
    Two-Electron Energy =                1001.2871341058788630
    Total Energy =                       -590.3176626041050667
  Basis Set: (AUG-CC-PVTZ AUX)
    Blend: AUG-CC-PVTZ-RI
    Molecular point group: c1

    Geometry (in Angstrom), charge = 0, multiplicity = 1:

       Center              X                  Y                   Z               Mass
    ------------   -----------------  -----------------  -----------------  -----------------
         O           -0.443657944847     1.301654365335     0.298708306927    15.994914619570
         N            0.832034055153    -0.568380634665    -0.279412693073    14.003074004430
         C            3.253525055153    -0.438406634665    -0.160772693073    12.000000000000
         C            0.776054055153     0.686048365335     0.149571306927    12.000000000000
         C           -1.587338944847     0.515456365335     0.139157306927    12.000000000000
         C            3.155072055153     0.793785965335     0.257231506927    12.000000000000
         C            1.898988055153     1.468592365335     0.451828306927    12.000000000000
         C            2.059934055153    -1.108450634665    -0.424816693073    12.000000000000
         C            4.589046055153    -1.104142634665    -0.348130693073    12.000000000000
         C           -1.886161944847    -0.502893634665     1.043861306927    12.000000000000
         C           -2.463567944847     0.858006365335    -0.886452693073    12.000000000000
         C           -3.089052944847    -1.194368634665     0.904902306927    12.000000000000
         C           -3.668219944847     0.162493365335    -1.010839693073    12.000000000000
         C           -3.981876944847    -0.865319634665    -0.119545693073    12.000000000000
         H            4.045513055153     1.462130365335     0.513138306927     1.007825032230
         H            1.771028055153     2.489025365335     0.799175306927     1.007825032230
         H            2.074774055153    -2.139449634665    -0.778222693073     1.007825032230
         H            5.149229055153    -1.138780634665     0.591587306927     1.007825032230
         H            4.465355055153    -2.130385634665    -0.704483693073     1.007825032230
         H            5.200399055153    -0.565089634665    -1.078650693073     1.007825032230
         H           -1.184796944847    -0.743914634665     1.837193306927     1.007825032230
         H           -2.195334944847     1.662326365335    -1.565662693073     1.007825032230
         H           -3.331491944847    -1.992207634665     1.602738306927     1.007825032230
         H           -4.359740944847     0.424600365335    -1.807868693073     1.007825032230
         H           -4.919056944847    -1.406726634665    -0.219703693073     1.007825032230

  Basis Set: AUG-CC-PVTZ
    Blend: AUG-CC-PVTZ
  Basis Set: (AUG-CC-PVTZ AUX)
    Blend: AUG-CC-PVTZ-JKFIT
	 Reference Energy          =    -590.3176626041050667 [Eh]
	 Singles Energy            =      -0.0000000000000000 [Eh]
	 Same-Spin Energy          =      -0.6444578169995648 [Eh]
	 Opposite-Spin Energy      =      -1.9819894934505187 [Eh]
	 Correlation Energy        =      -2.6264473104500836 [Eh]
	 Total Energy              =    -592.9441099145551561 [Eh]

	 ================> DF-SCS-MP2 Energies <==================
	-----------------------------------------------------------
	 SCS Same-Spin Scale       =       0.3333333333333333 [-]
	 SCS Opposite-Spin Scale   =       1.2000000000000000 [-]
	 SCS Same-Spin Energy      =      -0.2148192723331883 [Eh]
	 SCS Opposite-Spin Energy  =      -2.3783873921406222 [Eh]
	 SCS Correlation Energy    =      -2.5932066644738105 [Eh]
	 SCS Total Energy          =    -592.9108692685788355 [Eh]
	-----------------------------------------------------------

  Dipole Moment: [D]
     X:     2.0038      Y:    -0.2598      Z:     0.1263     Total:     2.0245

*** Psi4 exiting successfully. Buy a developer a beer!
