                               Psi4 1.4a3.dev225

  ==> Input File <==

--------------------------------------------------------------------------
#psi4
#
memory 32 gb

molecule  {
0 1
  O       -0.4771680     1.3164760     0.3008390
  N        0.7985240    -0.5535590    -0.2772820
  C        3.2200150    -0.4235850    -0.1586420
  C        0.7425440     0.7008700     0.1517020
  C       -1.6208490     0.5302780     0.1412880
  C        3.1140170     0.9030370     0.2913960
  C        1.8654780     1.4834140     0.4539590
  C        2.0264240    -1.0936290    -0.4226860
  C        4.5555360    -1.0893210    -0.3460000
  C       -1.9196720    -0.4880720     1.0459920
  C       -2.4970780     0.8728280    -0.8843220
  C       -3.1225630    -1.1795470     0.9070330
  C       -3.7879881     0.1275133    -1.0176156
  C       -4.0153870    -0.8504980    -0.1174150
  H        4.0120030     1.4769520     0.5152690
  H        1.7375180     2.5038470     0.8013060
  H        2.0412640    -2.1246280    -0.7760920
  H        5.1157190    -1.1239590     0.5937180
  H        4.4318450    -2.1155640    -0.7023530
  H        5.1668890    -0.5502680    -1.0765200
  H       -1.2183070    -0.7290930     1.8393240
  H       -2.2288450     1.6771480    -1.5635320
  H       -3.3650020    -1.9773860     1.6048690
  H       -4.3932510     0.4394220    -1.8057380
  H       -4.9525670    -1.3919050    -0.2175730
units angstrom
no_reorient  #important for SAPT in psi4, default
symmetry c1  #important for SAPT in psi4, default
}

set PROPERTIES_ORIGIN ["COM"]
properties('MP2/aug-cc-pvtz', properties = ['dipole'])
--------------------------------------------------------------------------

    Molecular point group: c1
  Charge       = 0
  Multiplicity = 1
  Basis Set: AUG-CC-PVTZ
    Blend: AUG-CC-PVTZ
  Basis Set: (AUG-CC-PVTZ AUX)
    Blend: AUG-CC-PVTZ-JKFIT

    Orbital Energies [Eh]
    ---------------------

    Doubly Occupied:

       1A    -20.598175     2A    -15.563436     3A    -11.340481
       4A    -11.294855     5A    -11.277240     6A    -11.261348
       7A    -11.243161     8A    -11.241054     9A    -11.239159
      10A    -11.237410    11A    -11.237335    12A    -11.234596
      13A    -11.232713    14A    -11.226945    15A     -1.430313
      16A     -1.253364    17A     -1.142201    18A     -1.102556
      19A     -1.054034    20A     -1.013498    21A     -1.002251
      22A     -0.942423    23A     -0.876835    24A     -0.843990
      25A     -0.833874    26A     -0.798233    27A     -0.738568
      28A     -0.704587    29A     -0.677432    30A     -0.654348
      31A     -0.643768    32A     -0.633232    33A     -0.612566
      34A     -0.598362    35A     -0.593287    36A     -0.583787
      37A     -0.566027    38A     -0.563118    39A     -0.549070
      40A     -0.521643    41A     -0.520421    42A     -0.495344
      43A     -0.493199    44A     -0.479437    45A     -0.428039
      46A     -0.384383    47A     -0.338873    48A     -0.324205
      49A     -0.316706

  @DF-RHF Final Energy:  -590.32018467791124

   => Energetics <=

    Nuclear Repulsion Energy =            800.4648366645334363
    One-Electron Energy =               -2389.6862774649553103
    Two-Electron Energy =                 998.9012561225107447
    Total Energy =                       -590.3201846779112429
  Basis Set: (AUG-CC-PVTZ AUX)
    Blend: AUG-CC-PVTZ-RI
    Molecular point group: c1

    Geometry (in Angstrom), charge = 0, multiplicity = 1:

       Center              X                  Y                   Z               Mass
    ------------   -----------------  -----------------  -----------------  -----------------
         O           -0.437576182994     1.298760910391     0.297208845579    15.994914619570
         N            0.838115817006    -0.571274089609    -0.280912154421    14.003074004430
         C            3.259606817006    -0.441300089609    -0.162272154421    12.000000000000
         C            0.782135817006     0.683154910391     0.148071845579    12.000000000000
         C           -1.581257182994     0.512562910391     0.137657845579    12.000000000000
         C            3.153608817006     0.885321910391     0.287765845579    12.000000000000
         C            1.905069817006     1.465698910391     0.450328845579    12.000000000000
         C            2.066015817006    -1.111344089609    -0.426316154421    12.000000000000
         C            4.595127817006    -1.107036089609    -0.349630154421    12.000000000000
         C           -1.880080182994    -0.505787089609     1.042361845579    12.000000000000
         C           -2.457486182994     0.855112910391    -0.887952154421    12.000000000000
         C           -3.082971182994    -1.197262089609     0.903402845579    12.000000000000
         C           -3.748396282994     0.109798210391    -1.021245754421    12.000000000000
         C           -3.975795182994    -0.868213089609    -0.121045154421    12.000000000000
         H            4.051594817006     1.459236910391     0.511638845579     1.007825032230
         H            1.777109817006     2.486131910391     0.797675845579     1.007825032230
         H            2.080855817006    -2.142343089609    -0.779722154421     1.007825032230
         H            5.155310817006    -1.141674089609     0.590087845579     1.007825032230
         H            4.471436817006    -2.133279089609    -0.705983154421     1.007825032230
         H            5.206480817006    -0.567983089609    -1.080150154421     1.007825032230
         H           -1.178715182994    -0.746808089609     1.835693845579     1.007825032230
         H           -2.189253182994     1.659432910391    -1.567162154421     1.007825032230
         H           -3.325410182994    -1.995101089609     1.601238845579     1.007825032230
         H           -4.353659182994     0.421706910391    -1.809368154421     1.007825032230
         H           -4.912975182994    -1.409620089609    -0.221203154421     1.007825032230

  Basis Set: AUG-CC-PVTZ
    Blend: AUG-CC-PVTZ
  Basis Set: (AUG-CC-PVTZ AUX)
    Blend: AUG-CC-PVTZ-JKFIT
	 Reference Energy          =    -590.3201846779112429 [Eh]
	 Singles Energy            =      -0.0000000000000000 [Eh]
	 Same-Spin Energy          =      -0.6436736999735638 [Eh]
	 Opposite-Spin Energy      =      -1.9822346021103456 [Eh]
	 Correlation Energy        =      -2.6259083020839094 [Eh]
	 Total Energy              =    -592.9460929799951145 [Eh]

	 ================> DF-SCS-MP2 Energies <==================
	-----------------------------------------------------------
	 SCS Same-Spin Scale       =       0.3333333333333333 [-]
	 SCS Opposite-Spin Scale   =       1.2000000000000000 [-]
	 SCS Same-Spin Energy      =      -0.2145578999911879 [Eh]
	 SCS Opposite-Spin Energy  =      -2.3786815225324145 [Eh]
	 SCS Correlation Energy    =      -2.5932394225236024 [Eh]
	 SCS Total Energy          =    -592.9134241004348951 [Eh]
	-----------------------------------------------------------

  Dipole Moment: [D]
     X:     2.0031      Y:    -0.1897      Z:     0.1480     Total:     2.0175

*** Psi4 exiting successfully. Buy a developer a beer!
