                               Psi4 1.4a3.dev225

  ==> Input File <==

--------------------------------------------------------------------------
#psi4
#
memory 32 gb

molecule  {
0 1
  O       -0.4771680     1.3164760     0.3008390
  N        0.7985240    -0.5535590    -0.2772820
  C        3.2200150    -0.4235850    -0.1586420
  C        0.7425440     0.7008700     0.1517020
  C       -1.6208490     0.5302780     0.1412880
  C        3.1140170     0.9030370     0.2913960
  C        1.8654780     1.4834140     0.4539590
  C        2.0264240    -1.0936290    -0.4226860
  C        4.5555360    -1.0893210    -0.3460000
  C       -1.9196720    -0.4880720     1.0459920
  C       -2.4970780     0.8728280    -0.8843220
  C       -3.1225630    -1.1795470     0.9070330
  C       -3.7017300     0.1773150    -1.0087090
  C       -4.0153870    -0.8504980    -0.1174150
  H        4.0120030     1.4769520     0.5152690
  H        1.7375180     2.5038470     0.8013060
  H        2.0412640    -2.1246280    -0.7760920
  H        5.2180761    -1.1302881     0.7654240
  H        4.4318450    -2.1155640    -0.7023530
  H        5.1668890    -0.5502680    -1.0765200
  H       -1.2183070    -0.7290930     1.8393240
  H       -2.2288450     1.6771480    -1.5635320
  H       -3.3650020    -1.9773860     1.6048690
  H       -4.3932510     0.4394220    -1.8057380
  H       -4.9525670    -1.3919050    -0.2175730
units angstrom
no_reorient  #important for SAPT in psi4, default
symmetry c1  #important for SAPT in psi4, default
}

set PROPERTIES_ORIGIN ["COM"]
properties('MP2/aug-cc-pvtz', properties = ['dipole'])
--------------------------------------------------------------------------

    Molecular point group: c1
  Charge       = 0
  Multiplicity = 1
  Basis Set: AUG-CC-PVTZ
    Blend: AUG-CC-PVTZ
  Basis Set: (AUG-CC-PVTZ AUX)
    Blend: AUG-CC-PVTZ-JKFIT

    Orbital Energies [Eh]
    ---------------------

    Doubly Occupied:

       1A    -20.599561     2A    -15.564425     3A    -11.342105
       4A    -11.296209     5A    -11.279113     6A    -11.262467
       7A    -11.255391     8A    -11.245096     9A    -11.242011
      10A    -11.237189    11A    -11.237089    12A    -11.232589
      13A    -11.231859    14A    -11.230902    15A     -1.431664
      16A     -1.254668    17A     -1.146381    18A     -1.102633
      19A     -1.052957    20A     -1.015717    21A     -1.003426
      22A     -0.934764    23A     -0.878552    24A     -0.840841
      25A     -0.830626    26A     -0.800791    27A     -0.737565
      28A     -0.705148    29A     -0.679819    30A     -0.656040
      31A     -0.643904    32A     -0.627246    33A     -0.612004
      34A     -0.595834    35A     -0.590191    36A     -0.580265
      37A     -0.567946    38A     -0.561428    39A     -0.532544
      40A     -0.523124    41A     -0.513031    42A     -0.508296
      43A     -0.493123    44A     -0.475891    45A     -0.428966
      46A     -0.384781    47A     -0.335907    48A     -0.332659
      49A     -0.313899

  @DF-RHF Final Energy:  -590.31187015252226

   => Energetics <=

    Nuclear Repulsion Energy =            800.9198123872502038
    One-Electron Energy =               -2390.5660902443978557
    Two-Electron Energy =                 999.3344077046253915
    Total Energy =                       -590.3118701525222605
  Basis Set: (AUG-CC-PVTZ AUX)
    Blend: AUG-CC-PVTZ-RI
    Molecular point group: c1

    Geometry (in Angstrom), charge = 0, multiplicity = 1:

       Center              X                  Y                   Z               Mass
    ------------   -----------------  -----------------  -----------------  -----------------
         O           -0.443726119531     1.295566460464     0.295696404157    15.994914619570
         N            0.831965880469    -0.574468539536    -0.282424595843    14.003074004430
         C            3.253456880469    -0.444494539536    -0.163784595843    12.000000000000
         C            0.775985880469     0.679960460464     0.146559404157    12.000000000000
         C           -1.587407119531     0.509368460464     0.136145404157    12.000000000000
         C            3.147458880469     0.882127460464     0.286253404157    12.000000000000
         C            1.898919880469     1.462504460464     0.448816404157    12.000000000000
         C            2.059865880469    -1.114538539536    -0.427828595843    12.000000000000
         C            4.588977880469    -1.110230539536    -0.351142595843    12.000000000000
         C           -1.886230119531    -0.508981539536     1.040849404157    12.000000000000
         C           -2.463636119531     0.851918460464    -0.889464595843    12.000000000000
         C           -3.089121119531    -1.200456539536     0.901890404157    12.000000000000
         C           -3.668288119531     0.156405460464    -1.013851595843    12.000000000000
         C           -3.981945119531    -0.871407539536    -0.122557595843    12.000000000000
         H            4.045444880469     1.456042460464     0.510126404157     1.007825032230
         H            1.770959880469     2.482937460464     0.796163404157     1.007825032230
         H            2.074705880469    -2.145537539536    -0.781234595843     1.007825032230
         H            5.251517980469    -1.151197639536     0.760281404157     1.007825032230
         H            4.465286880469    -2.136473539536    -0.707495595843     1.007825032230
         H            5.200330880469    -0.571177539536    -1.081662595843     1.007825032230
         H           -1.184865119531    -0.750002539536     1.834181404157     1.007825032230
         H           -2.195403119531     1.656238460464    -1.568674595843     1.007825032230
         H           -3.331560119531    -1.998295539536     1.599726404157     1.007825032230
         H           -4.359809119531     0.418512460464    -1.810880595843     1.007825032230
         H           -4.919125119531    -1.412814539536    -0.222715595843     1.007825032230

  Basis Set: AUG-CC-PVTZ
    Blend: AUG-CC-PVTZ
  Basis Set: (AUG-CC-PVTZ AUX)
    Blend: AUG-CC-PVTZ-JKFIT
	 Reference Energy          =    -590.3118701525222605 [Eh]
	 Singles Energy            =      -0.0000000000000000 [Eh]
	 Same-Spin Energy          =      -0.6439106620100725 [Eh]
	 Opposite-Spin Energy      =      -1.9828832362710422 [Eh]
	 Correlation Energy        =      -2.6267938982811145 [Eh]
	 Total Energy              =    -592.9386640508033679 [Eh]

	 ================> DF-SCS-MP2 Energies <==================
	-----------------------------------------------------------
	 SCS Same-Spin Scale       =       0.3333333333333333 [-]
	 SCS Opposite-Spin Scale   =       1.2000000000000000 [-]
	 SCS Same-Spin Energy      =      -0.2146368873366908 [Eh]
	 SCS Opposite-Spin Energy  =      -2.3794598835252505 [Eh]
	 SCS Correlation Energy    =      -2.5940967708619413 [Eh]
	 SCS Total Energy          =    -592.9059669233841987 [Eh]
	-----------------------------------------------------------

  Dipole Moment: [D]
     X:     1.8714      Y:    -0.1448      Z:     0.0827     Total:     1.8788

*** Psi4 exiting successfully. Buy a developer a beer!
