                               Psi4 1.4a3.dev225

  ==> Input File <==

--------------------------------------------------------------------------
#psi4
#
memory 32 gb

molecule  {
0 1
  O       -0.4771680     1.3164760     0.3008390
  N        0.7985240    -0.5535590    -0.2772820
  C        3.2200150    -0.4235850    -0.1586420
  C        0.7425440     0.7008700     0.1517020
  C       -1.6208490     0.5302780     0.1412880
  C        3.1140170     0.9030370     0.2913960
  C        1.8654780     1.4834140     0.4539590
  C        2.0264240    -1.0936290    -0.4226860
  C        4.5555360    -1.0893210    -0.3460000
  C       -1.9196720    -0.4880720     1.0459920
  C       -2.4970780     0.8728280    -0.8843220
  C       -3.1225630    -1.1795470     0.9070330
  C       -3.7017300     0.1773150    -1.0087090
  C       -4.0153870    -0.8504980    -0.1174150
  H        4.0120030     1.4769520     0.5152690
  H        1.7139417     2.6918589     0.8653037
  H        2.0412640    -2.1246280    -0.7760920
  H        5.1157190    -1.1239590     0.5937180
  H        4.4318450    -2.1155640    -0.7023530
  H        5.1668890    -0.5502680    -1.0765200
  H       -1.2183070    -0.7290930     1.8393240
  H       -2.2288450     1.6771480    -1.5635320
  H       -3.3650020    -1.9773860     1.6048690
  H       -4.3932510     0.4394220    -1.8057380
  H       -4.9525670    -1.3919050    -0.2175730
units angstrom
no_reorient  #important for SAPT in psi4, default
symmetry c1  #important for SAPT in psi4, default
}

set PROPERTIES_ORIGIN ["COM"]
properties('MP2/aug-cc-pvtz', properties = ['dipole'])
--------------------------------------------------------------------------

    Molecular point group: c1
  Charge       = 0
  Multiplicity = 1
  Basis Set: AUG-CC-PVTZ
    Blend: AUG-CC-PVTZ
  Basis Set: (AUG-CC-PVTZ AUX)
    Blend: AUG-CC-PVTZ-JKFIT

    Orbital Energies [Eh]
    ---------------------

    Doubly Occupied:

       1A    -20.598419     2A    -15.565103     3A    -11.342779
       4A    -11.295552     5A    -11.278154     6A    -11.263413
       7A    -11.261301     8A    -11.244608     9A    -11.236736
      10A    -11.236636    11A    -11.233568    12A    -11.232065
      13A    -11.231301    14A    -11.230440    15A     -1.430628
      16A     -1.254785    17A     -1.145827    18A     -1.102803
      19A     -1.050279    20A     -1.015238    21A     -1.003461
      22A     -0.943714    23A     -0.876195    24A     -0.838870
      25A     -0.828088    26A     -0.800969    27A     -0.737048
      28A     -0.703235    29A     -0.679427    30A     -0.655458
      31A     -0.631584    32A     -0.619031    33A     -0.596816
      34A     -0.595104    35A     -0.591349    36A     -0.586371
      37A     -0.569788    38A     -0.562712    39A     -0.549717
      40A     -0.514785    41A     -0.513594    42A     -0.509114
      43A     -0.492669    44A     -0.477756    45A     -0.427242
      46A     -0.385683    47A     -0.335503    48A     -0.332775
      49A     -0.314076

  @DF-RHF Final Energy:  -590.30888746495657

   => Energetics <=

    Nuclear Repulsion Energy =            800.7349927773743730
    One-Electron Energy =               -2390.2442202422316768
    Two-Electron Energy =                 999.2003399999007343
    Total Energy =                       -590.3088874649565696
  Basis Set: (AUG-CC-PVTZ AUX)
    Blend: AUG-CC-PVTZ-RI
    Molecular point group: c1

    Geometry (in Angstrom), charge = 0, multiplicity = 1:

       Center              X                  Y                   Z               Mass
    ------------   -----------------  -----------------  -----------------  -----------------
         O           -0.443040383384     1.294508229299     0.296282900469    15.994914619570
         N            0.832651616616    -0.575526770701    -0.281838099531    14.003074004430
         C            3.254142616616    -0.445552770701    -0.163198099531    12.000000000000
         C            0.776671616616     0.678902229299     0.147145900469    12.000000000000
         C           -1.586721383384     0.508310229299     0.136731900469    12.000000000000
         C            3.148144616616     0.881069229299     0.286839900469    12.000000000000
         C            1.899605616616     1.461446229299     0.449402900469    12.000000000000
         C            2.060551616616    -1.115596770701    -0.427242099531    12.000000000000
         C            4.589663616616    -1.111288770701    -0.350556099531    12.000000000000
         C           -1.885544383384    -0.510039770701     1.041435900469    12.000000000000
         C           -2.462950383384     0.850860229299    -0.888878099531    12.000000000000
         C           -3.088435383384    -1.201514770701     0.902476900469    12.000000000000
         C           -3.667602383384     0.155347229299    -1.013265099531    12.000000000000
         C           -3.981259383384    -0.872465770701    -0.121971099531    12.000000000000
         H            4.046130616616     1.454984229299     0.510712900469     1.007825032230
         H            1.748069316616     2.669891129299     0.860747600469     1.007825032230
         H            2.075391616616    -2.146595770701    -0.780648099531     1.007825032230
         H            5.149846616616    -1.145926770701     0.589161900469     1.007825032230
         H            4.465972616616    -2.137531770701    -0.706909099531     1.007825032230
         H            5.201016616616    -0.572235770701    -1.081076099531     1.007825032230
         H           -1.184179383384    -0.751060770701     1.834767900469     1.007825032230
         H           -2.194717383384     1.655180229299    -1.568088099531     1.007825032230
         H           -3.330874383384    -1.999353770701     1.600312900469     1.007825032230
         H           -4.359123383384     0.417454229299    -1.810294099531     1.007825032230
         H           -4.918439383384    -1.413872770701    -0.222129099531     1.007825032230

  Basis Set: AUG-CC-PVTZ
    Blend: AUG-CC-PVTZ
  Basis Set: (AUG-CC-PVTZ AUX)
    Blend: AUG-CC-PVTZ-JKFIT
	 Reference Energy          =    -590.3088874649565696 [Eh]
	 Singles Energy            =      -0.0000000000000000 [Eh]
	 Same-Spin Energy          =      -0.6446195006271186 [Eh]
	 Opposite-Spin Energy      =      -1.9838189312084480 [Eh]
	 Correlation Energy        =      -2.6284384318355665 [Eh]
	 Total Energy              =    -592.9373258967921174 [Eh]

	 ================> DF-SCS-MP2 Energies <==================
	-----------------------------------------------------------
	 SCS Same-Spin Scale       =       0.3333333333333333 [-]
	 SCS Opposite-Spin Scale   =       1.2000000000000000 [-]
	 SCS Same-Spin Energy      =      -0.2148731668757062 [Eh]
	 SCS Opposite-Spin Energy  =      -2.3805827174501375 [Eh]
	 SCS Correlation Energy    =      -2.5954558843258435 [Eh]
	 SCS Total Energy          =    -592.9043433492823851 [Eh]
	-----------------------------------------------------------

  Dipole Moment: [D]
     X:     2.0236      Y:    -0.2270      Z:     0.1407     Total:     2.0411

*** Psi4 exiting successfully. Buy a developer a beer!
