                               Psi4 1.4a3.dev225

  ==> Input File <==

--------------------------------------------------------------------------
#psi4
#
memory 32 gb

molecule  {
0 1
  O       -0.4771680     1.3164760     0.3008390
  N        0.7985240    -0.5535590    -0.2772820
  C        3.2200150    -0.4235850    -0.1586420
  C        0.7425440     0.7008700     0.1517020
  C       -1.6208490     0.5302780     0.1412880
  C        3.1140170     0.9030370     0.2913960
  C        1.8654780     1.4834140     0.4539590
  C        2.0264240    -1.0936290    -0.4226860
  C        4.5555360    -1.0893210    -0.3460000
  C       -1.9196720    -0.4880720     1.0459920
  C       -2.4970780     0.8728280    -0.8843220
  C       -3.1225630    -1.1795470     0.9070330
  C       -3.7017300     0.1773150    -1.0087090
  C       -3.9302576    -0.8334723    -0.0731506
  H        4.0120030     1.4769520     0.5152690
  H        1.7375180     2.5038470     0.8013060
  H        2.0412640    -2.1246280    -0.7760920
  H        5.1157190    -1.1239590     0.5937180
  H        4.4318450    -2.1155640    -0.7023530
  H        5.1668890    -0.5502680    -1.0765200
  H       -1.2183070    -0.7290930     1.8393240
  H       -2.2288450     1.6771480    -1.5635320
  H       -3.3650020    -1.9773860     1.6048690
  H       -4.3932510     0.4394220    -1.8057380
  H       -4.9525670    -1.3919050    -0.2175730
units angstrom
no_reorient  #important for SAPT in psi4, default
symmetry c1  #important for SAPT in psi4, default
}

set PROPERTIES_ORIGIN ["COM"]
properties('MP2/aug-cc-pvtz', properties = ['dipole'])
--------------------------------------------------------------------------

    Molecular point group: c1
  Charge       = 0
  Multiplicity = 1
  Basis Set: AUG-CC-PVTZ
    Blend: AUG-CC-PVTZ
  Basis Set: (AUG-CC-PVTZ AUX)
    Blend: AUG-CC-PVTZ-JKFIT

    Orbital Energies [Eh]
    ---------------------

    Doubly Occupied:

       1A    -20.597791     2A    -15.563001     3A    -11.340315
       4A    -11.293422     5A    -11.277077     6A    -11.261207
       7A    -11.242946     8A    -11.240865     9A    -11.236646
      10A    -11.232609    11A    -11.232206    12A    -11.232177
      13A    -11.229167    14A    -11.226134    15A     -1.429958
      16A     -1.253143    17A     -1.155631    18A     -1.102369
      19A     -1.054086    20A     -1.021680    21A     -1.003358
      22A     -0.942705    23A     -0.876665    24A     -0.846053
      25A     -0.830499    26A     -0.798407    27A     -0.738433
      28A     -0.704615    29A     -0.669730    30A     -0.658717
      31A     -0.642107    32A     -0.627688    33A     -0.611166
      34A     -0.600455    35A     -0.592544    36A     -0.587488
      37A     -0.569512    38A     -0.561872    39A     -0.548510
      40A     -0.521096    41A     -0.519940    42A     -0.501486
      43A     -0.485664    44A     -0.479587    45A     -0.428028
      46A     -0.384203    47A     -0.341697    48A     -0.332276
      49A     -0.313364

  @DF-RHF Final Energy:  -590.31925830088767

   => Energetics <=

    Nuclear Repulsion Energy =            803.5798652708582495
    One-Electron Energy =               -2395.9176537370540245
    Two-Electron Energy =                1002.0185301653082206
    Total Energy =                       -590.3192583008876682
  Basis Set: (AUG-CC-PVTZ AUX)
    Blend: AUG-CC-PVTZ-RI
    Molecular point group: c1

    Geometry (in Angstrom), charge = 0, multiplicity = 1:

       Center              X                  Y                   Z               Mass
    ------------   -----------------  -----------------  -----------------  -----------------
         O           -0.448688160739     1.294428128936     0.293761482331    15.994914619570
         N            0.827003839261    -0.575606871064    -0.284359517669    14.003074004430
         C            3.248494839261    -0.445632871064    -0.165719517669    12.000000000000
         C            0.771023839261     0.678822128936     0.144624482331    12.000000000000
         C           -1.592369160739     0.508230128936     0.134210482331    12.000000000000
         C            3.142496839261     0.880989128936     0.284318482331    12.000000000000
         C            1.893957839261     1.461366128936     0.446881482331    12.000000000000
         C            2.054903839261    -1.115676871064    -0.429763517669    12.000000000000
         C            4.584015839261    -1.111368871064    -0.353077517669    12.000000000000
         C           -1.891192160739    -0.510119871064     1.038914482331    12.000000000000
         C           -2.468598160739     0.850780128936    -0.891399517669    12.000000000000
         C           -3.094083160739    -1.201594871064     0.899955482331    12.000000000000
         C           -3.673250160739     0.155267128936    -1.015786517669    12.000000000000
         C           -3.901777760739    -0.855520171064    -0.080228117669    12.000000000000
         H            4.040482839261     1.454904128936     0.508191482331     1.007825032230
         H            1.765997839261     2.481799128936     0.794228482331     1.007825032230
         H            2.069743839261    -2.146675871064    -0.783169517669     1.007825032230
         H            5.144198839261    -1.146006871064     0.586640482331     1.007825032230
         H            4.460324839261    -2.137611871064    -0.709430517669     1.007825032230
         H            5.195368839261    -0.572315871064    -1.083597517669     1.007825032230
         H           -1.189827160739    -0.751140871064     1.832246482331     1.007825032230
         H           -2.200365160739     1.655100128936    -1.570609517669     1.007825032230
         H           -3.336522160739    -1.999433871064     1.597791482331     1.007825032230
         H           -4.364771160739     0.417374128936    -1.812815517669     1.007825032230
         H           -4.924087160739    -1.413952871064    -0.224650517669     1.007825032230

  Basis Set: AUG-CC-PVTZ
    Blend: AUG-CC-PVTZ
  Basis Set: (AUG-CC-PVTZ AUX)
    Blend: AUG-CC-PVTZ-JKFIT
	 Reference Energy          =    -590.3192583008876682 [Eh]
	 Singles Energy            =      -0.0000000000000000 [Eh]
	 Same-Spin Energy          =      -0.6443165770371346 [Eh]
	 Opposite-Spin Energy      =      -1.9818437616918148 [Eh]
	 Correlation Energy        =      -2.6261603387289494 [Eh]
	 Total Energy              =    -592.9454186396166051 [Eh]

	 ================> DF-SCS-MP2 Energies <==================
	-----------------------------------------------------------
	 SCS Same-Spin Scale       =       0.3333333333333333 [-]
	 SCS Opposite-Spin Scale   =       1.2000000000000000 [-]
	 SCS Same-Spin Energy      =      -0.2147721923457115 [Eh]
	 SCS Opposite-Spin Energy  =      -2.3782125140301775 [Eh]
	 SCS Correlation Energy    =      -2.5929847063758888 [Eh]
	 SCS Total Energy          =    -592.9122430072635552 [Eh]
	-----------------------------------------------------------

  Dipole Moment: [D]
     X:     2.0328      Y:    -0.1497      Z:     0.1491     Total:     2.0437

*** Psi4 exiting successfully. Buy a developer a beer!
