                               Psi4 1.4a3.dev225

  ==> Input File <==

--------------------------------------------------------------------------
#psi4
#
memory 32 gb

molecule  {
0 1
  O       -0.4771680     1.3164760     0.3008390
  N        0.7985240    -0.5535590    -0.2772820
  C        3.2200150    -0.4235850    -0.1586420
  C        0.7425440     0.7008700     0.1517020
  C       -1.6208490     0.5302780     0.1412880
  C        3.1140170     0.9030370     0.2913960
  C        1.8654780     1.4834140     0.4539590
  C        2.0264240    -1.0936290    -0.4226860
  C        4.5555360    -1.0893210    -0.3460000
  C       -1.9196720    -0.4880720     1.0459920
  C       -2.4970780     0.8728280    -0.8843220
  C       -3.1225630    -1.1795470     0.9070330
  C       -3.7017300     0.1773150    -1.0087090
  C       -4.0153870    -0.8504980    -0.1174150
  H        4.0120030     1.4769520     0.5152690
  H        1.7375180     2.5038470     0.8013060
  H        2.0412640    -2.1246280    -0.7760920
  H        5.1157190    -1.1239590     0.5937180
  H        4.4318450    -2.1155640    -0.7023530
  H        5.1780601    -0.5404180    -1.0898686
  H       -1.2183070    -0.7290930     1.8393240
  H       -2.2288450     1.6771480    -1.5635320
  H       -3.3650020    -1.9773860     1.6048690
  H       -4.3932510     0.4394220    -1.8057380
  H       -4.9525670    -1.3919050    -0.2175730
units angstrom
no_reorient  #important for SAPT in psi4, default
symmetry c1  #important for SAPT in psi4, default
}

set PROPERTIES_ORIGIN ["COM"]
properties('MP2/aug-cc-pvtz', properties = ['dipole'])
--------------------------------------------------------------------------

    Molecular point group: c1
  Charge       = 0
  Multiplicity = 1
  Basis Set: AUG-CC-PVTZ
    Blend: AUG-CC-PVTZ
  Basis Set: (AUG-CC-PVTZ AUX)
    Blend: AUG-CC-PVTZ-JKFIT

    Orbital Energies [Eh]
    ---------------------

    Doubly Occupied:

       1A    -20.598642     2A    -15.563471     3A    -11.340818
       4A    -11.295695     5A    -11.277430     6A    -11.261497
       7A    -11.243369     8A    -11.241220     9A    -11.236769
      10A    -11.236669    11A    -11.235155    12A    -11.232114
      13A    -11.231371    14A    -11.230473    15A     -1.430795
      16A     -1.253553    17A     -1.145901    18A     -1.102534
      19A     -1.052925    20A     -1.015283    21A     -1.003668
      22A     -0.941745    23A     -0.877730    24A     -0.841911
      25A     -0.830606    26A     -0.800815    27A     -0.736863
      28A     -0.704707    29A     -0.679221    30A     -0.655535
      31A     -0.643208    32A     -0.626508    33A     -0.610968
      34A     -0.594751    35A     -0.591721    36A     -0.585432
      37A     -0.568521    38A     -0.563229    39A     -0.548810
      40A     -0.521311    41A     -0.513320    42A     -0.511714
      43A     -0.492729    44A     -0.477520    45A     -0.428265
      46A     -0.384469    47A     -0.335467    48A     -0.332360
      49A     -0.313601

  @DF-RHF Final Energy:  -590.33105945444299

   => Energetics <=

    Nuclear Repulsion Energy =            801.6295526985433071
    One-Electron Energy =               -2392.0364485166192026
    Two-Electron Energy =                1000.0758363636330159
    Total Energy =                       -590.3310594544429932
  Basis Set: (AUG-CC-PVTZ AUX)
    Blend: AUG-CC-PVTZ-RI
    Molecular point group: c1

    Geometry (in Angstrom), charge = 0, multiplicity = 1:

       Center              X                  Y                   Z               Mass
    ------------   -----------------  -----------------  -----------------  -----------------
         O           -0.443229590919     1.295478361567     0.296704068751    15.994914619570
         N            0.832462409081    -0.574556638433    -0.281416931249    14.003074004430
         C            3.253953409081    -0.444582638433    -0.162776931249    12.000000000000
         C            0.776482409081     0.679872361567     0.147567068751    12.000000000000
         C           -1.586910590919     0.509280361567     0.137153068751    12.000000000000
         C            3.147955409081     0.882039361567     0.287261068751    12.000000000000
         C            1.899416409081     1.462416361567     0.449824068751    12.000000000000
         C            2.060362409081    -1.114626638433    -0.426820931249    12.000000000000
         C            4.589474409081    -1.110318638433    -0.350134931249    12.000000000000
         C           -1.885733590919    -0.509069638433     1.041857068751    12.000000000000
         C           -2.463139590919     0.851830361567    -0.888456931249    12.000000000000
         C           -3.088624590919    -1.200544638433     0.902898068751    12.000000000000
         C           -3.667791590919     0.156317361567    -1.012843931249    12.000000000000
         C           -3.981448590919    -0.871495638433    -0.121549931249    12.000000000000
         H            4.045941409081     1.455954361567     0.511134068751     1.007825032230
         H            1.771456409081     2.482849361567     0.797171068751     1.007825032230
         H            2.075202409081    -2.145625638433    -0.780226931249     1.007825032230
         H            5.149657409081    -1.144956638433     0.589583068751     1.007825032230
         H            4.465783409081    -2.136561638433    -0.706487931249     1.007825032230
         H            5.211998509081    -0.561415638433    -1.094003531249     1.007825032230
         H           -1.184368590919    -0.750090638433     1.835189068751     1.007825032230
         H           -2.194906590919     1.656150361567    -1.567666931249     1.007825032230
         H           -3.331063590919    -1.998383638433     1.600734068751     1.007825032230
         H           -4.359312590919     0.418424361567    -1.809872931249     1.007825032230
         H           -4.918628590919    -1.412902638433    -0.221707931249     1.007825032230

  Basis Set: AUG-CC-PVTZ
    Blend: AUG-CC-PVTZ
  Basis Set: (AUG-CC-PVTZ AUX)
    Blend: AUG-CC-PVTZ-JKFIT
	 Reference Energy          =    -590.3310594544429932 [Eh]
	 Singles Energy            =      -0.0000000000000000 [Eh]
	 Same-Spin Energy          =      -0.6439922135125601 [Eh]
	 Opposite-Spin Energy      =      -1.9815978887455139 [Eh]
	 Correlation Energy        =      -2.6255901022580739 [Eh]
	 Total Energy              =    -592.9566495567011088 [Eh]

	 ================> DF-SCS-MP2 Energies <==================
	-----------------------------------------------------------
	 SCS Same-Spin Scale       =       0.3333333333333333 [-]
	 SCS Opposite-Spin Scale   =       1.2000000000000000 [-]
	 SCS Same-Spin Energy      =      -0.2146640711708533 [Eh]
	 SCS Opposite-Spin Energy  =      -2.3779174664946168 [Eh]
	 SCS Correlation Energy    =      -2.5925815376654699 [Eh]
	 SCS Total Energy          =    -592.9236409921085169 [Eh]
	-----------------------------------------------------------

  Dipole Moment: [D]
     X:     2.0056      Y:    -0.1847      Z:     0.1619     Total:     2.0205

*** Psi4 exiting successfully. Buy a developer a beer!
