                               Psi4 1.4a3.dev225

  ==> Input File <==

--------------------------------------------------------------------------
#psi4
#
memory 32 gb

molecule  {
0 1
  O       -0.4771680     1.3164760     0.3008390
  N        0.7985240    -0.5535590    -0.2772820
  C        3.2200150    -0.4235850    -0.1586420
  C        0.7425440     0.7008700     0.1517020
  C       -1.6208490     0.5302780     0.1412880
  C        3.1140170     0.9030370     0.2913960
  C        1.8654780     1.4834140     0.4539590
  C        2.0264240    -1.0936290    -0.4226860
  C        4.5555360    -1.0893210    -0.3460000
  C       -1.9196720    -0.4880720     1.0459920
  C       -2.4970780     0.8728280    -0.8843220
  C       -3.1225630    -1.1795470     0.9070330
  C       -3.7017300     0.1773150    -1.0087090
  C       -4.0153870    -0.8504980    -0.1174150
  H        4.0120030     1.4769520     0.5152690
  H        1.7375180     2.5038470     0.8013060
  H        2.0412640    -2.1246280    -0.7760920
  H        5.1157190    -1.1239590     0.5937180
  H        4.4318450    -2.1155640    -0.7023530
  H        5.2785999    -0.4517683    -1.2100059
  H       -1.2183070    -0.7290930     1.8393240
  H       -2.2288450     1.6771480    -1.5635320
  H       -3.3650020    -1.9773860     1.6048690
  H       -4.3932510     0.4394220    -1.8057380
  H       -4.9525670    -1.3919050    -0.2175730
units angstrom
no_reorient  #important for SAPT in psi4, default
symmetry c1  #important for SAPT in psi4, default
}

set PROPERTIES_ORIGIN ["COM"]
properties('MP2/aug-cc-pvtz', properties = ['dipole'])
--------------------------------------------------------------------------

    Molecular point group: c1
  Charge       = 0
  Multiplicity = 1
  Basis Set: AUG-CC-PVTZ
    Blend: AUG-CC-PVTZ
  Basis Set: (AUG-CC-PVTZ AUX)
    Blend: AUG-CC-PVTZ-JKFIT

    Orbital Energies [Eh]
    ---------------------

    Doubly Occupied:

       1A    -20.599555     2A    -15.564420     3A    -11.342098
       4A    -11.296220     5A    -11.279108     6A    -11.262460
       7A    -11.255372     8A    -11.245095     9A    -11.242007
      10A    -11.237203    11A    -11.237101    12A    -11.232625
      13A    -11.231851    14A    -11.230912    15A     -1.431661
      16A     -1.254663    17A     -1.146392    18A     -1.102626
      19A     -1.052955    20A     -1.015730    21A     -1.003432
      22A     -0.934760    23A     -0.878548    24A     -0.840844
      25A     -0.830638    26A     -0.800792    27A     -0.737569
      28A     -0.705133    29A     -0.679834    30A     -0.656144
      31A     -0.643856    32A     -0.627177    33A     -0.611310
      34A     -0.595457    35A     -0.591148    36A     -0.582643
      37A     -0.566009    38A     -0.560399    39A     -0.533930
      40A     -0.523399    41A     -0.512463    42A     -0.507409
      43A     -0.493201    44A     -0.476366    45A     -0.428989
      46A     -0.384758    47A     -0.335900    48A     -0.332588
      49A     -0.313964

  @DF-RHF Final Energy:  -590.31186070504907

   => Energetics <=

    Nuclear Repulsion Energy =            800.9167298640776380
    One-Electron Energy =               -2390.5597458939337230
    Two-Electron Energy =                 999.3311553248069004
    Total Energy =                       -590.3118607050490709
  Basis Set: (AUG-CC-PVTZ AUX)
    Blend: AUG-CC-PVTZ-RI
    Molecular point group: c1

    Geometry (in Angstrom), charge = 0, multiplicity = 1:

       Center              X                  Y                   Z               Mass
    ------------   -----------------  -----------------  -----------------  -----------------
         O           -0.443777053110     1.294995643688     0.297358243808    15.994914619570
         N            0.831914946890    -0.575039356312    -0.280762756192    14.003074004430
         C            3.253405946890    -0.445065356312    -0.162122756192    12.000000000000
         C            0.775934946890     0.679389643688     0.148221243808    12.000000000000
         C           -1.587458053110     0.508797643688     0.137807243808    12.000000000000
         C            3.147407946890     0.881556643688     0.287915243808    12.000000000000
         C            1.898868946890     1.461933643688     0.450478243808    12.000000000000
         C            2.059814946890    -1.115109356312    -0.426166756192    12.000000000000
         C            4.588926946890    -1.110801356312    -0.349480756192    12.000000000000
         C           -1.886281053110    -0.509552356312     1.042511243808    12.000000000000
         C           -2.463687053110     0.851347643688    -0.887802756192    12.000000000000
         C           -3.089172053110    -1.201027356312     0.903552243808    12.000000000000
         C           -3.668339053110     0.155834643688    -1.012189756192    12.000000000000
         C           -3.981996053110    -0.871978356312    -0.120895756192    12.000000000000
         H            4.045393946890     1.455471643688     0.511788243808     1.007825032230
         H            1.770908946890     2.482366643688     0.797825243808     1.007825032230
         H            2.074654946890    -2.146108356312    -0.779572756192     1.007825032230
         H            5.149109946890    -1.145439356312     0.590237243808     1.007825032230
         H            4.465235946890    -2.137044356312    -0.705833756192     1.007825032230
         H            5.311990846890    -0.473248656312    -1.213486656192     1.007825032230
         H           -1.184916053110    -0.750573356312     1.835843243808     1.007825032230
         H           -2.195454053110     1.655667643688    -1.567012756192     1.007825032230
         H           -3.331611053110    -1.998866356312     1.601388243808     1.007825032230
         H           -4.359860053110     0.417941643688    -1.809218756192     1.007825032230
         H           -4.919176053110    -1.413385356312    -0.221053756192     1.007825032230

  Basis Set: AUG-CC-PVTZ
    Blend: AUG-CC-PVTZ
  Basis Set: (AUG-CC-PVTZ AUX)
    Blend: AUG-CC-PVTZ-JKFIT
	 Reference Energy          =    -590.3118607050490709 [Eh]
	 Singles Energy            =      -0.0000000000000000 [Eh]
	 Same-Spin Energy          =      -0.6439121360171610 [Eh]
	 Opposite-Spin Energy      =      -1.9828878104772758 [Eh]
	 Correlation Energy        =      -2.6267999464944367 [Eh]
	 Total Energy              =    -592.9386606515435005 [Eh]

	 ================> DF-SCS-MP2 Energies <==================
	-----------------------------------------------------------
	 SCS Same-Spin Scale       =       0.3333333333333333 [-]
	 SCS Opposite-Spin Scale   =       1.2000000000000000 [-]
	 SCS Same-Spin Energy      =      -0.2146373786723870 [Eh]
	 SCS Opposite-Spin Energy  =      -2.3794653725727311 [Eh]
	 SCS Correlation Energy    =      -2.5941027512451180 [Eh]
	 SCS Total Energy          =    -592.9059634562942165 [Eh]
	-----------------------------------------------------------

  Dipole Moment: [D]
     X:     1.8680      Y:    -0.1953      Z:     0.2309     Total:     1.8924

*** Psi4 exiting successfully. Buy a developer a beer!
