                               Psi4 1.4a3.dev225

  ==> Input File <==

--------------------------------------------------------------------------
#psi4
#
memory 32 gb

molecule  {
0 1
  O       -0.4771680     1.3164760     0.3008390
  N        0.7985240    -0.5535590    -0.2772820
  C        3.2200150    -0.4235850    -0.1586420
  C        0.7425440     0.7008700     0.1517020
  C       -1.6208490     0.5302780     0.1412880
  C        3.1140170     0.9030370     0.2913960
  C        1.8654780     1.4834140     0.4539590
  C        2.0264240    -1.0936290    -0.4226860
  C        4.5555360    -1.0893210    -0.3460000
  C       -1.9196720    -0.4880720     1.0459920
  C       -2.4970780     0.8728280    -0.8843220
  C       -3.1225630    -1.1795470     0.9070330
  C       -3.7017300     0.1773150    -1.0087090
  C       -4.0603193    -0.9977352     0.0102655
  H        4.0120030     1.4769520     0.5152690
  H        1.7375180     2.5038470     0.8013060
  H        2.0412640    -2.1246280    -0.7760920
  H        5.1157190    -1.1239590     0.5937180
  H        4.4318450    -2.1155640    -0.7023530
  H        5.1668890    -0.5502680    -1.0765200
  H       -1.2183070    -0.7290930     1.8393240
  H       -2.2288450     1.6771480    -1.5635320
  H       -3.3650020    -1.9773860     1.6048690
  H       -4.3932510     0.4394220    -1.8057380
  H       -4.9525670    -1.3919050    -0.2175730
units angstrom
no_reorient  #important for SAPT in psi4, default
symmetry c1  #important for SAPT in psi4, default
}

set PROPERTIES_ORIGIN ["COM"]
properties('MP2/aug-cc-pvtz', properties = ['dipole'])
--------------------------------------------------------------------------

    Molecular point group: c1
  Charge       = 0
  Multiplicity = 1
  Basis Set: AUG-CC-PVTZ
    Blend: AUG-CC-PVTZ
  Basis Set: (AUG-CC-PVTZ AUX)
    Blend: AUG-CC-PVTZ-JKFIT

    Orbital Energies [Eh]
    ---------------------

    Doubly Occupied:

       1A    -20.599812     2A    -15.563445     3A    -11.341347
       4A    -11.298719     5A    -11.277425     6A    -11.261612
       7A    -11.253086     8A    -11.243376     9A    -11.241450
      10A    -11.233097    11A    -11.232845    12A    -11.232679
      13A    -11.230272    14A    -11.227923    15A     -1.431952
      16A     -1.253699    17A     -1.139970    18A     -1.102783
      19A     -1.054596    20A     -1.023139    21A     -0.992873
      22A     -0.944311    23A     -0.879835    24A     -0.847351
      25A     -0.821465    26A     -0.803826    27A     -0.736044
      28A     -0.704702    29A     -0.695937    30A     -0.657220
      31A     -0.643945    32A     -0.625445    33A     -0.610438
      34A     -0.600504    35A     -0.589049    36A     -0.581420
      37A     -0.572290    38A     -0.561770    39A     -0.550184
      40A     -0.537992    41A     -0.520887    42A     -0.500967
      43A     -0.483354    44A     -0.453638    45A     -0.427990
      46A     -0.384529    47A     -0.351016    48A     -0.326553
      49A     -0.304439

  @DF-RHF Final Energy:  -590.28973837424201

   => Energetics <=

    Nuclear Repulsion Energy =            799.9153632569293677
    One-Electron Energy =               -2388.5038050913494772
    Two-Electron Energy =                 998.2987034601781033
    Total Energy =                       -590.2897383742420061
  Basis Set: (AUG-CC-PVTZ AUX)
    Blend: AUG-CC-PVTZ-RI
    Molecular point group: c1

    Geometry (in Angstrom), charge = 0, multiplicity = 1:

       Center              X                  Y                   Z               Mass
    ------------   -----------------  -----------------  -----------------  -----------------
         O           -0.440255557918     1.305078180364     0.288353165815    15.994914619570
         N            0.835436442082    -0.564956819636    -0.289767834185    14.003074004430
         C            3.256927442082    -0.434982819636    -0.171127834185    12.000000000000
         C            0.779456442082     0.689472180364     0.139216165815    12.000000000000
         C           -1.583936557918     0.518880180364     0.128802165815    12.000000000000
         C            3.150929442082     0.891639180364     0.278910165815    12.000000000000
         C            1.902390442082     1.472016180364     0.441473165815    12.000000000000
         C            2.063336442082    -1.105026819636    -0.435171834185    12.000000000000
         C            4.592448442082    -1.100718819636    -0.358485834185    12.000000000000
         C           -1.882759557918    -0.499469819636     1.033506165815    12.000000000000
         C           -2.460165557918     0.861430180364    -0.896807834185    12.000000000000
         C           -3.085650557918    -1.190944819636     0.894547165815    12.000000000000
         C           -3.664817557918     0.165917180364    -1.021194834185    12.000000000000
         C           -4.023406857918    -1.009133019636    -0.002220334185    12.000000000000
         H            4.048915442082     1.465554180364     0.502783165815     1.007825032230
         H            1.774430442082     2.492449180364     0.788820165815     1.007825032230
         H            2.078176442082    -2.136025819636    -0.788577834185     1.007825032230
         H            5.152631442082    -1.135356819636     0.581232165815     1.007825032230
         H            4.468757442082    -2.126961819636    -0.714838834185     1.007825032230
         H            5.203801442082    -0.561665819636    -1.089005834185     1.007825032230
         H           -1.181394557918    -0.740490819636     1.826838165815     1.007825032230
         H           -2.191932557918     1.665750180364    -1.576017834185     1.007825032230
         H           -3.328089557918    -1.988783819636     1.592383165815     1.007825032230
         H           -4.356338557918     0.428024180364    -1.818223834185     1.007825032230
         H           -4.915654557918    -1.403302819636    -0.230058834185     1.007825032230

  Basis Set: AUG-CC-PVTZ
    Blend: AUG-CC-PVTZ
  Basis Set: (AUG-CC-PVTZ AUX)
    Blend: AUG-CC-PVTZ-JKFIT
	 Reference Energy          =    -590.2897383742420061 [Eh]
	 Singles Energy            =      -0.0000000000000000 [Eh]
	 Same-Spin Energy          =      -0.6437627483263778 [Eh]
	 Opposite-Spin Energy      =      -1.9840916826216732 [Eh]
	 Correlation Energy        =      -2.6278544309480512 [Eh]
	 Total Energy              =    -592.9175928051901110 [Eh]

	 ================> DF-SCS-MP2 Energies <==================
	-----------------------------------------------------------
	 SCS Same-Spin Scale       =       0.3333333333333333 [-]
	 SCS Opposite-Spin Scale   =       1.2000000000000000 [-]
	 SCS Same-Spin Energy      =      -0.2145875827754593 [Eh]
	 SCS Opposite-Spin Energy  =      -2.3809100191460080 [Eh]
	 SCS Correlation Energy    =      -2.5954976019214673 [Eh]
	 SCS Total Energy          =    -592.8852359761634716 [Eh]
	-----------------------------------------------------------

  Dipole Moment: [D]
     X:     2.0118      Y:    -0.1641      Z:     0.1168     Total:     2.0219

*** Psi4 exiting successfully. Buy a developer a beer!
