                               Psi4 1.4a3.dev225

  ==> Input File <==

--------------------------------------------------------------------------
#psi4
#
memory 32 gb

molecule  {
0 1
  O       -0.4771680     1.3164760     0.3008390
  N        0.7985240    -0.5535590    -0.2772820
  C        3.2200150    -0.4235850    -0.1586420
  C        0.7425440     0.7008700     0.1517020
  C       -1.6208490     0.5302780     0.1412880
  C        3.1140170     0.9030370     0.2913960
  C        1.8654780     1.4834140     0.4539590
  C        2.0264240    -1.0936290    -0.4226860
  C        4.5555360    -1.0893210    -0.3460000
  C       -1.9196720    -0.4880720     1.0459920
  C       -2.4970780     0.8728280    -0.8843220
  C       -3.1225630    -1.1795470     0.9070330
  C       -3.7017300     0.1773150    -1.0087090
  C       -4.0989883    -0.8625163    -0.1660217
  H        4.0120030     1.4769520     0.5152690
  H        1.7375180     2.5038470     0.8013060
  H        2.0412640    -2.1246280    -0.7760920
  H        5.1157190    -1.1239590     0.5937180
  H        4.4318450    -2.1155640    -0.7023530
  H        5.1668890    -0.5502680    -1.0765200
  H       -1.2183070    -0.7290930     1.8393240
  H       -2.2288450     1.6771480    -1.5635320
  H       -3.3650020    -1.9773860     1.6048690
  H       -4.3932510     0.4394220    -1.8057380
  H       -4.9525670    -1.3919050    -0.2175730
units angstrom
no_reorient  #important for SAPT in psi4, default
symmetry c1  #important for SAPT in psi4, default
}

set PROPERTIES_ORIGIN ["COM"]
properties('MP2/aug-cc-pvtz', properties = ['dipole'])
--------------------------------------------------------------------------

    Molecular point group: c1
  Charge       = 0
  Multiplicity = 1
  Basis Set: AUG-CC-PVTZ
    Blend: AUG-CC-PVTZ
  Basis Set: (AUG-CC-PVTZ AUX)
    Blend: AUG-CC-PVTZ-JKFIT

    Orbital Energies [Eh]
    ---------------------

    Doubly Occupied:

       1A    -20.599701     2A    -15.564005     3A    -11.341342
       4A    -11.298364     5A    -11.277687     6A    -11.261812
       7A    -11.245924     8A    -11.243647     9A    -11.241630
      10A    -11.238164    11A    -11.233026    12A    -11.232763
      13A    -11.232627    14A    -11.230968    15A     -1.431825
      16A     -1.254004    17A     -1.138860    18A     -1.103037
      19A     -1.052580    20A     -1.013797    21A     -1.001383
      22A     -0.943393    23A     -0.879338    24A     -0.842039
      25A     -0.828510    26A     -0.804076    27A     -0.736168
      28A     -0.705501    29A     -0.691814    30A     -0.652807
      31A     -0.644294    32A     -0.625972    33A     -0.611113
      34A     -0.595949    35A     -0.590285    36A     -0.582524
      37A     -0.570496    38A     -0.565013    39A     -0.551378
      40A     -0.529465    41A     -0.521063    42A     -0.507084
      43A     -0.485504    44A     -0.470882    45A     -0.428526
      46A     -0.384879    47A     -0.337463    48A     -0.327369
      49A     -0.312746

  @DF-RHF Final Energy:  -590.31846156995073

   => Energetics <=

    Nuclear Repulsion Energy =            800.0122294397233418
    One-Electron Energy =               -2388.7357918749139571
    Two-Electron Energy =                 998.4051008652398878
    Total Energy =                       -590.3184615699507276
  Basis Set: (AUG-CC-PVTZ AUX)
    Blend: AUG-CC-PVTZ-RI
    Molecular point group: c1

    Geometry (in Angstrom), charge = 0, multiplicity = 1:

       Center              X                  Y                   Z               Mass
    ------------   -----------------  -----------------  -----------------  -----------------
         O           -0.437748437694     1.296311208400     0.299782817588    15.994914619570
         N            0.837943562306    -0.573723791600    -0.278338182412    14.003074004430
         C            3.259434562306    -0.443749791600    -0.159698182412    12.000000000000
         C            0.781963562306     0.680705208400     0.150645817588    12.000000000000
         C           -1.581429437694     0.510113208400     0.140231817588    12.000000000000
         C            3.153436562306     0.882872208400     0.290339817588    12.000000000000
         C            1.904897562306     1.463249208400     0.452902817588    12.000000000000
         C            2.065843562306    -1.113793791600    -0.423742182412    12.000000000000
         C            4.594955562306    -1.109485791600    -0.347056182412    12.000000000000
         C           -1.880252437694    -0.508236791600     1.044935817588    12.000000000000
         C           -2.457658437694     0.852663208400    -0.885378182412    12.000000000000
         C           -3.083143437694    -1.199711791600     0.905976817588    12.000000000000
         C           -3.662310437694     0.157150208400    -1.009765182412    12.000000000000
         C           -4.059568737694    -0.882681091600    -0.167077882412    12.000000000000
         H            4.051422562306     1.456787208400     0.514212817588     1.007825032230
         H            1.776937562306     2.483682208400     0.800249817588     1.007825032230
         H            2.080683562306    -2.144792791600    -0.777148182412     1.007825032230
         H            5.155138562306    -1.144123791600     0.592661817588     1.007825032230
         H            4.471264562306    -2.135728791600    -0.703409182412     1.007825032230
         H            5.206308562306    -0.570432791600    -1.077576182412     1.007825032230
         H           -1.178887437694    -0.749257791600     1.838267817588     1.007825032230
         H           -2.189425437694     1.656983208400    -1.564588182412     1.007825032230
         H           -3.325582437694    -1.997550791600     1.603812817588     1.007825032230
         H           -4.353831437694     0.419257208400    -1.806794182412     1.007825032230
         H           -4.913147437694    -1.412069791600    -0.218629182412     1.007825032230

  Basis Set: AUG-CC-PVTZ
    Blend: AUG-CC-PVTZ
  Basis Set: (AUG-CC-PVTZ AUX)
    Blend: AUG-CC-PVTZ-JKFIT
	 Reference Energy          =    -590.3184615699507276 [Eh]
	 Singles Energy            =      -0.0000000000000000 [Eh]
	 Same-Spin Energy          =      -0.6439036216584964 [Eh]
	 Opposite-Spin Energy      =      -1.9824686673118808 [Eh]
	 Correlation Energy        =      -2.6263722889703773 [Eh]
	 Total Energy              =    -592.9448338589211289 [Eh]

	 ================> DF-SCS-MP2 Energies <==================
	-----------------------------------------------------------
	 SCS Same-Spin Scale       =       0.3333333333333333 [-]
	 SCS Opposite-Spin Scale   =       1.2000000000000000 [-]
	 SCS Same-Spin Energy      =      -0.2146345405528321 [Eh]
	 SCS Opposite-Spin Energy  =      -2.3789624007742569 [Eh]
	 SCS Correlation Energy    =      -2.5935969413270890 [Eh]
	 SCS Total Energy          =    -592.9120585112777917 [Eh]
	-----------------------------------------------------------

  Dipole Moment: [D]
     X:     2.0475      Y:    -0.1936      Z:     0.1668     Total:     2.0634

*** Psi4 exiting successfully. Buy a developer a beer!
