                               Psi4 1.4a3.dev225

  ==> Input File <==

--------------------------------------------------------------------------
#psi4
#
memory 32 gb

molecule  {
0 1
  O       -0.4771680     1.3164760     0.3008390
  N        0.7985240    -0.5535590    -0.2772820
  C        3.2200150    -0.4235850    -0.1586420
  C        0.7425440     0.7008700     0.1517020
  C       -1.6208490     0.5302780     0.1412880
  C        3.1140170     0.9030370     0.2913960
  C        1.8654780     1.4834140     0.4539590
  C        2.0264240    -1.0936290    -0.4226860
  C        4.5555360    -1.0893210    -0.3460000
  C       -1.9196720    -0.4880720     1.0459920
  C       -2.4970780     0.8728280    -0.8843220
  C       -3.1225630    -1.1795470     0.9070330
  C       -3.7017300     0.1773150    -1.0087090
  C       -4.0153870    -0.8504980    -0.1174150
  H        4.0120030     1.4769520     0.5152690
  H        1.7375180     2.5038470     0.8013060
  H        2.0412640    -2.1246280    -0.7760920
  H        5.1157190    -1.1239590     0.5937180
  H        4.4318450    -2.1155640    -0.7023530
  H        5.1668890    -0.5502680    -1.0765200
  H       -1.2183070    -0.7290930     1.8393240
  H       -2.2288450     1.6771480    -1.5635320
  H       -3.3650020    -1.9773860     1.6048690
  H       -4.4568526     0.4635289    -1.8790435
  H       -4.9525670    -1.3919050    -0.2175730
units angstrom
no_reorient  #important for SAPT in psi4, default
symmetry c1  #important for SAPT in psi4, default
}

set PROPERTIES_ORIGIN ["COM"]
properties('MP2/aug-cc-pvtz', properties = ['dipole'])
--------------------------------------------------------------------------

    Molecular point group: c1
  Charge       = 0
  Multiplicity = 1
  Basis Set: AUG-CC-PVTZ
    Blend: AUG-CC-PVTZ
  Basis Set: (AUG-CC-PVTZ AUX)
    Blend: AUG-CC-PVTZ-JKFIT

    Orbital Energies [Eh]
    ---------------------

    Doubly Occupied:

       1A    -20.599036     2A    -15.563634     3A    -11.340976
       4A    -11.296417     5A    -11.277485     6A    -11.261612
       7A    -11.247939     8A    -11.243404     9A    -11.241370
      10A    -11.237456    11A    -11.232890    12A    -11.232531
      13A    -11.232442    14A    -11.231525    15A     -1.431152
      16A     -1.253704    17A     -1.146078    18A     -1.102808
      19A     -1.053182    20A     -1.013917    21A     -1.003524
      22A     -0.943138    23A     -0.877954    24A     -0.840853
      25A     -0.829019    26A     -0.799518    27A     -0.733210
      28A     -0.704711    29A     -0.679584    30A     -0.655973
      31A     -0.643178    32A     -0.622041    33A     -0.610370
      34A     -0.594466    35A     -0.590558    36A     -0.580881
      37A     -0.570038    38A     -0.563462    39A     -0.549777
      40A     -0.521267    41A     -0.512650    42A     -0.509745
      43A     -0.492337    44A     -0.475542    45A     -0.428436
      46A     -0.384649    47A     -0.336032    48A     -0.332836
      49A     -0.313984

  @DF-RHF Final Energy:  -590.32420382305747

   => Energetics <=

    Nuclear Repulsion Energy =            801.2162259988643882
    One-Electron Energy =               -2391.2022811579549852
    Two-Electron Energy =                 999.6618513360330098
    Total Energy =                       -590.3242038230574735
  Basis Set: (AUG-CC-PVTZ AUX)
    Blend: AUG-CC-PVTZ-RI
    Molecular point group: c1

    Geometry (in Angstrom), charge = 0, multiplicity = 1:

       Center              X                  Y                   Z               Mass
    ------------   -----------------  -----------------  -----------------  -----------------
         O           -0.442822436477     1.295400729487     0.297030547775    15.994914619570
         N            0.832869563523    -0.574634270513    -0.281090452225    14.003074004430
         C            3.254360563523    -0.444660270513    -0.162450452225    12.000000000000
         C            0.776889563523     0.679794729487     0.147893547775    12.000000000000
         C           -1.586503436477     0.509202729487     0.137479547775    12.000000000000
         C            3.148362563523     0.881961729487     0.287587547775    12.000000000000
         C            1.899823563523     1.462338729487     0.450150547775    12.000000000000
         C            2.060769563523    -1.114704270513    -0.426494452225    12.000000000000
         C            4.589881563523    -1.110396270513    -0.349808452225    12.000000000000
         C           -1.885326436477    -0.509147270513     1.042183547775    12.000000000000
         C           -2.462732436477     0.851752729487    -0.888130452225    12.000000000000
         C           -3.088217436477    -1.200622270513     0.903224547775    12.000000000000
         C           -3.667384436477     0.156239729487    -1.012517452225    12.000000000000
         C           -3.981041436477    -0.871573270513    -0.121223452225    12.000000000000
         H            4.046348563523     1.455876729487     0.511460547775     1.007825032230
         H            1.771863563523     2.482771729487     0.797497547775     1.007825032230
         H            2.075609563523    -2.145703270513    -0.779900452225     1.007825032230
         H            5.150064563523    -1.145034270513     0.589909547775     1.007825032230
         H            4.466190563523    -2.136639270513    -0.706161452225     1.007825032230
         H            5.201234563523    -0.571343270513    -1.080328452225     1.007825032230
         H           -1.183961436477    -0.750168270513     1.835515547775     1.007825032230
         H           -2.194499436477     1.656072729487    -1.567340452225     1.007825032230
         H           -3.330656436477    -1.998461270513     1.601060547775     1.007825032230
         H           -4.422507036477     0.442453629487    -1.882851952225     1.007825032230
         H           -4.918221436477    -1.412980270513    -0.221381452225     1.007825032230

  Basis Set: AUG-CC-PVTZ
    Blend: AUG-CC-PVTZ
  Basis Set: (AUG-CC-PVTZ AUX)
    Blend: AUG-CC-PVTZ-JKFIT
	 Reference Energy          =    -590.3242038230574735 [Eh]
	 Singles Energy            =      -0.0000000000000000 [Eh]
	 Same-Spin Energy          =      -0.6442050794912791 [Eh]
	 Opposite-Spin Energy      =      -1.9824122439931307 [Eh]
	 Correlation Energy        =      -2.6266173234844099 [Eh]
	 Total Energy              =    -592.9508211465418981 [Eh]

	 ================> DF-SCS-MP2 Energies <==================
	-----------------------------------------------------------
	 SCS Same-Spin Scale       =       0.3333333333333333 [-]
	 SCS Opposite-Spin Scale   =       1.2000000000000000 [-]
	 SCS Same-Spin Energy      =      -0.2147350264970930 [Eh]
	 SCS Opposite-Spin Energy  =      -2.3788946927917567 [Eh]
	 SCS Correlation Energy    =      -2.5936297192888498 [Eh]
	 SCS Total Energy          =    -592.9178335423463295 [Eh]
	-----------------------------------------------------------

  Dipole Moment: [D]
     X:     2.0580      Y:    -0.1958      Z:     0.1897     Total:     2.0760

*** Psi4 exiting successfully. Buy a developer a beer!
