                               Psi4 1.4a3.dev225

  ==> Input File <==

--------------------------------------------------------------------------
#psi4
#
memory 32 gb

molecule  {
0 1
  O       -0.4771680     1.3164760     0.3008390
  N        0.7985240    -0.5535590    -0.2772820
  C        3.2200150    -0.4235850    -0.1586420
  C        0.7425440     0.7008700     0.1517020
  C       -1.6208490     0.5302780     0.1412880
  C        3.1140170     0.9030370     0.2913960
  C        1.8654780     1.4834140     0.4539590
  C        2.0264240    -1.0936290    -0.4226860
  C        4.3779365    -1.0007905    -0.3210849
  C       -1.9196720    -0.4880720     1.0459920
  C       -2.4970780     0.8728280    -0.8843220
  C       -3.1225630    -1.1795470     0.9070330
  C       -3.7017300     0.1773150    -1.0087090
  C       -4.0153870    -0.8504980    -0.1174150
  H        4.0120030     1.4769520     0.5152690
  H        1.7375180     2.5038470     0.8013060
  H        2.0412640    -2.1246280    -0.7760920
  H        5.1157190    -1.1239590     0.5937180
  H        4.4318450    -2.1155640    -0.7023530
  H        5.1668890    -0.5502680    -1.0765200
  H       -1.2183070    -0.7290930     1.8393240
  H       -2.2288450     1.6771480    -1.5635320
  H       -3.3650020    -1.9773860     1.6048690
  H       -4.3932510     0.4394220    -1.8057380
  H       -4.9525670    -1.3919050    -0.2175730
units angstrom
no_reorient  #important for SAPT in psi4, default
symmetry c1  #important for SAPT in psi4, default
}

set PROPERTIES_ORIGIN ["COM"]
properties('MP2/aug-cc-pvtz', properties = ['dipole'])
--------------------------------------------------------------------------

    Molecular point group: c1
  Charge       = 0
  Multiplicity = 1
  Basis Set: AUG-CC-PVTZ
    Blend: AUG-CC-PVTZ
  Basis Set: (AUG-CC-PVTZ AUX)
    Blend: AUG-CC-PVTZ-JKFIT

    Orbital Energies [Eh]
    ---------------------

    Doubly Occupied:

       1A    -20.600162     2A    -15.564695     3A    -11.342838
       4A    -11.296502     5A    -11.278948     6A    -11.262960
       7A    -11.243008     8A    -11.242613     9A    -11.237404
      10A    -11.237304    11A    -11.232865    12A    -11.232112
      13A    -11.231446    14A    -11.231120    15A     -1.432207
      16A     -1.256600    17A     -1.146894    18A     -1.128704
      19A     -1.063748    20A     -1.016065    21A     -1.007494
      22A     -0.939997    23A     -0.882075    24A     -0.838422
      25A     -0.829314    26A     -0.801377    27A     -0.738317
      28A     -0.709459    29A     -0.682577    30A     -0.670672
      31A     -0.656365    32A     -0.628284    33A     -0.614029
      34A     -0.598099    35A     -0.592348    36A     -0.584463
      37A     -0.577014    38A     -0.560785    39A     -0.548457
      40A     -0.514535    41A     -0.507299    42A     -0.497573
      43A     -0.492201    44A     -0.472838    45A     -0.427944
      46A     -0.383761    47A     -0.336005    48A     -0.330296
      49A     -0.310119

  @DF-RHF Final Energy:  -590.27886648498907

   => Energetics <=

    Nuclear Repulsion Energy =            805.6724446191931293
    One-Electron Energy =               -2399.8819878488407085
    Two-Electron Energy =                1003.9306767446585127
    Total Energy =                       -590.2788664849890665
  Basis Set: (AUG-CC-PVTZ AUX)
    Blend: AUG-CC-PVTZ-RI
    Molecular point group: c1

    Geometry (in Angstrom), charge = 0, multiplicity = 1:

       Center              X                  Y                   Z               Mass
    ------------   -----------------  -----------------  -----------------  -----------------
         O           -0.431654026453     1.289792086364     0.295016002007    15.994914619570
         N            0.844037973547    -0.580242913636    -0.283104997993    14.003074004430
         C            3.265528973547    -0.450268913636    -0.164464997993    12.000000000000
         C            0.788057973547     0.674186086364     0.145879002007    12.000000000000
         C           -1.575335026453     0.503594086364     0.135465002007    12.000000000000
         C            3.159530973547     0.876353086364     0.285573002007    12.000000000000
         C            1.910991973547     1.456730086364     0.448136002007    12.000000000000
         C            2.071937973547    -1.120312913636    -0.428508997993    12.000000000000
         C            4.423450473547    -1.027474413636    -0.326907897993    12.000000000000
         C           -1.874158026453    -0.514755913636     1.040169002007    12.000000000000
         C           -2.451564026453     0.846144086364    -0.890144997993    12.000000000000
         C           -3.077049026453    -1.206230913636     0.901210002007    12.000000000000
         C           -3.656216026453     0.150631086364    -1.014531997993    12.000000000000
         C           -3.969873026453    -0.877181913636    -0.123237997993    12.000000000000
         H            4.057516973547     1.450268086364     0.509446002007     1.007825032230
         H            1.783031973547     2.477163086364     0.795483002007     1.007825032230
         H            2.086777973547    -2.151311913636    -0.781914997993     1.007825032230
         H            5.161232973547    -1.150642913636     0.587895002007     1.007825032230
         H            4.477358973547    -2.142247913636    -0.708175997993     1.007825032230
         H            5.212402973547    -0.576951913636    -1.082342997993     1.007825032230
         H           -1.172793026453    -0.755776913636     1.833501002007     1.007825032230
         H           -2.183331026453     1.650464086364    -1.569354997993     1.007825032230
         H           -3.319488026453    -2.004069913636     1.599046002007     1.007825032230
         H           -4.347737026453     0.412738086364    -1.811560997993     1.007825032230
         H           -4.907053026453    -1.418588913636    -0.223395997993     1.007825032230

  Basis Set: AUG-CC-PVTZ
    Blend: AUG-CC-PVTZ
  Basis Set: (AUG-CC-PVTZ AUX)
    Blend: AUG-CC-PVTZ-JKFIT
	 Reference Energy          =    -590.2788664849890665 [Eh]
	 Singles Energy            =      -0.0000000000000000 [Eh]
	 Same-Spin Energy          =      -0.6474938479759348 [Eh]
	 Opposite-Spin Energy      =      -1.9861320460316576 [Eh]
	 Correlation Energy        =      -2.6336258940075923 [Eh]
	 Total Energy              =    -592.9124923789966033 [Eh]

	 ================> DF-SCS-MP2 Energies <==================
	-----------------------------------------------------------
	 SCS Same-Spin Scale       =       0.3333333333333333 [-]
	 SCS Opposite-Spin Scale   =       1.2000000000000000 [-]
	 SCS Same-Spin Energy      =      -0.2158312826586449 [Eh]
	 SCS Opposite-Spin Energy  =      -2.3833584552379889 [Eh]
	 SCS Correlation Energy    =      -2.5991897378966340 [Eh]
	 SCS Total Energy          =    -592.8780562228856752 [Eh]
	-----------------------------------------------------------

  Dipole Moment: [D]
     X:     1.9258      Y:    -0.1383      Z:     0.1699     Total:     1.9382

*** Psi4 exiting successfully. Buy a developer a beer!
