                               Psi4 1.4a3.dev225

  ==> Input File <==

--------------------------------------------------------------------------
#psi4
#
memory 32 gb

molecule  {
0 1
  O       -0.4771680     1.3164760     0.3008390
  N        0.7985240    -0.5535590    -0.2772820
  C        3.2200150    -0.4235850    -0.1586420
  C        0.7425440     0.7008700     0.1517020
  C       -1.6208490     0.5302780     0.1412880
  C        3.1140170     0.9030370     0.2913960
  C        1.8654780     1.4834140     0.4539590
  C        2.0264240    -1.0936290    -0.4226860
  C        4.5555360    -1.0893210    -0.3460000
  C       -1.9196720    -0.4880720     1.0459920
  C       -2.4970780     0.8728280    -0.8843220
  C       -3.1225630    -1.1795470     0.9070330
  C       -3.7017300     0.1773150    -1.0087090
  C       -4.0153870    -0.8504980    -0.1174150
  H        4.0120030     1.4769520     0.5152690
  H        1.7351604     2.5226482     0.8077058
  H        2.0412640    -2.1246280    -0.7760920
  H        5.1157190    -1.1239590     0.5937180
  H        4.4318450    -2.1155640    -0.7023530
  H        5.1668890    -0.5502680    -1.0765200
  H       -1.2183070    -0.7290930     1.8393240
  H       -2.2288450     1.6771480    -1.5635320
  H       -3.3650020    -1.9773860     1.6048690
  H       -4.3932510     0.4394220    -1.8057380
  H       -4.9525670    -1.3919050    -0.2175730
units angstrom
no_reorient  #important for SAPT in psi4, default
symmetry c1  #important for SAPT in psi4, default
}

set PROPERTIES_ORIGIN ["COM"]
properties('MP2/aug-cc-pvtz', properties = ['dipole'])
--------------------------------------------------------------------------

    Molecular point group: c1
  Charge       = 0
  Multiplicity = 1
  Basis Set: AUG-CC-PVTZ
    Blend: AUG-CC-PVTZ
  Basis Set: (AUG-CC-PVTZ AUX)
    Blend: AUG-CC-PVTZ-JKFIT

    Orbital Energies [Eh]
    ---------------------

    Doubly Occupied:

       1A    -20.598546     2A    -15.563540     3A    -11.340884
       4A    -11.295639     5A    -11.277351     6A    -11.261566
       7A    -11.243376     8A    -11.243311     9A    -11.236731
      10A    -11.236631    11A    -11.232821    12A    -11.232068
      13A    -11.231326    14A    -11.230435    15A     -1.430706
      16A     -1.253569    17A     -1.145853    18A     -1.102560
      19A     -1.052596    20A     -1.015244    21A     -1.003713
      22A     -0.942963    23A     -0.877389    24A     -0.841591
      25A     -0.830362    26A     -0.800853    27A     -0.736819
      28A     -0.704419    29A     -0.679189    30A     -0.655469
      31A     -0.640404    32A     -0.625966    33A     -0.610469
      34A     -0.594827    35A     -0.592128    36A     -0.586160
      37A     -0.569668    38A     -0.563317    39A     -0.549585
      40A     -0.520563    41A     -0.513559    42A     -0.511648
      43A     -0.492685    44A     -0.477584    45A     -0.428144
      46A     -0.384541    47A     -0.335434    48A     -0.332376
      49A     -0.313611

  @DF-RHF Final Energy:  -590.33089282989283

   => Energetics <=

    Nuclear Repulsion Energy =            801.6103652112497002
    One-Electron Energy =               -2392.0021314198279470
    Two-Electron Energy =                1000.0608733786854145
    Total Energy =                       -590.3308928298928322
  Basis Set: (AUG-CC-PVTZ AUX)
    Blend: AUG-CC-PVTZ-RI
    Molecular point group: c1

    Geometry (in Angstrom), charge = 0, multiplicity = 1:

       Center              X                  Y                   Z               Mass
    ------------   -----------------  -----------------  -----------------  -----------------
         O           -0.443155924056     1.295429620237     0.296596534199    15.994914619570
         N            0.832536075944    -0.574605379763    -0.281524465801    14.003074004430
         C            3.254027075944    -0.444631379763    -0.162884465801    12.000000000000
         C            0.776556075944     0.679823620237     0.147459534199    12.000000000000
         C           -1.586836924056     0.509231620237     0.137045534199    12.000000000000
         C            3.148029075944     0.881990620237     0.287153534199    12.000000000000
         C            1.899490075944     1.462367620237     0.449716534199    12.000000000000
         C            2.060436075944    -1.114675379763    -0.426928465801    12.000000000000
         C            4.589548075944    -1.110367379763    -0.350242465801    12.000000000000
         C           -1.885659924056    -0.509118379763     1.041749534199    12.000000000000
         C           -2.463065924056     0.851781620237    -0.888564465801    12.000000000000
         C           -3.088550924056    -1.200593379763     0.902790534199    12.000000000000
         C           -3.667717924056     0.156268620237    -1.012951465801    12.000000000000
         C           -3.981374924056    -0.871544379763    -0.121657465801    12.000000000000
         H            4.046015075944     1.455905620237     0.511026534199     1.007825032230
         H            1.769172475944     2.501601820237     0.803463334199     1.007825032230
         H            2.075276075944    -2.145674379763    -0.780334465801     1.007825032230
         H            5.149731075944    -1.145005379763     0.589475534199     1.007825032230
         H            4.465857075944    -2.136610379763    -0.706595465801     1.007825032230
         H            5.200901075944    -0.571314379763    -1.080762465801     1.007825032230
         H           -1.184294924056    -0.750139379763     1.835081534199     1.007825032230
         H           -2.194832924056     1.656101620237    -1.567774465801     1.007825032230
         H           -3.330989924056    -1.998432379763     1.600626534199     1.007825032230
         H           -4.359238924056     0.418375620237    -1.809980465801     1.007825032230
         H           -4.918554924056    -1.412951379763    -0.221815465801     1.007825032230

  Basis Set: AUG-CC-PVTZ
    Blend: AUG-CC-PVTZ
  Basis Set: (AUG-CC-PVTZ AUX)
    Blend: AUG-CC-PVTZ-JKFIT
	 Reference Energy          =    -590.3308928298928322 [Eh]
	 Singles Energy            =      -0.0000000000000000 [Eh]
	 Same-Spin Energy          =      -0.6440515100748155 [Eh]
	 Opposite-Spin Energy      =      -1.9816526148728213 [Eh]
	 Correlation Energy        =      -2.6257041249476369 [Eh]
	 Total Energy              =    -592.9565969548405064 [Eh]

	 ================> DF-SCS-MP2 Energies <==================
	-----------------------------------------------------------
	 SCS Same-Spin Scale       =       0.3333333333333333 [-]
	 SCS Opposite-Spin Scale   =       1.2000000000000000 [-]
	 SCS Same-Spin Energy      =      -0.2146838366916052 [Eh]
	 SCS Opposite-Spin Energy  =      -2.3779831378473855 [Eh]
	 SCS Correlation Energy    =      -2.5926669745389908 [Eh]
	 SCS Total Energy          =    -592.9235598044318749 [Eh]
	-----------------------------------------------------------

  Dipole Moment: [D]
     X:     2.0174      Y:    -0.1858      Z:     0.1556     Total:     2.0319

*** Psi4 exiting successfully. Buy a developer a beer!
