                               Psi4 1.4a3.dev225

  ==> Input File <==

--------------------------------------------------------------------------
#psi4
#
memory 32 gb

molecule  {
0 1
  O       -0.4771680     1.3164760     0.3008390
  N        0.7985240    -0.5535590    -0.2772820
  C        3.2200150    -0.4235850    -0.1586420
  C        0.7425440     0.7008700     0.1517020
  C       -1.6208490     0.5302780     0.1412880
  C        3.1102445     0.9502517     0.3074129
  C        1.8654780     1.4834140     0.4539590
  C        2.0264240    -1.0936290    -0.4226860
  C        4.5555360    -1.0893210    -0.3460000
  C       -1.9196720    -0.4880720     1.0459920
  C       -2.4970780     0.8728280    -0.8843220
  C       -3.1225630    -1.1795470     0.9070330
  C       -3.7017300     0.1773150    -1.0087090
  C       -4.0153870    -0.8504980    -0.1174150
  H        4.0120030     1.4769520     0.5152690
  H        1.7375180     2.5038470     0.8013060
  H        2.0412640    -2.1246280    -0.7760920
  H        5.1157190    -1.1239590     0.5937180
  H        4.4318450    -2.1155640    -0.7023530
  H        5.1668890    -0.5502680    -1.0765200
  H       -1.2183070    -0.7290930     1.8393240
  H       -2.2288450     1.6771480    -1.5635320
  H       -3.3650020    -1.9773860     1.6048690
  H       -4.3932510     0.4394220    -1.8057380
  H       -4.9525670    -1.3919050    -0.2175730
units angstrom
no_reorient  #important for SAPT in psi4, default
symmetry c1  #important for SAPT in psi4, default
}

set PROPERTIES_ORIGIN ["COM"]
properties('MP2/aug-cc-pvtz', properties = ['dipole'])
--------------------------------------------------------------------------

    Molecular point group: c1
  Charge       = 0
  Multiplicity = 1
  Basis Set: AUG-CC-PVTZ
    Blend: AUG-CC-PVTZ
  Basis Set: (AUG-CC-PVTZ AUX)
    Blend: AUG-CC-PVTZ-JKFIT

    Orbital Energies [Eh]
    ---------------------

    Doubly Occupied:

       1A    -20.599824     2A    -15.562361     3A    -11.342424
       4A    -11.296078     5A    -11.274177     6A    -11.262175
       7A    -11.246837     8A    -11.240652     9A    -11.236912
      10A    -11.236809    11A    -11.232398    12A    -11.232353
      13A    -11.231658    14A    -11.230663    15A     -1.431673
      16A     -1.251913    17A     -1.146106    18A     -1.099014
      19A     -1.054407    20A     -1.015474    21A     -1.005032
      22A     -0.941704    23A     -0.877559    24A     -0.840151
      25A     -0.829787    26A     -0.802511    27A     -0.738613
      28A     -0.703546    29A     -0.679446    30A     -0.655939
      31A     -0.642629    32A     -0.627311    33A     -0.612944
      34A     -0.595561    35A     -0.591832    36A     -0.585615
      37A     -0.570669    38A     -0.569212    39A     -0.549151
      40A     -0.514424    41A     -0.512885    42A     -0.511254
      43A     -0.493035    44A     -0.477075    45A     -0.427453
      46A     -0.386059    47A     -0.335656    48A     -0.331504
      49A     -0.312482

  @DF-RHF Final Energy:  -590.32873259935525

   => Energetics <=

    Nuclear Repulsion Energy =            801.1975434183640346
    One-Electron Energy =               -2391.1626614538149624
    Two-Electron Energy =                 999.6363854360955656
    Total Energy =                       -590.3287325993552486
  Basis Set: (AUG-CC-PVTZ AUX)
    Blend: AUG-CC-PVTZ-RI
    Molecular point group: c1

    Geometry (in Angstrom), charge = 0, multiplicity = 1:

       Center              X                  Y                   Z               Mass
    ------------   -----------------  -----------------  -----------------  -----------------
         O           -0.442924170166     1.292470812934     0.295592920396    15.994914619570
         N            0.832767829834    -0.577564187066    -0.282528079604    14.003074004430
         C            3.254258829834    -0.447590187066    -0.163888079604    12.000000000000
         C            0.776787829834     0.676864812934     0.146455920396    12.000000000000
         C           -1.586605170166     0.506272812934     0.136041920396    12.000000000000
         C            3.144488329834     0.926246512934     0.302166820396    12.000000000000
         C            1.899721829834     1.459408812934     0.448712920396    12.000000000000
         C            2.060667829834    -1.117634187066    -0.427932079604    12.000000000000
         C            4.589779829834    -1.113326187066    -0.351246079604    12.000000000000
         C           -1.885428170166    -0.512077187066     1.040745920396    12.000000000000
         C           -2.462834170166     0.848822812934    -0.889568079604    12.000000000000
         C           -3.088319170166    -1.203552187066     0.901786920396    12.000000000000
         C           -3.667486170166     0.153309812934    -1.013955079604    12.000000000000
         C           -3.981143170166    -0.874503187066    -0.122661079604    12.000000000000
         H            4.046246829834     1.452946812934     0.510022920396     1.007825032230
         H            1.771761829834     2.479841812934     0.796059920396     1.007825032230
         H            2.075507829834    -2.148633187066    -0.781338079604     1.007825032230
         H            5.149962829834    -1.147964187066     0.588471920396     1.007825032230
         H            4.466088829834    -2.139569187066    -0.707599079604     1.007825032230
         H            5.201132829834    -0.574273187066    -1.081766079604     1.007825032230
         H           -1.184063170166    -0.753098187066     1.834077920396     1.007825032230
         H           -2.194601170166     1.653142812934    -1.568778079604     1.007825032230
         H           -3.330758170166    -2.001391187066     1.599622920396     1.007825032230
         H           -4.359007170166     0.415416812934    -1.810984079604     1.007825032230
         H           -4.918323170166    -1.415910187066    -0.222819079604     1.007825032230

  Basis Set: AUG-CC-PVTZ
    Blend: AUG-CC-PVTZ
  Basis Set: (AUG-CC-PVTZ AUX)
    Blend: AUG-CC-PVTZ-JKFIT
	 Reference Energy          =    -590.3287325993552486 [Eh]
	 Singles Energy            =      -0.0000000000000000 [Eh]
	 Same-Spin Energy          =      -0.6436956406692902 [Eh]
	 Opposite-Spin Energy      =      -1.9816030172285823 [Eh]
	 Correlation Energy        =      -2.6252986578978725 [Eh]
	 Total Energy              =    -592.9540312572531775 [Eh]

	 ================> DF-SCS-MP2 Energies <==================
	-----------------------------------------------------------
	 SCS Same-Spin Scale       =       0.3333333333333333 [-]
	 SCS Opposite-Spin Scale   =       1.2000000000000000 [-]
	 SCS Same-Spin Energy      =      -0.2145652135564300 [Eh]
	 SCS Opposite-Spin Energy  =      -2.3779236206742986 [Eh]
	 SCS Correlation Energy    =      -2.5924888342307288 [Eh]
	 SCS Total Energy          =    -592.9212214335859699 [Eh]
	-----------------------------------------------------------

  Dipole Moment: [D]
     X:     2.0138      Y:    -0.1491      Z:     0.1698     Total:     2.0265

*** Psi4 exiting successfully. Buy a developer a beer!
