                               Psi4 1.4a3.dev225

  ==> Input File <==

--------------------------------------------------------------------------
#psi4
#
memory 32 gb

molecule  {
0 1
  O       -0.4771680     1.3164760     0.3008390
  N        0.7985240    -0.5535590    -0.2772820
  C        3.2200150    -0.4235850    -0.1586420
  C        0.7425440     0.7008700     0.1517020
  C       -1.6208490     0.5302780     0.1412880
  C        3.1140170     0.9030370     0.2913960
  C        1.8654780     1.4834140     0.4539590
  C        2.0264240    -1.0936290    -0.4226860
  C        4.5555360    -1.0893210    -0.3460000
  C       -1.9196720    -0.4880720     1.0459920
  C       -2.4970780     0.8728280    -0.8843220
  C       -3.1225630    -1.1795470     0.9070330
  C       -3.7017300     0.1773150    -1.0087090
  C       -4.0153870    -0.8504980    -0.1174150
  H        4.0120030     1.4769520     0.5152690
  H        1.7375180     2.5038470     0.8013060
  H        2.0412640    -2.1246280    -0.7760920
  H        5.1157190    -1.1239590     0.5937180
  H        4.4318450    -2.1155640    -0.7023530
  H        5.1668890    -0.5502680    -1.0765200
  H       -1.2183070    -0.7290930     1.8393240
  H       -2.2288450     1.6771480    -1.5635320
  H       -3.3650020    -1.9773860     1.6048690
  H       -4.5204541     0.4876358    -1.9523490
  H       -4.9525670    -1.3919050    -0.2175730
units angstrom
no_reorient  #important for SAPT in psi4, default
symmetry c1  #important for SAPT in psi4, default
}

set PROPERTIES_ORIGIN ["COM"]
properties('MP2/aug-cc-pvtz', properties = ['dipole'])
--------------------------------------------------------------------------

    Molecular point group: c1
  Charge       = 0
  Multiplicity = 1
  Basis Set: AUG-CC-PVTZ
    Blend: AUG-CC-PVTZ
  Basis Set: (AUG-CC-PVTZ AUX)
    Blend: AUG-CC-PVTZ-JKFIT

    Orbital Energies [Eh]
    ---------------------

    Doubly Occupied:

       1A    -20.599613     2A    -15.563944     3A    -11.341305
       4A    -11.297353     5A    -11.277730     6A    -11.261853
       7A    -11.258325     8A    -11.243654     9A    -11.241645
      10A    -11.238408    11A    -11.233792    12A    -11.233193
      13A    -11.233064    14A    -11.232846    15A     -1.431686
      16A     -1.254013    17A     -1.146691    18A     -1.103056
      19A     -1.053474    20A     -1.013616    21A     -1.003482
      22A     -0.943439    23A     -0.878315    24A     -0.840512
      25A     -0.828174    26A     -0.798663    27A     -0.730752
      28A     -0.704810    29A     -0.680135    30A     -0.656684
      31A     -0.643322    32A     -0.620082    33A     -0.609991
      34A     -0.594843    35A     -0.590341    36A     -0.573685
      37A     -0.570252    38A     -0.563458    39A     -0.550038
      40A     -0.521489    41A     -0.513538    42A     -0.506349
      43A     -0.491688    44A     -0.471401    45A     -0.428731
      46A     -0.384904    47A     -0.336867    48A     -0.333449
      49A     -0.314505

  @DF-RHF Final Energy:  -590.30941689433189

   => Energetics <=

    Nuclear Repulsion Energy =            800.7642300578755794
    One-Electron Energy =               -2390.2609819990566393
    Two-Electron Energy =                 999.1873350468492845
    Total Energy =                       -590.3094168943318891
  Basis Set: (AUG-CC-PVTZ AUX)
    Blend: AUG-CC-PVTZ-RI
    Molecular point group: c1

    Geometry (in Angstrom), charge = 0, multiplicity = 1:

       Center              X                  Y                   Z               Mass
    ------------   -----------------  -----------------  -----------------  -----------------
         O           -0.442476111773     1.295269461907     0.297429712978    15.994914619570
         N            0.833215888227    -0.574765538093    -0.280691287022    14.003074004430
         C            3.254706888227    -0.444791538093    -0.162051287022    12.000000000000
         C            0.777235888227     0.679663461907     0.148292712978    12.000000000000
         C           -1.586157111773     0.509071461907     0.137878712978    12.000000000000
         C            3.148708888227     0.881830461907     0.287986712978    12.000000000000
         C            1.900169888227     1.462207461907     0.450549712978    12.000000000000
         C            2.061115888227    -1.114835538093    -0.426095287022    12.000000000000
         C            4.590227888227    -1.110527538093    -0.349409287022    12.000000000000
         C           -1.884980111773    -0.509278538093     1.042582712978    12.000000000000
         C           -2.462386111773     0.851621461907    -0.887731287022    12.000000000000
         C           -3.087871111773    -1.200753538093     0.903623712978    12.000000000000
         C           -3.667038111773     0.156108461907    -1.012118287022    12.000000000000
         C           -3.980695111773    -0.871704538093    -0.120824287022    12.000000000000
         H            4.046694888227     1.455745461907     0.511859712978     1.007825032230
         H            1.772209888227     2.482640461907     0.797896712978     1.007825032230
         H            2.075955888227    -2.145834538093    -0.779501287022     1.007825032230
         H            5.150410888227    -1.145165538093     0.590308712978     1.007825032230
         H            4.466536888227    -2.136770538093    -0.705762287022     1.007825032230
         H            5.201580888227    -0.571474538093    -1.079929287022     1.007825032230
         H           -1.183615111773    -0.750299538093     1.835914712978     1.007825032230
         H           -2.194153111773     1.655941461907    -1.566941287022     1.007825032230
         H           -3.330310111773    -1.998592538093     1.601459712978     1.007825032230
         H           -4.485762211773     0.466429261907    -1.955758287022     1.007825032230
         H           -4.917875111773    -1.413111538093    -0.220982287022     1.007825032230

  Basis Set: AUG-CC-PVTZ
    Blend: AUG-CC-PVTZ
  Basis Set: (AUG-CC-PVTZ AUX)
    Blend: AUG-CC-PVTZ-JKFIT
	 Reference Energy          =    -590.3094168943318891 [Eh]
	 Singles Energy            =      -0.0000000000000000 [Eh]
	 Same-Spin Energy          =      -0.6444558510630783 [Eh]
	 Opposite-Spin Energy      =      -1.9836620776657583 [Eh]
	 Correlation Energy        =      -2.6281179287288365 [Eh]
	 Total Energy              =    -592.9375348230606733 [Eh]

	 ================> DF-SCS-MP2 Energies <==================
	-----------------------------------------------------------
	 SCS Same-Spin Scale       =       0.3333333333333333 [-]
	 SCS Opposite-Spin Scale   =       1.2000000000000000 [-]
	 SCS Same-Spin Energy      =      -0.2148186170210261 [Eh]
	 SCS Opposite-Spin Energy  =      -2.3803944931989101 [Eh]
	 SCS Correlation Energy    =      -2.5952131102199361 [Eh]
	 SCS Total Energy          =    -592.9046300045517910 [Eh]
	-----------------------------------------------------------

  Dipole Moment: [D]
     X:     2.1128      Y:    -0.2120      Z:     0.2354     Total:     2.1364

*** Psi4 exiting successfully. Buy a developer a beer!
