                               Psi4 1.4a3.dev225

  ==> Input File <==

--------------------------------------------------------------------------
#psi4
#
memory 32 gb

molecule  {
0 1
  O       -0.4771680     1.3164760     0.3008390
  N        0.7985240    -0.5535590    -0.2772820
  C        3.2200150    -0.4235850    -0.1586420
  C        0.7425440     0.7008700     0.1517020
  C       -1.6208490     0.5302780     0.1412880
  C        3.1140170     0.9030370     0.2913960
  C        1.8654780     1.4834140     0.4539590
  C        1.9577937    -0.9711446    -0.3829487
  C        4.5555360    -1.0893210    -0.3460000
  C       -1.9196720    -0.4880720     1.0459920
  C       -2.4970780     0.8728280    -0.8843220
  C       -3.1225630    -1.1795470     0.9070330
  C       -3.7017300     0.1773150    -1.0087090
  C       -4.0153870    -0.8504980    -0.1174150
  H        4.0120030     1.4769520     0.5152690
  H        1.7375180     2.5038470     0.8013060
  H        2.0412640    -2.1246280    -0.7760920
  H        5.1157190    -1.1239590     0.5937180
  H        4.4318450    -2.1155640    -0.7023530
  H        5.1668890    -0.5502680    -1.0765200
  H       -1.2183070    -0.7290930     1.8393240
  H       -2.2288450     1.6771480    -1.5635320
  H       -3.3650020    -1.9773860     1.6048690
  H       -4.3932510     0.4394220    -1.8057380
  H       -4.9525670    -1.3919050    -0.2175730
units angstrom
no_reorient  #important for SAPT in psi4, default
symmetry c1  #important for SAPT in psi4, default
}

set PROPERTIES_ORIGIN ["COM"]
properties('MP2/aug-cc-pvtz', properties = ['dipole'])
--------------------------------------------------------------------------

    Molecular point group: c1
  Charge       = 0
  Multiplicity = 1
  Basis Set: AUG-CC-PVTZ
    Blend: AUG-CC-PVTZ
  Basis Set: (AUG-CC-PVTZ AUX)
    Blend: AUG-CC-PVTZ-JKFIT

    Orbital Energies [Eh]
    ---------------------

    Doubly Occupied:

       1A    -20.600531     2A    -15.562028     3A    -11.344111
       4A    -11.297580     5A    -11.278885     6A    -11.260114
       7A    -11.241109     8A    -11.238622     9A    -11.238498
      10A    -11.237440    11A    -11.235105    12A    -11.234184
      13A    -11.233245    14A    -11.232218    15A     -1.434159
      16A     -1.297170    17A     -1.148215    18A     -1.110737
      19A     -1.051507    20A     -1.017218    21A     -1.004390
      22A     -0.945587    23A     -0.869411    24A     -0.851338
      25A     -0.833631    26A     -0.809805    27A     -0.739363
      28A     -0.704859    29A     -0.681860    30A     -0.658426
      31A     -0.643640    32A     -0.624354    33A     -0.603488
      34A     -0.596542    35A     -0.588433    36A     -0.586708
      37A     -0.573003    38A     -0.567052    39A     -0.547597
      40A     -0.524737    41A     -0.521954    42A     -0.511756
      43A     -0.495124    44A     -0.483459    45A     -0.418299
      46A     -0.396382    47A     -0.337387    48A     -0.332519
      49A     -0.311663

  @DF-RHF Final Energy:  -590.30619952396785

   => Energetics <=

    Nuclear Repulsion Energy =            804.6651922743310479
    One-Electron Energy =               -2397.8318950838670389
    Two-Electron Energy =                1002.8605032855681429
    Total Energy =                       -590.3061995239678481
  Basis Set: (AUG-CC-PVTZ AUX)
    Blend: AUG-CC-PVTZ-RI
    Molecular point group: c1

    Geometry (in Angstrom), charge = 0, multiplicity = 1:

       Center              X                  Y                   Z               Mass
    ------------   -----------------  -----------------  -----------------  -----------------
         O           -0.438719088522     1.287590671551     0.294054998687    15.994914619570
         N            0.836972911478    -0.582444328449    -0.284066001313    14.003074004430
         C            3.258463911478    -0.452470328449    -0.165426001313    12.000000000000
         C            0.780992911478     0.671984671551     0.144917998687    12.000000000000
         C           -1.582400088522     0.501392671551     0.134503998687    12.000000000000
         C            3.152465911478     0.874151671551     0.284611998687    12.000000000000
         C            1.903926911478     1.454528671551     0.447174998687    12.000000000000
         C            1.996242611478    -1.000029928449    -0.389732701313    12.000000000000
         C            4.593984911478    -1.118206328449    -0.352784001313    12.000000000000
         C           -1.881223088522    -0.516957328449     1.039207998687    12.000000000000
         C           -2.458629088522     0.843942671551    -0.891106001313    12.000000000000
         C           -3.084114088522    -1.208432328449     0.900248998687    12.000000000000
         C           -3.663281088522     0.148429671551    -1.015493001313    12.000000000000
         C           -3.976938088522    -0.879383328449    -0.124199001313    12.000000000000
         H            4.050451911478     1.448066671551     0.508484998687     1.007825032230
         H            1.775966911478     2.474961671551     0.794521998687     1.007825032230
         H            2.079712911478    -2.153513328449    -0.782876001313     1.007825032230
         H            5.154167911478    -1.152844328449     0.586933998687     1.007825032230
         H            4.470293911478    -2.144449328449    -0.709137001313     1.007825032230
         H            5.205337911478    -0.579153328449    -1.083304001313     1.007825032230
         H           -1.179858088522    -0.757978328449     1.832539998687     1.007825032230
         H           -2.190396088522     1.648262671551    -1.570316001313     1.007825032230
         H           -3.326553088522    -2.006271328449     1.598084998687     1.007825032230
         H           -4.354802088522     0.410536671551    -1.812522001313     1.007825032230
         H           -4.914118088522    -1.420790328449    -0.224357001313     1.007825032230

  Basis Set: AUG-CC-PVTZ
    Blend: AUG-CC-PVTZ
  Basis Set: (AUG-CC-PVTZ AUX)
    Blend: AUG-CC-PVTZ-JKFIT
	 Reference Energy          =    -590.3061995239678481 [Eh]
	 Singles Energy            =      -0.0000000000000000 [Eh]
	 Same-Spin Energy          =      -0.6440016280042271 [Eh]
	 Opposite-Spin Energy      =      -1.9807278651958315 [Eh]
	 Correlation Energy        =      -2.6247294932000589 [Eh]
	 Total Energy              =    -592.9309290171679550 [Eh]

	 ================> DF-SCS-MP2 Energies <==================
	-----------------------------------------------------------
	 SCS Same-Spin Scale       =       0.3333333333333333 [-]
	 SCS Opposite-Spin Scale   =       1.2000000000000000 [-]
	 SCS Same-Spin Energy      =      -0.2146672093347424 [Eh]
	 SCS Opposite-Spin Energy  =      -2.3768734382349979 [Eh]
	 SCS Correlation Energy    =      -2.5915406475697402 [Eh]
	 SCS Total Energy          =    -592.8977401715376345 [Eh]
	-----------------------------------------------------------

  Dipole Moment: [D]
     X:     1.7941      Y:     0.0371      Z:     0.2254     Total:     1.8086

*** Psi4 exiting successfully. Buy a developer a beer!
