                               Psi4 1.4a3.dev225

  ==> Input File <==

--------------------------------------------------------------------------
#psi4
#
memory 32 gb

molecule  {
0 1
  O       -0.4771680     1.3164760     0.3008390
  N        0.7985240    -0.5535590    -0.2772820
  C        3.2200150    -0.4235850    -0.1586420
  C        0.7425440     0.7008700     0.1517020
  C       -1.6208490     0.5302780     0.1412880
  C        3.1140170     0.9030370     0.2913960
  C        1.8654780     1.4834140     0.4539590
  C        2.0264240    -1.0936290    -0.4226860
  C        4.5555360    -1.0893210    -0.3460000
  C       -1.9196720    -0.4880720     1.0459920
  C       -2.4970780     0.8728280    -0.8843220
  C       -3.1225630    -1.1795470     0.9070330
  C       -3.7017300     0.1773150    -1.0087090
  C       -4.0364466    -0.8539747    -0.1291685
  H        4.0120030     1.4769520     0.5152690
  H        1.7375180     2.5038470     0.8013060
  H        2.0412640    -2.1246280    -0.7760920
  H        5.1157190    -1.1239590     0.5937180
  H        4.4318450    -2.1155640    -0.7023530
  H        5.1668890    -0.5502680    -1.0765200
  H       -1.2183070    -0.7290930     1.8393240
  H       -2.2288450     1.6771480    -1.5635320
  H       -3.3650020    -1.9773860     1.6048690
  H       -4.3932510     0.4394220    -1.8057380
  H       -4.9525670    -1.3919050    -0.2175730
units angstrom
no_reorient  #important for SAPT in psi4, default
symmetry c1  #important for SAPT in psi4, default
}

set PROPERTIES_ORIGIN ["COM"]
properties('MP2/aug-cc-pvtz', properties = ['dipole'])
--------------------------------------------------------------------------

    Molecular point group: c1
  Charge       = 0
  Multiplicity = 1
  Basis Set: AUG-CC-PVTZ
    Blend: AUG-CC-PVTZ
  Basis Set: (AUG-CC-PVTZ AUX)
    Blend: AUG-CC-PVTZ-JKFIT

    Orbital Energies [Eh]
    ---------------------

    Doubly Occupied:

       1A    -20.598826     2A    -15.563532     3A    -11.340858
       4A    -11.296293     5A    -11.277381     6A    -11.261511
       7A    -11.243307     8A    -11.241261     9A    -11.239080
      10A    -11.236919    11A    -11.232814    12A    -11.232198
      13A    -11.231216    14A    -11.230958    15A     -1.430976
      16A     -1.253584    17A     -1.143876    18A     -1.102710
      19A     -1.052863    20A     -1.014395    21A     -1.003450
      22A     -0.942999    23A     -0.878029    24A     -0.841707
      25A     -0.830315    26A     -0.801584    27A     -0.736534
      28A     -0.704834    29A     -0.682165    30A     -0.654736
      31A     -0.643515    32A     -0.626254    33A     -0.611062
      34A     -0.594888    35A     -0.591393    36A     -0.585382
      37A     -0.569707    38A     -0.563821    39A     -0.549964
      40A     -0.521401    41A     -0.516805    42A     -0.511725
      43A     -0.490925    44A     -0.476332    45A     -0.428273
      46A     -0.384547    47A     -0.335597    48A     -0.331108
      49A     -0.313509

  @DF-RHF Final Energy:  -590.33062895352282

   => Energetics <=

    Nuclear Repulsion Energy =            801.2763998613639842
    One-Electron Energy =               -2391.3198220768153988
    Two-Electron Energy =                 999.7127932619284820
    Total Energy =                       -590.3306289535228188
  Basis Set: (AUG-CC-PVTZ AUX)
    Blend: AUG-CC-PVTZ-RI
    Molecular point group: c1

    Geometry (in Angstrom), charge = 0, multiplicity = 1:

       Center              X                  Y                   Z               Mass
    ------------   -----------------  -----------------  -----------------  -----------------
         O           -0.441803354059     1.295757410316     0.297393425490    15.994914619570
         N            0.833888645941    -0.574277589684    -0.280727574510    14.003074004430
         C            3.255379645941    -0.444303589684    -0.162087574510    12.000000000000
         C            0.777908645941     0.680151410316     0.148256425490    12.000000000000
         C           -1.585484354059     0.509559410316     0.137842425490    12.000000000000
         C            3.149381645941     0.882318410316     0.287950425490    12.000000000000
         C            1.900842645941     1.462695410316     0.450513425490    12.000000000000
         C            2.061788645941    -1.114347589684    -0.426131574510    12.000000000000
         C            4.590900645941    -1.110039589684    -0.349445574510    12.000000000000
         C           -1.884307354059    -0.508790589684     1.042546425490    12.000000000000
         C           -2.461713354059     0.852109410316    -0.887767574510    12.000000000000
         C           -3.087198354059    -1.200265589684     0.903587425490    12.000000000000
         C           -3.666365354059     0.156596410316    -1.012154574510    12.000000000000
         C           -4.001081954059    -0.874693289684    -0.132614074510    12.000000000000
         H            4.047367645941     1.456233410316     0.511823425490     1.007825032230
         H            1.772882645941     2.483128410316     0.797860425490     1.007825032230
         H            2.076628645941    -2.145346589684    -0.779537574510     1.007825032230
         H            5.151083645941    -1.144677589684     0.590272425490     1.007825032230
         H            4.467209645941    -2.136282589684    -0.705798574510     1.007825032230
         H            5.202253645941    -0.570986589684    -1.079965574510     1.007825032230
         H           -1.182942354059    -0.749811589684     1.835878425490     1.007825032230
         H           -2.193480354059     1.656429410316    -1.566977574510     1.007825032230
         H           -3.329637354059    -1.998104589684     1.601423425490     1.007825032230
         H           -4.357886354059     0.418703410316    -1.809183574510     1.007825032230
         H           -4.917202354059    -1.412623589684    -0.221018574510     1.007825032230

  Basis Set: AUG-CC-PVTZ
    Blend: AUG-CC-PVTZ
  Basis Set: (AUG-CC-PVTZ AUX)
    Blend: AUG-CC-PVTZ-JKFIT
	 Reference Energy          =    -590.3306289535228188 [Eh]
	 Singles Energy            =      -0.0000000000000000 [Eh]
	 Same-Spin Energy          =      -0.6439551449640338 [Eh]
	 Opposite-Spin Energy      =      -1.9815983994605861 [Eh]
	 Correlation Energy        =      -2.6255535444246201 [Eh]
	 Total Energy              =    -592.9561824979474522 [Eh]

	 ================> DF-SCS-MP2 Energies <==================
	-----------------------------------------------------------
	 SCS Same-Spin Scale       =       0.3333333333333333 [-]
	 SCS Opposite-Spin Scale   =       1.2000000000000000 [-]
	 SCS Same-Spin Energy      =      -0.2146517149880113 [Eh]
	 SCS Opposite-Spin Energy  =      -2.3779180793527033 [Eh]
	 SCS Correlation Energy    =      -2.5925697943407147 [Eh]
	 SCS Total Energy          =    -592.9231987478635801 [Eh]
	-----------------------------------------------------------

  Dipole Moment: [D]
     X:     2.0208      Y:    -0.1883      Z:     0.1589     Total:     2.0357

*** Psi4 exiting successfully. Buy a developer a beer!
