                               Psi4 1.4a3.dev225

  ==> Input File <==

--------------------------------------------------------------------------
#psi4
#
memory 32 gb

molecule  {
0 1
  O       -0.4771680     1.3164760     0.3008390
  N        0.7985240    -0.5535590    -0.2772820
  C        3.2200150    -0.4235850    -0.1586420
  C        0.7425440     0.7008700     0.1517020
  C       -1.6208490     0.5302780     0.1412880
  C        3.1140170     0.9030370     0.2913960
  C        1.8654780     1.4834140     0.4539590
  C        2.0264240    -1.0936290    -0.4226860
  C        4.5555360    -1.0893210    -0.3460000
  C       -1.9196720    -0.4880720     1.0459920
  C       -2.4970780     0.8728280    -0.8843220
  C       -3.1379566    -1.1969124     0.9145804
  C       -3.7017300     0.1773150    -1.0087090
  C       -4.0153870    -0.8504980    -0.1174150
  H        4.0120030     1.4769520     0.5152690
  H        1.7375180     2.5038470     0.8013060
  H        2.0412640    -2.1246280    -0.7760920
  H        5.1157190    -1.1239590     0.5937180
  H        4.4318450    -2.1155640    -0.7023530
  H        5.1668890    -0.5502680    -1.0765200
  H       -1.2183070    -0.7290930     1.8393240
  H       -2.2288450     1.6771480    -1.5635320
  H       -3.3650020    -1.9773860     1.6048690
  H       -4.3932510     0.4394220    -1.8057380
  H       -4.9525670    -1.3919050    -0.2175730
units angstrom
no_reorient  #important for SAPT in psi4, default
symmetry c1  #important for SAPT in psi4, default
}

set PROPERTIES_ORIGIN ["COM"]
properties('MP2/aug-cc-pvtz', properties = ['dipole'])
--------------------------------------------------------------------------

    Molecular point group: c1
  Charge       = 0
  Multiplicity = 1
  Basis Set: AUG-CC-PVTZ
    Blend: AUG-CC-PVTZ
  Basis Set: (AUG-CC-PVTZ AUX)
    Blend: AUG-CC-PVTZ-JKFIT

    Orbital Energies [Eh]
    ---------------------

    Doubly Occupied:

       1A    -20.598525     2A    -15.563262     3A    -11.340615
       4A    -11.295422     5A    -11.277208     6A    -11.261348
       7A    -11.243127     8A    -11.241075     9A    -11.237382
      10A    -11.236790    11A    -11.234255    12A    -11.232700
      13A    -11.232015    14A    -11.230906    15A     -1.430635
      16A     -1.253351    17A     -1.143860    18A     -1.102533
      19A     -1.052965    20A     -1.013489    21A     -1.003829
      22A     -0.942833    23A     -0.877321    24A     -0.842337
      25A     -0.832010    26A     -0.800343    27A     -0.737234
      28A     -0.704692    29A     -0.678258    30A     -0.654521
      31A     -0.643383    32A     -0.628908    33A     -0.611170
      34A     -0.596200    35A     -0.592383    36A     -0.586066
      37A     -0.568904    38A     -0.563129    39A     -0.549427
      40A     -0.520966    41A     -0.514616    42A     -0.508766
      43A     -0.492526    44A     -0.478677    45A     -0.428066
      46A     -0.384350    47A     -0.333347    48A     -0.332770
      49A     -0.313644

  @DF-RHF Final Energy:  -590.33053675697761

   => Energetics <=

    Nuclear Repulsion Energy =            801.2456531663591477
    One-Electron Energy =               -2391.2681062555348035
    Two-Electron Energy =                 999.6919163321979340
    Total Energy =                       -590.3305367569776081
  Basis Set: (AUG-CC-PVTZ AUX)
    Blend: AUG-CC-PVTZ-RI
    Molecular point group: c1

    Geometry (in Angstrom), charge = 0, multiplicity = 1:

       Center              X                  Y                   Z               Mass
    ------------   -----------------  -----------------  -----------------  -----------------
         O           -0.442170711457     1.296657889787     0.296142043847    15.994914619570
         N            0.833521288543    -0.573377110213    -0.281978956153    14.003074004430
         C            3.255012288543    -0.443403110213    -0.163338956153    12.000000000000
         C            0.777541288543     0.681051889787     0.147005043847    12.000000000000
         C           -1.585851711457     0.510459889787     0.136591043847    12.000000000000
         C            3.149014288543     0.883218889787     0.286699043847    12.000000000000
         C            1.900475288543     1.463595889787     0.449262043847    12.000000000000
         C            2.061421288543    -1.113447110213    -0.427382956153    12.000000000000
         C            4.590533288543    -1.109139110213    -0.350696956153    12.000000000000
         C           -1.884674711457    -0.507890110213     1.041295043847    12.000000000000
         C           -2.462080711457     0.853009889787    -0.889018956153    12.000000000000
         C           -3.102959311457    -1.216730510213     0.909883443847    12.000000000000
         C           -3.666732711457     0.157496889787    -1.013405956153    12.000000000000
         C           -3.980389711457    -0.870316110213    -0.122111956153    12.000000000000
         H            4.047000288543     1.457133889787     0.510572043847     1.007825032230
         H            1.772515288543     2.484028889787     0.796609043847     1.007825032230
         H            2.076261288543    -2.144446110213    -0.780788956153     1.007825032230
         H            5.150716288543    -1.143777110213     0.589021043847     1.007825032230
         H            4.466842288543    -2.135382110213    -0.707049956153     1.007825032230
         H            5.201886288543    -0.570086110213    -1.081216956153     1.007825032230
         H           -1.183309711457    -0.748911110213     1.834627043847     1.007825032230
         H           -2.193847711457     1.657329889787    -1.568228956153     1.007825032230
         H           -3.330004711457    -1.997204110213     1.600172043847     1.007825032230
         H           -4.358253711457     0.419603889787    -1.810434956153     1.007825032230
         H           -4.917569711457    -1.411723110213    -0.222269956153     1.007825032230

  Basis Set: AUG-CC-PVTZ
    Blend: AUG-CC-PVTZ
  Basis Set: (AUG-CC-PVTZ AUX)
    Blend: AUG-CC-PVTZ-JKFIT
	 Reference Energy          =    -590.3305367569776081 [Eh]
	 Singles Energy            =      -0.0000000000000000 [Eh]
	 Same-Spin Energy          =      -0.6440127383635029 [Eh]
	 Opposite-Spin Energy      =      -1.9816620316275046 [Eh]
	 Correlation Energy        =      -2.6256747699910075 [Eh]
	 Total Energy              =    -592.9562115269685592 [Eh]

	 ================> DF-SCS-MP2 Energies <==================
	-----------------------------------------------------------
	 SCS Same-Spin Scale       =       0.3333333333333333 [-]
	 SCS Opposite-Spin Scale   =       1.2000000000000000 [-]
	 SCS Same-Spin Energy      =      -0.2146709127878343 [Eh]
	 SCS Opposite-Spin Energy  =      -2.3779944379530056 [Eh]
	 SCS Correlation Energy    =      -2.5926653507408397 [Eh]
	 SCS Total Energy          =    -592.9232021077184527 [Eh]
	-----------------------------------------------------------

  Dipole Moment: [D]
     X:     2.0130      Y:    -0.1917      Z:     0.1605     Total:     2.0285

*** Psi4 exiting successfully. Buy a developer a beer!
