                               Psi4 1.4a3.dev225

  ==> Input File <==

--------------------------------------------------------------------------
#psi4
#
memory 32 gb

molecule  {
0 1
  O       -0.4771680     1.3164760     0.3008390
  N        0.7985240    -0.5535590    -0.2772820
  C        3.2018039    -0.4396526    -0.2607696
  C        0.7425440     0.7008700     0.1517020
  C       -1.6208490     0.5302780     0.1412880
  C        3.1140170     0.9030370     0.2913960
  C        1.8654780     1.4834140     0.4539590
  C        2.0264240    -1.0936290    -0.4226860
  C        4.5555360    -1.0893210    -0.3460000
  C       -1.9196720    -0.4880720     1.0459920
  C       -2.4970780     0.8728280    -0.8843220
  C       -3.1225630    -1.1795470     0.9070330
  C       -3.7017300     0.1773150    -1.0087090
  C       -4.0153870    -0.8504980    -0.1174150
  H        4.0120030     1.4769520     0.5152690
  H        1.7375180     2.5038470     0.8013060
  H        2.0412640    -2.1246280    -0.7760920
  H        5.1157190    -1.1239590     0.5937180
  H        4.4318450    -2.1155640    -0.7023530
  H        5.1668890    -0.5502680    -1.0765200
  H       -1.2183070    -0.7290930     1.8393240
  H       -2.2288450     1.6771480    -1.5635320
  H       -3.3650020    -1.9773860     1.6048690
  H       -4.3932510     0.4394220    -1.8057380
  H       -4.9525670    -1.3919050    -0.2175730
units angstrom
no_reorient  #important for SAPT in psi4, default
symmetry c1  #important for SAPT in psi4, default
}

set PROPERTIES_ORIGIN ["COM"]
properties('MP2/aug-cc-pvtz', properties = ['dipole'])
--------------------------------------------------------------------------

    Molecular point group: c1
  Charge       = 0
  Multiplicity = 1
  Basis Set: AUG-CC-PVTZ
    Blend: AUG-CC-PVTZ
  Basis Set: (AUG-CC-PVTZ AUX)
    Blend: AUG-CC-PVTZ-JKFIT

    Orbital Energies [Eh]
    ---------------------

    Doubly Occupied:

       1A    -20.600169     2A    -15.560794     3A    -11.342952
       4A    -11.296039     5A    -11.270171     6A    -11.267761
       7A    -11.242820     8A    -11.242657     9A    -11.236879
      10A    -11.236772    11A    -11.232470    12A    -11.232346
      13A    -11.231691    14A    -11.230663    15A     -1.431965
      16A     -1.253116    17A     -1.146165    18A     -1.097635
      19A     -1.056296    20A     -1.015457    21A     -1.004391
      22A     -0.943863    23A     -0.878805    24A     -0.840043
      25A     -0.829445    26A     -0.802598    27A     -0.736932
      28A     -0.705118    29A     -0.678898    30A     -0.655987
      31A     -0.642338    32A     -0.626255    33A     -0.611754
      34A     -0.595946    35A     -0.591831    36A     -0.586057
      37A     -0.570772    38A     -0.566854    39A     -0.550629
      40A     -0.514301    41A     -0.513084    42A     -0.506189
      43A     -0.493049    44A     -0.477976    45A     -0.429393
      46A     -0.380674    47A     -0.336156    48A     -0.333984
      49A     -0.316497

  @DF-RHF Final Energy:  -590.32615614119618

   => Energetics <=

    Nuclear Repulsion Energy =            801.6511379058015336
    One-Electron Energy =               -2392.0653172317679491
    Two-Electron Energy =                1000.0880231847702362
    Total Energy =                       -590.3261561411961793
  Basis Set: (AUG-CC-PVTZ AUX)
    Blend: AUG-CC-PVTZ-RI
    Molecular point group: c1

    Geometry (in Angstrom), charge = 0, multiplicity = 1:

       Center              X                  Y                   Z               Mass
    ------------   -----------------  -----------------  -----------------  -----------------
         O           -0.441988037707     1.296573746400     0.303252866744    15.994914619570
         N            0.833703962293    -0.573461253600    -0.274868133256    14.003074004430
         C            3.236983862293    -0.459554853600    -0.258355733256    12.000000000000
         C            0.777723962293     0.680967746400     0.154115866744    12.000000000000
         C           -1.585669037707     0.510375746400     0.143701866744    12.000000000000
         C            3.149196962293     0.883134746400     0.293809866744    12.000000000000
         C            1.900657962293     1.463511746400     0.456372866744    12.000000000000
         C            2.061603962293    -1.113531253600    -0.420272133256    12.000000000000
         C            4.590715962293    -1.109223253600    -0.343586133256    12.000000000000
         C           -1.884492037707    -0.507974253600     1.048405866744    12.000000000000
         C           -2.461898037707     0.852925746400    -0.881908133256    12.000000000000
         C           -3.087383037707    -1.199449253600     0.909446866744    12.000000000000
         C           -3.666550037707     0.157412746400    -1.006295133256    12.000000000000
         C           -3.980207037707    -0.870400253600    -0.115001133256    12.000000000000
         H            4.047182962293     1.457049746400     0.517682866744     1.007825032230
         H            1.772697962293     2.483944746400     0.803719866744     1.007825032230
         H            2.076443962293    -2.144530253600    -0.773678133256     1.007825032230
         H            5.150898962293    -1.143861253600     0.596131866744     1.007825032230
         H            4.467024962293    -2.135466253600    -0.699939133256     1.007825032230
         H            5.202068962293    -0.570170253600    -1.074106133256     1.007825032230
         H           -1.183127037707    -0.748995253600     1.841737866744     1.007825032230
         H           -2.193665037707     1.657245746400    -1.561118133256     1.007825032230
         H           -3.329822037707    -1.997288253600     1.607282866744     1.007825032230
         H           -4.358071037707     0.419519746400    -1.803324133256     1.007825032230
         H           -4.917387037707    -1.411807253600    -0.215159133256     1.007825032230

  Basis Set: AUG-CC-PVTZ
    Blend: AUG-CC-PVTZ
  Basis Set: (AUG-CC-PVTZ AUX)
    Blend: AUG-CC-PVTZ-JKFIT
	 Reference Energy          =    -590.3261561411961793 [Eh]
	 Singles Energy            =      -0.0000000000000000 [Eh]
	 Same-Spin Energy          =      -0.6435177743992923 [Eh]
	 Opposite-Spin Energy      =      -1.9815003265210982 [Eh]
	 Correlation Energy        =      -2.6250181009203906 [Eh]
	 Total Energy              =    -592.9511742421166218 [Eh]

	 ================> DF-SCS-MP2 Energies <==================
	-----------------------------------------------------------
	 SCS Same-Spin Scale       =       0.3333333333333333 [-]
	 SCS Opposite-Spin Scale   =       1.2000000000000000 [-]
	 SCS Same-Spin Energy      =      -0.2145059247997641 [Eh]
	 SCS Opposite-Spin Energy  =      -2.3778003918253177 [Eh]
	 SCS Correlation Energy    =      -2.5923063166250819 [Eh]
	 SCS Total Energy          =    -592.9184624578213061 [Eh]
	-----------------------------------------------------------

  Dipole Moment: [D]
     X:     1.9754      Y:    -0.1177      Z:     0.2118     Total:     1.9902

*** Psi4 exiting successfully. Buy a developer a beer!
