                               Psi4 1.4a3.dev225

  ==> Input File <==

--------------------------------------------------------------------------
#psi4
#
memory 32 gb

molecule  {
0 1
  O       -0.4771680     1.3164760     0.3008390
  N        0.7985240    -0.5535590    -0.2772820
  C        3.2200150    -0.4235850    -0.1586420
  C        0.7425440     0.7008700     0.1517020
  C       -1.6208490     0.5302780     0.1412880
  C        3.1140170     0.9030370     0.2913960
  C        1.8654780     1.4834140     0.4539590
  C        2.0264240    -1.0936290    -0.4226860
  C        4.5555360    -1.0893210    -0.3460000
  C       -1.9196720    -0.4880720     1.0459920
  C       -2.4970780     0.8728280    -0.8843220
  C       -3.1225630    -1.1795470     0.9070330
  C       -3.7017300     0.1773150    -1.0087090
  C       -4.0153870    -0.8504980    -0.1174150
  H        4.0120030     1.4769520     0.5152690
  H        1.7375180     2.5038470     0.8013060
  H        2.0412640    -2.1246280    -0.7760920
  H        5.1157190    -1.1239590     0.5937180
  H        4.4092194    -2.3032848    -0.7675372
  H        5.1668890    -0.5502680    -1.0765200
  H       -1.2183070    -0.7290930     1.8393240
  H       -2.2288450     1.6771480    -1.5635320
  H       -3.3650020    -1.9773860     1.6048690
  H       -4.3932510     0.4394220    -1.8057380
  H       -4.9525670    -1.3919050    -0.2175730
units angstrom
no_reorient  #important for SAPT in psi4, default
symmetry c1  #important for SAPT in psi4, default
}

set PROPERTIES_ORIGIN ["COM"]
properties('MP2/aug-cc-pvtz', properties = ['dipole'])
--------------------------------------------------------------------------

    Molecular point group: c1
  Charge       = 0
  Multiplicity = 1
  Basis Set: AUG-CC-PVTZ
    Blend: AUG-CC-PVTZ
  Basis Set: (AUG-CC-PVTZ AUX)
    Blend: AUG-CC-PVTZ-JKFIT

    Orbital Energies [Eh]
    ---------------------

    Doubly Occupied:

       1A    -20.599145     2A    -15.564002     3A    -11.341571
       4A    -11.295967     5A    -11.277987     6A    -11.263296
       7A    -11.255478     8A    -11.245285     9A    -11.242139
      10A    -11.236974    11A    -11.236874    12A    -11.232359
      13A    -11.231619    14A    -11.230680    15A     -1.431295
      16A     -1.254215    17A     -1.146141    18A     -1.103089
      19A     -1.052239    20A     -1.015492    21A     -1.002971
      22A     -0.935328    23A     -0.878395    24A     -0.840203
      25A     -0.830026    26A     -0.801260    27A     -0.737174
      28A     -0.704979    29A     -0.678810    30A     -0.655879
      31A     -0.640853    32A     -0.626265    33A     -0.611882
      34A     -0.594400    35A     -0.592480    36A     -0.587308
      37A     -0.570999    38A     -0.564669    39A     -0.535250
      40A     -0.514353    41A     -0.512842    42A     -0.498929
      43A     -0.492950    44A     -0.478119    45A     -0.428867
      46A     -0.385642    47A     -0.335713    48A     -0.332924
      49A     -0.314240

  @DF-RHF Final Energy:  -590.31119097871374

   => Energetics <=

    Nuclear Repulsion Energy =            800.9570702392618387
    One-Electron Energy =               -2390.6574176754761538
    Two-Electron Energy =                 999.3891564575005759
    Total Energy =                       -590.3111909787137392
  Basis Set: (AUG-CC-PVTZ AUX)
    Blend: AUG-CC-PVTZ-RI
    Molecular point group: c1

    Geometry (in Angstrom), charge = 0, multiplicity = 1:

       Center              X                  Y                   Z               Mass
    ------------   -----------------  -----------------  -----------------  -----------------
         O           -0.443045560163     1.296554179730     0.296986325441    15.994914619570
         N            0.832646439837    -0.573480820270    -0.281134674559    14.003074004430
         C            3.254137439837    -0.443506820270    -0.162494674559    12.000000000000
         C            0.776666439837     0.680948179730     0.147849325441    12.000000000000
         C           -1.586726560163     0.510356179730     0.137435325441    12.000000000000
         C            3.148139439837     0.883115179730     0.287543325441    12.000000000000
         C            1.899600439837     1.463492179730     0.450106325441    12.000000000000
         C            2.060546439837    -1.113550820270    -0.426538674559    12.000000000000
         C            4.589658439837    -1.109242820270    -0.349852674559    12.000000000000
         C           -1.885549560163    -0.507993820270     1.042139325441    12.000000000000
         C           -2.462955560163     0.852906179730    -0.888174674559    12.000000000000
         C           -3.088440560163    -1.199468820270     0.903180325441    12.000000000000
         C           -3.667607560163     0.157393179730    -1.012561674559    12.000000000000
         C           -3.981264560163    -0.870419820270    -0.121267674559    12.000000000000
         H            4.046125439837     1.457030179730     0.511416325441     1.007825032230
         H            1.771640439837     2.483925179730     0.797453325441     1.007825032230
         H            2.075386439837    -2.144549820270    -0.779944674559     1.007825032230
         H            5.149841439837    -1.143880820270     0.589865325441     1.007825032230
         H            4.443341839837    -2.323206620270    -0.771389874559     1.007825032230
         H            5.201011439837    -0.570189820270    -1.080372674559     1.007825032230
         H           -1.184184560163    -0.749014820270     1.835471325441     1.007825032230
         H           -2.194722560163     1.657226179730    -1.567384674559     1.007825032230
         H           -3.330879560163    -1.997307820270     1.601016325441     1.007825032230
         H           -4.359128560163     0.419500179730    -1.809590674559     1.007825032230
         H           -4.918444560163    -1.411826820270    -0.221425674559     1.007825032230

  Basis Set: AUG-CC-PVTZ
    Blend: AUG-CC-PVTZ
  Basis Set: (AUG-CC-PVTZ AUX)
    Blend: AUG-CC-PVTZ-JKFIT
	 Reference Energy          =    -590.3111909787137392 [Eh]
	 Singles Energy            =      -0.0000000000000000 [Eh]
	 Same-Spin Energy          =      -0.6440762700894878 [Eh]
	 Opposite-Spin Energy      =      -1.9832314123440056 [Eh]
	 Correlation Energy        =      -2.6273076824334933 [Eh]
	 Total Energy              =    -592.9384986611472641 [Eh]

	 ================> DF-SCS-MP2 Energies <==================
	-----------------------------------------------------------
	 SCS Same-Spin Scale       =       0.3333333333333333 [-]
	 SCS Opposite-Spin Scale   =       1.2000000000000000 [-]
	 SCS Same-Spin Energy      =      -0.2146920900298293 [Eh]
	 SCS Opposite-Spin Energy  =      -2.3798776948128064 [Eh]
	 SCS Correlation Energy    =      -2.5945697848426357 [Eh]
	 SCS Total Energy          =    -592.9057607635563727 [Eh]
	-----------------------------------------------------------

  Dipole Moment: [D]
     X:     1.9585      Y:    -0.0637      Z:     0.1965     Total:     1.9694

*** Psi4 exiting successfully. Buy a developer a beer!
