                               Psi4 1.4a3.dev225

  ==> Input File <==

--------------------------------------------------------------------------
#psi4
#
memory 32 gb

molecule  {
0 1
  O       -0.4771680     1.3164760     0.3008390
  N        0.7985240    -0.5535590    -0.2772820
  C        3.2200150    -0.4235850    -0.1586420
  C        0.7425440     0.7008700     0.1517020
  C       -1.6208490     0.5302780     0.1412880
  C        3.1140170     0.9030370     0.2913960
  C        1.8654780     1.4834140     0.4539590
  C        2.0264240    -1.0936290    -0.4226860
  C        4.5555360    -1.0893210    -0.3460000
  C       -1.9196720    -0.4880720     1.0459920
  C       -2.4970780     0.8728280    -0.8843220
  C       -3.1225630    -1.1795470     0.9070330
  C       -3.7017300     0.1773150    -1.0087090
  C       -4.0153870    -0.8504980    -0.1174150
  H        4.1769255     1.5823562     0.5563851
  H        1.7375180     2.5038470     0.8013060
  H        2.0412640    -2.1246280    -0.7760920
  H        5.1157190    -1.1239590     0.5937180
  H        4.4318450    -2.1155640    -0.7023530
  H        5.1668890    -0.5502680    -1.0765200
  H       -1.2183070    -0.7290930     1.8393240
  H       -2.2288450     1.6771480    -1.5635320
  H       -3.3650020    -1.9773860     1.6048690
  H       -4.3932510     0.4394220    -1.8057380
  H       -4.9525670    -1.3919050    -0.2175730
units angstrom
no_reorient  #important for SAPT in psi4, default
symmetry c1  #important for SAPT in psi4, default
}

set PROPERTIES_ORIGIN ["COM"]
properties('MP2/aug-cc-pvtz', properties = ['dipole'])
--------------------------------------------------------------------------

    Molecular point group: c1
  Charge       = 0
  Multiplicity = 1
  Basis Set: AUG-CC-PVTZ
    Blend: AUG-CC-PVTZ
  Basis Set: (AUG-CC-PVTZ AUX)
    Blend: AUG-CC-PVTZ-JKFIT

    Orbital Energies [Eh]
    ---------------------

    Doubly Occupied:

       1A    -20.599574     2A    -15.564440     3A    -11.342384
       4A    -11.296241     5A    -11.282678     6A    -11.279094
       7A    -11.245636     8A    -11.243364     9A    -11.237169
      10A    -11.237068    11A    -11.232759    12A    -11.232585
      13A    -11.231841    14A    -11.230888    15A     -1.431698
      16A     -1.254779    17A     -1.146374    18A     -1.100561
      19A     -1.054011    20A     -1.015719    21A     -1.003897
      22A     -0.943087    23A     -0.871645    24A     -0.843126
      25A     -0.831319    26A     -0.795362    27A     -0.730304
      28A     -0.703667    29A     -0.679562    30A     -0.656078
      31A     -0.644314    32A     -0.626978    33A     -0.606270
      34A     -0.593668    35A     -0.587489    36A     -0.586018
      37A     -0.570017    38A     -0.551044    39A     -0.539294
      40A     -0.521682    41A     -0.514296    42A     -0.512107
      43A     -0.493061    44A     -0.478362    45A     -0.427571
      46A     -0.385894    47A     -0.335947    48A     -0.333250
      49A     -0.314570

  @DF-RHF Final Energy:  -590.30950266290461

   => Energetics <=

    Nuclear Repulsion Energy =            800.7351624981349687
    One-Electron Energy =               -2390.2118465913831642
    Two-Electron Energy =                 999.1671814303435895
    Total Energy =                       -590.3095026629046060
  Basis Set: (AUG-CC-PVTZ AUX)
    Blend: AUG-CC-PVTZ-RI
    Molecular point group: c1

    Geometry (in Angstrom), charge = 0, multiplicity = 1:

       Center              X                  Y                   Z               Mass
    ------------   -----------------  -----------------  -----------------  -----------------
         O           -0.444066802435     1.294958047107     0.296407496010    15.994914619570
         N            0.831625197565    -0.575076952893    -0.281713503990    14.003074004430
         C            3.253116197565    -0.445102952893    -0.163073503990    12.000000000000
         C            0.775645197565     0.679352047107     0.147270496010    12.000000000000
         C           -1.587747802435     0.508760047107     0.136856496010    12.000000000000
         C            3.147118197565     0.881519047107     0.286964496010    12.000000000000
         C            1.898579197565     1.461896047107     0.449527496010    12.000000000000
         C            2.059525197565    -1.115146952893    -0.427117503990    12.000000000000
         C            4.588637197565    -1.110838952893    -0.350431503990    12.000000000000
         C           -1.886570802435    -0.509589952893     1.041560496010    12.000000000000
         C           -2.463976802435     0.851310047107    -0.888753503990    12.000000000000
         C           -3.089461802435    -1.201064952893     0.902601496010    12.000000000000
         C           -3.668628802435     0.155797047107    -1.013140503990    12.000000000000
         C           -3.982285802435    -0.872015952893    -0.121846503990    12.000000000000
         H            4.210026697565     1.560838247107     0.551953596010     1.007825032230
         H            1.770619197565     2.482329047107     0.796874496010     1.007825032230
         H            2.074365197565    -2.146145952893    -0.780523503990     1.007825032230
         H            5.148820197565    -1.145476952893     0.589286496010     1.007825032230
         H            4.464946197565    -2.137081952893    -0.706784503990     1.007825032230
         H            5.199990197565    -0.571785952893    -1.080951503990     1.007825032230
         H           -1.185205802435    -0.750610952893     1.834892496010     1.007825032230
         H           -2.195743802435     1.655630047107    -1.567963503990     1.007825032230
         H           -3.331900802435    -1.998903952893     1.600437496010     1.007825032230
         H           -4.360149802435     0.417904047107    -1.810169503990     1.007825032230
         H           -4.919465802435    -1.413422952893    -0.222004503990     1.007825032230

  Basis Set: AUG-CC-PVTZ
    Blend: AUG-CC-PVTZ
  Basis Set: (AUG-CC-PVTZ AUX)
    Blend: AUG-CC-PVTZ-JKFIT
	 Reference Energy          =    -590.3095026629046060 [Eh]
	 Singles Energy            =      -0.0000000000000000 [Eh]
	 Same-Spin Energy          =      -0.6445331423567386 [Eh]
	 Opposite-Spin Energy      =      -1.9836082741140433 [Eh]
	 Correlation Energy        =      -2.6281414164707817 [Eh]
	 Total Energy              =    -592.9376440793753318 [Eh]

	 ================> DF-SCS-MP2 Energies <==================
	-----------------------------------------------------------
	 SCS Same-Spin Scale       =       0.3333333333333333 [-]
	 SCS Opposite-Spin Scale   =       1.2000000000000000 [-]
	 SCS Same-Spin Energy      =      -0.2148443807855795 [Eh]
	 SCS Opposite-Spin Energy  =      -2.3803299289368520 [Eh]
	 SCS Correlation Energy    =      -2.5951743097224313 [Eh]
	 SCS Total Energy          =    -592.9046769726270441 [Eh]
	-----------------------------------------------------------

  Dipole Moment: [D]
     X:     1.9137      Y:    -0.2382      Z:     0.1356     Total:     1.9332

*** Psi4 exiting successfully. Buy a developer a beer!
