                               Psi4 1.4a3.dev225

  ==> Input File <==

--------------------------------------------------------------------------
#psi4
#
memory 32 gb

molecule  {
0 1
  O       -0.4771680     1.3164760     0.3008390
  N        0.7985240    -0.5535590    -0.2772820
  C        3.2200150    -0.4235850    -0.1586420
  C        0.7425440     0.7008700     0.1517020
  C       -1.6208490     0.5302780     0.1412880
  C        3.1140170     0.9030370     0.2913960
  C        1.8654780     1.4834140     0.4539590
  C        2.0264240    -1.0936290    -0.4226860
  C        4.5555360    -1.0893210    -0.3460000
  C       -1.9196720    -0.4880720     1.0459920
  C       -2.4970780     0.8728280    -0.8843220
  C       -3.1225630    -1.1795470     0.9070330
  C       -3.7017300     0.1773150    -1.0087090
  C       -4.0153870    -0.8504980    -0.1174150
  H        4.0120030     1.4769520     0.5152690
  H        1.7375180     2.5038470     0.8013060
  H        2.0412640    -2.1246280    -0.7760920
  H        5.1157190    -1.1239590     0.5937180
  H        4.4318450    -2.1155640    -0.7023530
  H        5.1557179    -0.5601180    -1.0631714
  H       -1.2183070    -0.7290930     1.8393240
  H       -2.2288450     1.6771480    -1.5635320
  H       -3.3650020    -1.9773860     1.6048690
  H       -4.3932510     0.4394220    -1.8057380
  H       -4.9525670    -1.3919050    -0.2175730
units angstrom
no_reorient  #important for SAPT in psi4, default
symmetry c1  #important for SAPT in psi4, default
}

set PROPERTIES_ORIGIN ["COM"]
properties('MP2/aug-cc-pvtz', properties = ['dipole'])
--------------------------------------------------------------------------

    Molecular point group: c1
  Charge       = 0
  Multiplicity = 1
  Basis Set: AUG-CC-PVTZ
    Blend: AUG-CC-PVTZ
  Basis Set: (AUG-CC-PVTZ AUX)
    Blend: AUG-CC-PVTZ-JKFIT

    Orbital Energies [Eh]
    ---------------------

    Doubly Occupied:

       1A    -20.598506     2A    -15.563326     3A    -11.340629
       4A    -11.295616     5A    -11.277175     6A    -11.261365
       7A    -11.243062     8A    -11.241098     9A    -11.236704
      10A    -11.236604    11A    -11.232037    12A    -11.231299
      13A    -11.230407    14A    -11.230331    15A     -1.430665
      16A     -1.253388    17A     -1.145828    18A     -1.102727
      19A     -1.053140    20A     -1.015220    21A     -1.003900
      22A     -0.944151    23A     -0.877624    24A     -0.842362
      25A     -0.830663    26A     -0.800917    27A     -0.736760
      28A     -0.704750    29A     -0.679129    30A     -0.655445
      31A     -0.643314    32A     -0.626432    33A     -0.611188
      34A     -0.594998    35A     -0.592638    36A     -0.586848
      37A     -0.570795    38A     -0.563376    39A     -0.550157
      40A     -0.520963    41A     -0.513736    42A     -0.511666
      43A     -0.492655    44A     -0.477622    45A     -0.428152
      46A     -0.384442    47A     -0.335402    48A     -0.332341
      49A     -0.313562

  @DF-RHF Final Energy:  -590.33157673939400

   => Energetics <=

    Nuclear Repulsion Energy =            801.8078791585528506
    One-Electron Energy =               -2392.3886804708586169
    Two-Electron Energy =                1000.2492245729117712
    Total Energy =                       -590.3315767393939950
  Basis Set: (AUG-CC-PVTZ AUX)
    Blend: AUG-CC-PVTZ-RI
    Molecular point group: c1

    Geometry (in Angstrom), charge = 0, multiplicity = 1:

       Center              X                  Y                   Z               Mass
    ------------   -----------------  -----------------  -----------------  -----------------
         O           -0.443107932534     1.295585632569     0.296558696395    15.994914619570
         N            0.832584067466    -0.574449367431    -0.281562303605    14.003074004430
         C            3.254075067466    -0.444475367431    -0.162922303605    12.000000000000
         C            0.776604067466     0.679979632569     0.147421696395    12.000000000000
         C           -1.586788932534     0.509387632569     0.137007696395    12.000000000000
         C            3.148077067466     0.882146632569     0.287115696395    12.000000000000
         C            1.899538067466     1.462523632569     0.449678696395    12.000000000000
         C            2.060484067466    -1.114519367431    -0.426966303605    12.000000000000
         C            4.589596067466    -1.110211367431    -0.350280303605    12.000000000000
         C           -1.885611932534    -0.508962367431     1.041711696395    12.000000000000
         C           -2.463017932534     0.851937632569    -0.888602303605    12.000000000000
         C           -3.088502932534    -1.200437367431     0.902752696395    12.000000000000
         C           -3.667669932534     0.156424632569    -1.012989303605    12.000000000000
         C           -3.981326932534    -0.871388367431    -0.121695303605    12.000000000000
         H            4.046063067466     1.456061632569     0.510988696395     1.007825032230
         H            1.771578067466     2.482956632569     0.797025696395     1.007825032230
         H            2.075324067466    -2.145518367431    -0.780372303605     1.007825032230
         H            5.149779067466    -1.144849367431     0.589437696395     1.007825032230
         H            4.465905067466    -2.136454367431    -0.706633303605     1.007825032230
         H            5.189777967466    -0.581008367431    -1.067451703605     1.007825032230
         H           -1.184246932534    -0.749983367431     1.835043696395     1.007825032230
         H           -2.194784932534     1.656257632569    -1.567812303605     1.007825032230
         H           -3.330941932534    -1.998276367431     1.600588696395     1.007825032230
         H           -4.359190932534     0.418531632569    -1.810018303605     1.007825032230
         H           -4.918506932534    -1.412795367431    -0.221853303605     1.007825032230

  Basis Set: AUG-CC-PVTZ
    Blend: AUG-CC-PVTZ
  Basis Set: (AUG-CC-PVTZ AUX)
    Blend: AUG-CC-PVTZ-JKFIT
	 Reference Energy          =    -590.3315767393939950 [Eh]
	 Singles Energy            =      -0.0000000000000000 [Eh]
	 Same-Spin Energy          =      -0.6440082428708513 [Eh]
	 Opposite-Spin Energy      =      -1.9813751003610374 [Eh]
	 Correlation Energy        =      -2.6253833432318885 [Eh]
	 Total Energy              =    -592.9569600826258693 [Eh]

	 ================> DF-SCS-MP2 Energies <==================
	-----------------------------------------------------------
	 SCS Same-Spin Scale       =       0.3333333333333333 [-]
	 SCS Opposite-Spin Scale   =       1.2000000000000000 [-]
	 SCS Same-Spin Energy      =      -0.2146694142902838 [Eh]
	 SCS Opposite-Spin Energy  =      -2.3776501204332448 [Eh]
	 SCS Correlation Energy    =      -2.5923195347235284 [Eh]
	 SCS Total Energy          =    -592.9238962741175101 [Eh]
	-----------------------------------------------------------

  Dipole Moment: [D]
     X:     2.0271      Y:    -0.1830      Z:     0.1512     Total:     2.0409

*** Psi4 exiting successfully. Buy a developer a beer!
