                               Psi4 1.4a3.dev225

  ==> Input File <==

--------------------------------------------------------------------------
#psi4
#
memory 32 gb

molecule  {
0 1
  O       -0.4771680     1.3164760     0.3008390
  N        0.7985240    -0.5535590    -0.2772820
  C        3.2200150    -0.4235850    -0.1586420
  C        0.7573396     0.6823155     0.1457614
  C       -1.6208490     0.5302780     0.1412880
  C        3.1140170     0.9030370     0.2913960
  C        1.8654780     1.4834140     0.4539590
  C        2.0264240    -1.0936290    -0.4226860
  C        4.5555360    -1.0893210    -0.3460000
  C       -1.9196720    -0.4880720     1.0459920
  C       -2.4970780     0.8728280    -0.8843220
  C       -3.1225630    -1.1795470     0.9070330
  C       -3.7017300     0.1773150    -1.0087090
  C       -4.0153870    -0.8504980    -0.1174150
  H        4.0120030     1.4769520     0.5152690
  H        1.7375180     2.5038470     0.8013060
  H        2.0412640    -2.1246280    -0.7760920
  H        5.1157190    -1.1239590     0.5937180
  H        4.4318450    -2.1155640    -0.7023530
  H        5.1668890    -0.5502680    -1.0765200
  H       -1.2183070    -0.7290930     1.8393240
  H       -2.2288450     1.6771480    -1.5635320
  H       -3.3650020    -1.9773860     1.6048690
  H       -4.3932510     0.4394220    -1.8057380
  H       -4.9525670    -1.3919050    -0.2175730
units angstrom
no_reorient  #important for SAPT in psi4, default
symmetry c1  #important for SAPT in psi4, default
}

set PROPERTIES_ORIGIN ["COM"]
properties('MP2/aug-cc-pvtz', properties = ['dipole'])
--------------------------------------------------------------------------

    Molecular point group: c1
  Charge       = 0
  Multiplicity = 1
  Basis Set: AUG-CC-PVTZ
    Blend: AUG-CC-PVTZ
  Basis Set: (AUG-CC-PVTZ AUX)
    Blend: AUG-CC-PVTZ-JKFIT

    Orbital Energies [Eh]
    ---------------------

    Doubly Occupied:

       1A    -20.594470     2A    -15.564374     3A    -11.339669
       4A    -11.293433     5A    -11.278536     6A    -11.262446
       7A    -11.245045     8A    -11.242949     9A    -11.235644
      10A    -11.235534    11A    -11.233873    12A    -11.230599
      13A    -11.229753    14A    -11.229205    15A     -1.421492
      16A     -1.261001    17A     -1.144065    18A     -1.105831
      19A     -1.053266    20A     -1.013977    21A     -1.001835
      22A     -0.944396    23A     -0.878555    24A     -0.840859
      25A     -0.829573    26A     -0.800631    27A     -0.733693
      28A     -0.705210    29A     -0.678461    30A     -0.652726
      31A     -0.643855    32A     -0.626632    33A     -0.609153
      34A     -0.594218    35A     -0.592451    36A     -0.585638
      37A     -0.568249    38A     -0.563786    39A     -0.551117
      40A     -0.522667    41A     -0.514051    42A     -0.510348
      43A     -0.490752    44A     -0.476102    45A     -0.431671
      46A     -0.386952    47A     -0.334626    48A     -0.332417
      49A     -0.314302

  @DF-RHF Final Energy:  -590.33109568419820

   => Energetics <=

    Nuclear Repulsion Energy =            801.7932531587576932
    One-Electron Energy =               -2392.3885207170023932
    Two-Electron Energy =                1000.2641718740466104
    Total Energy =                       -590.3310956841982033
  Basis Set: (AUG-CC-PVTZ AUX)
    Blend: AUG-CC-PVTZ-RI
    Molecular point group: c1

    Geometry (in Angstrom), charge = 0, multiplicity = 1:

       Center              X                  Y                   Z               Mass
    ------------   -----------------  -----------------  -----------------  -----------------
         O           -0.444128040425     1.296734985565     0.297016543772    15.994914619570
         N            0.831563959575    -0.573300014435    -0.281104456228    14.003074004430
         C            3.253054959575    -0.443326014435    -0.162464456228    12.000000000000
         C            0.790379559575     0.662574485565     0.141938943772    12.000000000000
         C           -1.587809040425     0.510536985565     0.137465543772    12.000000000000
         C            3.147056959575     0.883295985565     0.287573543772    12.000000000000
         C            1.898517959575     1.463672985565     0.450136543772    12.000000000000
         C            2.059463959575    -1.113370014435    -0.426508456228    12.000000000000
         C            4.588575959575    -1.109062014435    -0.349822456228    12.000000000000
         C           -1.886632040425    -0.507813014435     1.042169543772    12.000000000000
         C           -2.464038040425     0.853086985565    -0.888144456228    12.000000000000
         C           -3.089523040425    -1.199288014435     0.903210543772    12.000000000000
         C           -3.668690040425     0.157573985565    -1.012531456228    12.000000000000
         C           -3.982347040425    -0.870239014435    -0.121237456228    12.000000000000
         H            4.045042959575     1.457210985565     0.511446543772     1.007825032230
         H            1.770557959575     2.484105985565     0.797483543772     1.007825032230
         H            2.074303959575    -2.144369014435    -0.779914456228     1.007825032230
         H            5.148758959575    -1.143700014435     0.589895543772     1.007825032230
         H            4.464884959575    -2.135305014435    -0.706175456228     1.007825032230
         H            5.199928959575    -0.570009014435    -1.080342456228     1.007825032230
         H           -1.185267040425    -0.748834014435     1.835501543772     1.007825032230
         H           -2.195805040425     1.657406985565    -1.567354456228     1.007825032230
         H           -3.331962040425    -1.997127014435     1.601046543772     1.007825032230
         H           -4.360211040425     0.419680985565    -1.809560456228     1.007825032230
         H           -4.919527040425    -1.411646014435    -0.221395456228     1.007825032230

  Basis Set: AUG-CC-PVTZ
    Blend: AUG-CC-PVTZ
  Basis Set: (AUG-CC-PVTZ AUX)
    Blend: AUG-CC-PVTZ-JKFIT
	 Reference Energy          =    -590.3310956841982033 [Eh]
	 Singles Energy            =      -0.0000000000000000 [Eh]
	 Same-Spin Energy          =      -0.6438990070379302 [Eh]
	 Opposite-Spin Energy      =      -1.9814625464887781 [Eh]
	 Correlation Energy        =      -2.6253615535267083 [Eh]
	 Total Energy              =    -592.9564572377248624 [Eh]

	 ================> DF-SCS-MP2 Energies <==================
	-----------------------------------------------------------
	 SCS Same-Spin Scale       =       0.3333333333333333 [-]
	 SCS Opposite-Spin Scale   =       1.2000000000000000 [-]
	 SCS Same-Spin Energy      =      -0.2146330023459767 [Eh]
	 SCS Opposite-Spin Energy  =      -2.3777550557865337 [Eh]
	 SCS Correlation Energy    =      -2.5923880581325105 [Eh]
	 SCS Total Energy          =    -592.9234837423307454 [Eh]
	-----------------------------------------------------------

  Dipole Moment: [D]
     X:     2.2314      Y:    -0.2260      Z:     0.1394     Total:     2.2471

*** Psi4 exiting successfully. Buy a developer a beer!
