                               Psi4 1.4a3.dev225

  ==> Input File <==

--------------------------------------------------------------------------
#psi4
#
memory 32 gb

molecule  {
0 1
  O       -0.4771680     1.3164760     0.3008390
  N        0.7985240    -0.5535590    -0.2772820
  C        3.2200150    -0.4235850    -0.1586420
  C        0.7425440     0.7008700     0.1517020
  C       -1.6208490     0.5302780     0.1412880
  C        3.1140170     0.9030370     0.2913960
  C        1.8654780     1.4834140     0.4539590
  C        2.0264240    -1.0936290    -0.4226860
  C        4.5555360    -1.0893210    -0.3460000
  C       -1.9196720    -0.4880720     1.0459920
  C       -2.4764818     0.8165713    -0.8074252
  C       -3.1225630    -1.1795470     0.9070330
  C       -3.7017300     0.1773150    -1.0087090
  C       -4.0153870    -0.8504980    -0.1174150
  H        4.0120030     1.4769520     0.5152690
  H        1.7375180     2.5038470     0.8013060
  H        2.0412640    -2.1246280    -0.7760920
  H        5.1157190    -1.1239590     0.5937180
  H        4.4318450    -2.1155640    -0.7023530
  H        5.1668890    -0.5502680    -1.0765200
  H       -1.2183070    -0.7290930     1.8393240
  H       -2.2288450     1.6771480    -1.5635320
  H       -3.3650020    -1.9773860     1.6048690
  H       -4.3932510     0.4394220    -1.8057380
  H       -4.9525670    -1.3919050    -0.2175730
units angstrom
no_reorient  #important for SAPT in psi4, default
symmetry c1  #important for SAPT in psi4, default
}

set PROPERTIES_ORIGIN ["COM"]
properties('MP2/aug-cc-pvtz', properties = ['dipole'])
--------------------------------------------------------------------------

    Molecular point group: c1
  Charge       = 0
  Multiplicity = 1
  Basis Set: AUG-CC-PVTZ
    Blend: AUG-CC-PVTZ
  Basis Set: (AUG-CC-PVTZ AUX)
    Blend: AUG-CC-PVTZ-JKFIT

    Orbital Energies [Eh]
    ---------------------

    Doubly Occupied:

       1A    -20.598411     2A    -15.563615     3A    -11.340791
       4A    -11.285043     5A    -11.277371     6A    -11.261453
       7A    -11.243234     8A    -11.241149     9A    -11.236625
      10A    -11.234961    11A    -11.233142    12A    -11.232759
      13A    -11.231283    14A    -11.228407    15A     -1.430830
      16A     -1.253770    17A     -1.155522    18A     -1.102658
      19A     -1.054196    20A     -1.015119    21A     -1.010029
      22A     -0.943387    23A     -0.877463    24A     -0.845741
      25A     -0.829459    26A     -0.801116    27A     -0.740597
      28A     -0.704501    29A     -0.675114    30A     -0.658136
      31A     -0.642691    32A     -0.625111    33A     -0.611595
      34A     -0.599950    35A     -0.591618    36A     -0.580232
      37A     -0.566228    38A     -0.562849    39A     -0.549583
      40A     -0.521546    41A     -0.517334    42A     -0.506500
      43A     -0.491533    44A     -0.476285    45A     -0.428389
      46A     -0.384512    47A     -0.340754    48A     -0.332599
      49A     -0.315836

  @DF-RHF Final Energy:  -590.31994302314263

   => Energetics <=

    Nuclear Repulsion Energy =            803.6068920245051004
    One-Electron Energy =               -2395.9516195582918954
    Two-Electron Energy =                1002.0247845106440536
    Total Energy =                       -590.3199430231426277
  Basis Set: (AUG-CC-PVTZ AUX)
    Blend: AUG-CC-PVTZ-RI
    Molecular point group: c1

    Geometry (in Angstrom), charge = 0, multiplicity = 1:

       Center              X                  Y                   Z               Mass
    ------------   -----------------  -----------------  -----------------  -----------------
         O           -0.444504124667     1.299179422921     0.291645747504    15.994914619570
         N            0.831187875333    -0.570855577079    -0.286475252496    14.003074004430
         C            3.252678875333    -0.440881577079    -0.167835252496    12.000000000000
         C            0.775207875333     0.683573422921     0.142508747504    12.000000000000
         C           -1.588185124667     0.512981422921     0.132094747504    12.000000000000
         C            3.146680875333     0.885740422921     0.282202747504    12.000000000000
         C            1.898141875333     1.466117422921     0.444765747504    12.000000000000
         C            2.059087875333    -1.110925577079    -0.431879252496    12.000000000000
         C            4.588199875333    -1.106617577079    -0.355193252496    12.000000000000
         C           -1.887008124667    -0.505368577079     1.036798747504    12.000000000000
         C           -2.443817924667     0.799274722921    -0.816618452496    12.000000000000
         C           -3.089899124667    -1.196843577079     0.897839747504    12.000000000000
         C           -3.669066124667     0.160018422921    -1.017902252496    12.000000000000
         C           -3.982723124667    -0.867794577079    -0.126608252496    12.000000000000
         H            4.044666875333     1.459655422921     0.506075747504     1.007825032230
         H            1.770181875333     2.486550422921     0.792112747504     1.007825032230
         H            2.073927875333    -2.141924577079    -0.785285252496     1.007825032230
         H            5.148382875333    -1.141255577079     0.584524747504     1.007825032230
         H            4.464508875333    -2.132860577079    -0.711546252496     1.007825032230
         H            5.199552875333    -0.567564577079    -1.085713252496     1.007825032230
         H           -1.185643124667    -0.746389577079     1.830130747504     1.007825032230
         H           -2.196181124667     1.659851422921    -1.572725252496     1.007825032230
         H           -3.332338124667    -1.994682577079     1.595675747504     1.007825032230
         H           -4.360587124667     0.422125422921    -1.814931252496     1.007825032230
         H           -4.919903124667    -1.409201577079    -0.226766252496     1.007825032230

  Basis Set: AUG-CC-PVTZ
    Blend: AUG-CC-PVTZ
  Basis Set: (AUG-CC-PVTZ AUX)
    Blend: AUG-CC-PVTZ-JKFIT
	 Reference Energy          =    -590.3199430231426277 [Eh]
	 Singles Energy            =      -0.0000000000000000 [Eh]
	 Same-Spin Energy          =      -0.6440405705478454 [Eh]
	 Opposite-Spin Energy      =      -1.9815812185771797 [Eh]
	 Correlation Energy        =      -2.6256217891250251 [Eh]
	 Total Energy              =    -592.9455648122676621 [Eh]

	 ================> DF-SCS-MP2 Energies <==================
	-----------------------------------------------------------
	 SCS Same-Spin Scale       =       0.3333333333333333 [-]
	 SCS Opposite-Spin Scale   =       1.2000000000000000 [-]
	 SCS Same-Spin Energy      =      -0.2146801901826151 [Eh]
	 SCS Opposite-Spin Energy  =      -2.3778974622926157 [Eh]
	 SCS Correlation Energy    =      -2.5925776524752306 [Eh]
	 SCS Total Energy          =    -592.9125206756178841 [Eh]
	-----------------------------------------------------------

  Dipole Moment: [D]
     X:     1.9572      Y:    -0.2267      Z:     0.1501     Total:     1.9760

*** Psi4 exiting successfully. Buy a developer a beer!
