                               Psi4 1.4a3.dev225

  ==> Input File <==

--------------------------------------------------------------------------
#psi4
#
memory 32 gb

molecule  {
0 1
  O       -0.4771680     1.3164760     0.3008390
  N        0.7985240    -0.5535590    -0.2772820
  C        3.2200150    -0.4235850    -0.1586420
  C        0.7425440     0.7008700     0.1517020
  C       -1.6208490     0.5302780     0.1412880
  C        3.1140170     0.9030370     0.2913960
  C        1.8654780     1.4834140     0.4539590
  C        2.0264240    -1.0936290    -0.4226860
  C        4.5555360    -1.0893210    -0.3460000
  C       -1.9196720    -0.4880720     1.0459920
  C       -2.4970780     0.8728280    -0.8843220
  C       -3.1225630    -1.1795470     0.9070330
  C       -3.7017300     0.1773150    -1.0087090
  C       -4.0153870    -0.8504980    -0.1174150
  H        4.0120030     1.4769520     0.5152690
  H        1.7257299     2.5978529     0.8333048
  H        2.0412640    -2.1246280    -0.7760920
  H        5.1157190    -1.1239590     0.5937180
  H        4.4318450    -2.1155640    -0.7023530
  H        5.1668890    -0.5502680    -1.0765200
  H       -1.2183070    -0.7290930     1.8393240
  H       -2.2288450     1.6771480    -1.5635320
  H       -3.3650020    -1.9773860     1.6048690
  H       -4.3932510     0.4394220    -1.8057380
  H       -4.9525670    -1.3919050    -0.2175730
units angstrom
no_reorient  #important for SAPT in psi4, default
symmetry c1  #important for SAPT in psi4, default
}

set PROPERTIES_ORIGIN ["COM"]
properties('MP2/aug-cc-pvtz', properties = ['dipole'])
--------------------------------------------------------------------------

    Molecular point group: c1
  Charge       = 0
  Multiplicity = 1
  Basis Set: AUG-CC-PVTZ
    Blend: AUG-CC-PVTZ
  Basis Set: (AUG-CC-PVTZ AUX)
    Blend: AUG-CC-PVTZ-JKFIT

    Orbital Energies [Eh]
    ---------------------

    Doubly Occupied:

       1A    -20.598465     2A    -15.564175     3A    -11.341637
       4A    -11.295589     5A    -11.277637     6A    -11.262226
       7A    -11.251808     8A    -11.243838     9A    -11.236725
      10A    -11.236624    11A    -11.233116    12A    -11.232056
      13A    -11.231306    14A    -11.230428    15A     -1.430644
      16A     -1.254046    17A     -1.145828    18A     -1.102515
      19A     -1.051263    20A     -1.015231    21A     -1.003539
      22A     -0.943248    23A     -0.876604    24A     -0.839989
      25A     -0.829274    26A     -0.800858    27A     -0.736890
      28A     -0.703617    29A     -0.679274    30A     -0.655440
      31A     -0.633454    32A     -0.622429    33A     -0.606075
      34A     -0.594933    35A     -0.592144    36A     -0.586245
      37A     -0.569704    38A     -0.563181    39A     -0.549648
      40A     -0.517903    41A     -0.513640    42A     -0.511283
      43A     -0.492671    44A     -0.477644    45A     -0.427838
      46A     -0.384970    47A     -0.335449    48A     -0.332518
      49A     -0.313779

  @DF-RHF Final Energy:  -590.32400792247370

   => Energetics <=

    Nuclear Repulsion Energy =            801.2026713250774037
    One-Electron Energy =               -2391.1945705771922803
    Two-Electron Energy =                 999.6678913296410656
    Total Energy =                       -590.3240079224736974
  Basis Set: (AUG-CC-PVTZ AUX)
    Blend: AUG-CC-PVTZ-RI
    Molecular point group: c1

    Geometry (in Angstrom), charge = 0, multiplicity = 1:

       Center              X                  Y                   Z               Mass
    ------------   -----------------  -----------------  -----------------  -----------------
         O           -0.443104572828     1.295020113456     0.296457141793    15.994914619570
         N            0.832587427172    -0.575014886544    -0.281663858207    14.003074004430
         C            3.254078427172    -0.445040886544    -0.163023858207    12.000000000000
         C            0.776607427172     0.679414113456     0.147320141793    12.000000000000
         C           -1.586785572828     0.508822113456     0.136906141793    12.000000000000
         C            3.148080427172     0.881581113456     0.287014141793    12.000000000000
         C            1.899541427172     1.461958113456     0.449577141793    12.000000000000
         C            2.060487427172    -1.115084886544    -0.427067858207    12.000000000000
         C            4.589599427172    -1.110776886544    -0.350381858207    12.000000000000
         C           -1.885608572828    -0.509527886544     1.041610141793    12.000000000000
         C           -2.463014572828     0.851372113456    -0.888703858207    12.000000000000
         C           -3.088499572828    -1.201002886544     0.902651141793    12.000000000000
         C           -3.667666572828     0.155859113456    -1.013090858207    12.000000000000
         C           -3.981323572828    -0.871953886544    -0.121796858207    12.000000000000
         H            4.046066427172     1.455496113456     0.510887141793     1.007825032230
         H            1.759793327172     2.576397013456     0.828922941793     1.007825032230
         H            2.075327427172    -2.146083886544    -0.780473858207     1.007825032230
         H            5.149782427172    -1.145414886544     0.589336141793     1.007825032230
         H            4.465908427172    -2.137019886544    -0.706734858207     1.007825032230
         H            5.200952427172    -0.571723886544    -1.080901858207     1.007825032230
         H           -1.184243572828    -0.750548886544     1.834942141793     1.007825032230
         H           -2.194781572828     1.655692113456    -1.567913858207     1.007825032230
         H           -3.330938572828    -1.998841886544     1.600487141793     1.007825032230
         H           -4.359187572828     0.417966113456    -1.810119858207     1.007825032230
         H           -4.918503572828    -1.413360886544    -0.221954858207     1.007825032230

  Basis Set: AUG-CC-PVTZ
    Blend: AUG-CC-PVTZ
  Basis Set: (AUG-CC-PVTZ AUX)
    Blend: AUG-CC-PVTZ-JKFIT
	 Reference Energy          =    -590.3240079224736974 [Eh]
	 Singles Energy            =      -0.0000000000000000 [Eh]
	 Same-Spin Energy          =      -0.6442840005983188 [Eh]
	 Opposite-Spin Energy      =      -1.9824883981774526 [Eh]
	 Correlation Energy        =      -2.6267723987757714 [Eh]
	 Total Energy              =    -592.9507803212494537 [Eh]

	 ================> DF-SCS-MP2 Energies <==================
	-----------------------------------------------------------
	 SCS Same-Spin Scale       =       0.3333333333333333 [-]
	 SCS Opposite-Spin Scale   =       1.2000000000000000 [-]
	 SCS Same-Spin Energy      =      -0.2147613335327729 [Eh]
	 SCS Opposite-Spin Energy  =      -2.3789860778129430 [Eh]
	 SCS Correlation Energy    =      -2.5937474113457157 [Eh]
	 SCS Total Energy          =    -592.9177553338194002 [Eh]
	-----------------------------------------------------------

  Dipole Moment: [D]
     X:     2.0201      Y:    -0.1989      Z:     0.1508     Total:     2.0354

*** Psi4 exiting successfully. Buy a developer a beer!
