                               Psi4 1.4a3.dev225

  ==> Input File <==

--------------------------------------------------------------------------
#psi4
#
memory 32 gb

molecule  {
0 1
  O       -0.4771680     1.3164760     0.3008390
  N        0.7985240    -0.5535590    -0.2772820
  C        3.2200150    -0.4235850    -0.1586420
  C        0.7425440     0.7008700     0.1517020
  C       -1.6208490     0.5302780     0.1412880
  C        3.1140170     0.9030370     0.2913960
  C        1.8654780     1.4834140     0.4539590
  C        2.0264240    -1.0936290    -0.4226860
  C        4.5555360    -1.0893210    -0.3460000
  C       -1.9196720    -0.4880720     1.0459920
  C       -2.4970780     0.8728280    -0.8843220
  C       -3.1225630    -1.1795470     0.9070330
  C       -3.7017300     0.1773150    -1.0087090
  C       -4.0153870    -0.8504980    -0.1174150
  H        4.0120030     1.4769520     0.5152690
  H        1.7375180     2.5038470     0.8013060
  H        2.0412640    -2.1246280    -0.7760920
  H        5.1147400    -1.1049118     0.5948095
  H        4.4318450    -2.1155640    -0.7023530
  H        5.1668890    -0.5502680    -1.0765200
  H       -1.2183070    -0.7290930     1.8393240
  H       -2.2288450     1.6771480    -1.5635320
  H       -3.3650020    -1.9773860     1.6048690
  H       -4.3932510     0.4394220    -1.8057380
  H       -4.9525670    -1.3919050    -0.2175730
units angstrom
no_reorient  #important for SAPT in psi4, default
symmetry c1  #important for SAPT in psi4, default
}

set PROPERTIES_ORIGIN ["COM"]
properties('MP2/aug-cc-pvtz', properties = ['dipole'])
--------------------------------------------------------------------------

    Molecular point group: c1
  Charge       = 0
  Multiplicity = 1
  Basis Set: AUG-CC-PVTZ
    Blend: AUG-CC-PVTZ
  Basis Set: (AUG-CC-PVTZ AUX)
    Blend: AUG-CC-PVTZ-JKFIT

    Orbital Energies [Eh]
    ---------------------

    Doubly Occupied:

       1A    -20.598532     2A    -15.563371     3A    -11.340657
       4A    -11.295635     5A    -11.277206     6A    -11.261407
       7A    -11.243156     8A    -11.241177     9A    -11.236719
      10A    -11.236619    11A    -11.232843    12A    -11.232055
      13A    -11.231316    14A    -11.230422    15A     -1.430692
      16A     -1.253425    17A     -1.145845    18A     -1.102670
      19A     -1.053028    20A     -1.015233    21A     -1.003768
      22A     -0.942911    23A     -0.877681    24A     -0.842044
      25A     -0.830592    26A     -0.800846    27A     -0.736788
      28A     -0.704767    29A     -0.679173    30A     -0.655464
      31A     -0.643061    32A     -0.626472    33A     -0.611038
      34A     -0.594766    35A     -0.592005    36A     -0.585992
      37A     -0.569435    38A     -0.563340    39A     -0.550736
      40A     -0.521034    41A     -0.513429    42A     -0.511714
      43A     -0.492671    44A     -0.477508    45A     -0.428176
      46A     -0.384408    47A     -0.335414    48A     -0.332289
      49A     -0.313497

  @DF-RHF Final Energy:  -590.33151017955970

   => Energetics <=

    Nuclear Repulsion Energy =            801.7342312402489597
    One-Electron Energy =               -2392.2454337909221067
    Two-Electron Energy =                1000.1796923711135605
    Total Energy =                       -590.3315101795597002
  Basis Set: (AUG-CC-PVTZ AUX)
    Blend: AUG-CC-PVTZ-RI
    Molecular point group: c1

    Geometry (in Angstrom), charge = 0, multiplicity = 1:

       Center              X                  Y                   Z               Mass
    ------------   -----------------  -----------------  -----------------  -----------------
         O           -0.443163430848     1.295428280710     0.296625439106    15.994914619570
         N            0.832528569152    -0.574606719290    -0.281495560894    14.003074004430
         C            3.254019569152    -0.444632719290    -0.162855560894    12.000000000000
         C            0.776548569152     0.679822280710     0.147488439106    12.000000000000
         C           -1.586844430848     0.509230280710     0.137074439106    12.000000000000
         C            3.148021569152     0.881989280710     0.287182439106    12.000000000000
         C            1.899482569152     1.462366280710     0.449745439106    12.000000000000
         C            2.060428569152    -1.114676719290    -0.426899560894    12.000000000000
         C            4.589540569152    -1.110368719290    -0.350213560894    12.000000000000
         C           -1.885667430848    -0.509119719290     1.041778439106    12.000000000000
         C           -2.463073430848     0.851780280710    -0.888535560894    12.000000000000
         C           -3.088558430848    -1.200594719290     0.902819439106    12.000000000000
         C           -3.667725430848     0.156267280710    -1.012922560894    12.000000000000
         C           -3.981382430848    -0.871545719290    -0.121628560894    12.000000000000
         H            4.046007569152     1.455904280710     0.511055439106     1.007825032230
         H            1.771522569152     2.482799280710     0.797092439106     1.007825032230
         H            2.075268569152    -2.145675719290    -0.780305560894     1.007825032230
         H            5.148744569152    -1.125959519290     0.590595939106     1.007825032230
         H            4.465849569152    -2.136611719290    -0.706566560894     1.007825032230
         H            5.200893569152    -0.571315719290    -1.080733560894     1.007825032230
         H           -1.184302430848    -0.750140719290     1.835110439106     1.007825032230
         H           -2.194840430848     1.656100280710    -1.567745560894     1.007825032230
         H           -3.330997430848    -1.998433719290     1.600655439106     1.007825032230
         H           -4.359246430848     0.418374280710    -1.809951560894     1.007825032230
         H           -4.918562430848    -1.412952719290    -0.221786560894     1.007825032230

  Basis Set: AUG-CC-PVTZ
    Blend: AUG-CC-PVTZ
  Basis Set: (AUG-CC-PVTZ AUX)
    Blend: AUG-CC-PVTZ-JKFIT
	 Reference Energy          =    -590.3315101795597002 [Eh]
	 Singles Energy            =      -0.0000000000000000 [Eh]
	 Same-Spin Energy          =      -0.6440121112192889 [Eh]
	 Opposite-Spin Energy      =      -1.9815036267410167 [Eh]
	 Correlation Energy        =      -2.6255157379603054 [Eh]
	 Total Energy              =    -592.9570259175200135 [Eh]

	 ================> DF-SCS-MP2 Energies <==================
	-----------------------------------------------------------
	 SCS Same-Spin Scale       =       0.3333333333333333 [-]
	 SCS Opposite-Spin Scale   =       1.2000000000000000 [-]
	 SCS Same-Spin Energy      =      -0.2146707037397630 [Eh]
	 SCS Opposite-Spin Energy  =      -2.3778043520892198 [Eh]
	 SCS Correlation Energy    =      -2.5924750558289826 [Eh]
	 SCS Total Energy          =    -592.9239852353887272 [Eh]
	-----------------------------------------------------------

  Dipole Moment: [D]
     X:     2.0211      Y:    -0.1792      Z:     0.1541     Total:     2.0348

*** Psi4 exiting successfully. Buy a developer a beer!
