                               Psi4 1.4a3.dev225

  ==> Input File <==

--------------------------------------------------------------------------
#psi4
#
memory 32 gb

molecule  {
0 1
  O       -0.4771680     1.3164760     0.3008390
  N        0.7985240    -0.5535590    -0.2772820
  C        3.2200150    -0.4235850    -0.1586420
  C        0.7425440     0.7008700     0.1517020
  C       -1.6208490     0.5302780     0.1412880
  C        3.1140170     0.9030370     0.2913960
  C        1.8654780     1.4834140     0.4539590
  C        2.0264240    -1.0936290    -0.4226860
  C        4.5555360    -1.0893210    -0.3460000
  C       -1.9196720    -0.4880720     1.0459920
  C       -2.4970780     0.8728280    -0.8843220
  C       -3.1225630    -1.1795470     0.9070330
  C       -3.7017300     0.1773150    -1.0087090
  C       -4.0153870    -0.8504980    -0.1174150
  H        4.0120030     1.4769520     0.5152690
  H        1.7375180     2.5038470     0.8013060
  H        2.0412640    -2.1246280    -0.7760920
  H        5.1157190    -1.1239590     0.5937180
  H        4.4318450    -2.1155640    -0.7023530
  H        5.1668890    -0.5502680    -1.0765200
  H       -1.1860156    -0.7401898     1.8758497
  H       -2.2288450     1.6771480    -1.5635320
  H       -3.3650020    -1.9773860     1.6048690
  H       -4.3932510     0.4394220    -1.8057380
  H       -4.9525670    -1.3919050    -0.2175730
units angstrom
no_reorient  #important for SAPT in psi4, default
symmetry c1  #important for SAPT in psi4, default
}

set PROPERTIES_ORIGIN ["COM"]
properties('MP2/aug-cc-pvtz', properties = ['dipole'])
--------------------------------------------------------------------------

    Molecular point group: c1
  Charge       = 0
  Multiplicity = 1
  Basis Set: AUG-CC-PVTZ
    Blend: AUG-CC-PVTZ
  Basis Set: (AUG-CC-PVTZ AUX)
    Blend: AUG-CC-PVTZ-JKFIT

    Orbital Energies [Eh]
    ---------------------

    Doubly Occupied:

       1A    -20.598539     2A    -15.563258     3A    -11.340618
       4A    -11.296160     5A    -11.277195     6A    -11.261336
       7A    -11.243127     8A    -11.241075     9A    -11.238115
      10A    -11.236892    11A    -11.236684    12A    -11.232699
      13A    -11.231703    14A    -11.230794    15A     -1.430670
      16A     -1.253357    17A     -1.145923    18A     -1.102528
      19A     -1.052989    20A     -1.014286    21A     -1.003581
      22A     -0.942785    23A     -0.877524    24A     -0.841099
      25A     -0.829975    26A     -0.800436    27A     -0.736170
      28A     -0.704545    29A     -0.676579    30A     -0.655092
      31A     -0.642944    32A     -0.624983    33A     -0.610808
      34A     -0.594479    35A     -0.591500    36A     -0.583990
      37A     -0.568718    38A     -0.563028    39A     -0.549507
      40A     -0.521048    41A     -0.512486    42A     -0.511547
      43A     -0.492555    44A     -0.476998    45A     -0.428038
      46A     -0.384328    47A     -0.335671    48A     -0.332494
      49A     -0.313656

  @DF-RHF Final Energy:  -590.32903237779215

   => Energetics <=

    Nuclear Repulsion Energy =            801.4840230329263022
    One-Electron Energy =               -2391.7570835278984305
    Two-Electron Energy =                 999.9440281171798688
    Total Energy =                       -590.3290323777921458
  Basis Set: (AUG-CC-PVTZ AUX)
    Blend: AUG-CC-PVTZ-RI
    Molecular point group: c1

    Geometry (in Angstrom), charge = 0, multiplicity = 1:

       Center              X                  Y                   Z               Mass
    ------------   -----------------  -----------------  -----------------  -----------------
         O           -0.443344595780     1.295592421680     0.296432491788    15.994914619570
         N            0.832347404220    -0.574442578320    -0.281688508212    14.003074004430
         C            3.253838404220    -0.444468578320    -0.163048508212    12.000000000000
         C            0.776367404220     0.679986421680     0.147295491788    12.000000000000
         C           -1.587025595780     0.509394421680     0.136881491788    12.000000000000
         C            3.147840404220     0.882153421680     0.286989491788    12.000000000000
         C            1.899301404220     1.462530421680     0.449552491788    12.000000000000
         C            2.060247404220    -1.114512578320    -0.427092508212    12.000000000000
         C            4.589359404220    -1.110204578320    -0.350406508212    12.000000000000
         C           -1.885848595780    -0.508955578320     1.041585491788    12.000000000000
         C           -2.463254595780     0.851944421680    -0.888728508212    12.000000000000
         C           -3.088739595780    -1.200430578320     0.902626491788    12.000000000000
         C           -3.667906595780     0.156431421680    -1.013115508212    12.000000000000
         C           -3.981563595780    -0.871381578320    -0.121821508212    12.000000000000
         H            4.045826404220     1.456068421680     0.510862491788     1.007825032230
         H            1.771341404220     2.482963421680     0.796899491788     1.007825032230
         H            2.075087404220    -2.145511578320    -0.780498508212     1.007825032230
         H            5.149542404220    -1.144842578320     0.589311491788     1.007825032230
         H            4.465668404220    -2.136447578320    -0.706759508212     1.007825032230
         H            5.200712404220    -0.571151578320    -1.080926508212     1.007825032230
         H           -1.152192195780    -0.761073378320     1.871443191788     1.007825032230
         H           -2.195021595780     1.656264421680    -1.567938508212     1.007825032230
         H           -3.331178595780    -1.998269578320     1.600462491788     1.007825032230
         H           -4.359427595780     0.418538421680    -1.810144508212     1.007825032230
         H           -4.918743595780    -1.412788578320    -0.221979508212     1.007825032230

  Basis Set: AUG-CC-PVTZ
    Blend: AUG-CC-PVTZ
  Basis Set: (AUG-CC-PVTZ AUX)
    Blend: AUG-CC-PVTZ-JKFIT
	 Reference Energy          =    -590.3290323777921458 [Eh]
	 Singles Energy            =      -0.0000000000000000 [Eh]
	 Same-Spin Energy          =      -0.6441384613009491 [Eh]
	 Opposite-Spin Energy      =      -1.9819084177842636 [Eh]
	 Correlation Energy        =      -2.6260468790852127 [Eh]
	 Total Energy              =    -592.9550792568774114 [Eh]

	 ================> DF-SCS-MP2 Energies <==================
	-----------------------------------------------------------
	 SCS Same-Spin Scale       =       0.3333333333333333 [-]
	 SCS Opposite-Spin Scale   =       1.2000000000000000 [-]
	 SCS Same-Spin Energy      =      -0.2147128204336497 [Eh]
	 SCS Opposite-Spin Energy  =      -2.3782901013411162 [Eh]
	 SCS Correlation Energy    =      -2.5930029217747657 [Eh]
	 SCS Total Energy          =    -592.9220352995669145 [Eh]
	-----------------------------------------------------------

  Dipole Moment: [D]
     X:     2.0052      Y:    -0.1848      Z:     0.1490     Total:     2.0193

*** Psi4 exiting successfully. Buy a developer a beer!
