                               Psi4 1.4a3.dev225

  ==> Input File <==

--------------------------------------------------------------------------
#psi4
#
memory 32 gb

molecule  {
0 1
  O       -0.4771680     1.3164760     0.3008390
  N        0.7985240    -0.5535590    -0.2772820
  C        3.2200150    -0.4235850    -0.1586420
  C        0.7425440     0.7008700     0.1517020
  C       -1.6208490     0.5302780     0.1412880
  C        3.1140170     0.9030370     0.2913960
  C        1.8654780     1.4834140     0.4539590
  C        2.0264240    -1.0936290    -0.4226860
  C        4.5555360    -1.0893210    -0.3460000
  C       -1.9196720    -0.4880720     1.0459920
  C       -2.4970780     0.8728280    -0.8843220
  C       -3.1225630    -1.1795470     0.9070330
  C       -3.7017300     0.1773150    -1.0087090
  C       -4.0153870    -0.8504980    -0.1174150
  H        3.8470805     1.3715478     0.4741529
  H        1.7375180     2.5038470     0.8013060
  H        2.0412640    -2.1246280    -0.7760920
  H        5.1157190    -1.1239590     0.5937180
  H        4.4318450    -2.1155640    -0.7023530
  H        5.1668890    -0.5502680    -1.0765200
  H       -1.2183070    -0.7290930     1.8393240
  H       -2.2288450     1.6771480    -1.5635320
  H       -3.3650020    -1.9773860     1.6048690
  H       -4.3932510     0.4394220    -1.8057380
  H       -4.9525670    -1.3919050    -0.2175730
units angstrom
no_reorient  #important for SAPT in psi4, default
symmetry c1  #important for SAPT in psi4, default
}

set PROPERTIES_ORIGIN ["COM"]
properties('MP2/aug-cc-pvtz', properties = ['dipole'])
--------------------------------------------------------------------------

    Molecular point group: c1
  Charge       = 0
  Multiplicity = 1
  Basis Set: AUG-CC-PVTZ
    Blend: AUG-CC-PVTZ
  Basis Set: (AUG-CC-PVTZ AUX)
    Blend: AUG-CC-PVTZ-JKFIT

    Orbital Energies [Eh]
    ---------------------

    Doubly Occupied:

       1A    -20.597996     2A    -15.563083     3A    -11.339722
       4A    -11.295345     5A    -11.276169     6A    -11.242032
       7A    -11.240280     8A    -11.237484     9A    -11.236522
      10A    -11.236423    11A    -11.232910    12A    -11.231817
      13A    -11.231075    14A    -11.230212    15A     -1.430192
      16A     -1.252913    17A     -1.145606    18A     -1.109472
      19A     -1.052958    20A     -1.015017    21A     -1.004641
      22A     -0.944021    23A     -0.893160    24A     -0.841637
      25A     -0.830272    26A     -0.811183    27A     -0.746770
      28A     -0.706253    29A     -0.679179    30A     -0.655335
      31A     -0.642742    32A     -0.629832    33A     -0.624071
      34A     -0.598778    35A     -0.592479    36A     -0.586060
      37A     -0.571756    38A     -0.568801    39A     -0.549886
      40A     -0.520381    41A     -0.513149    42A     -0.511426
      43A     -0.492482    44A     -0.477168    45A     -0.428713
      46A     -0.384017    47A     -0.335181    48A     -0.331827
      49A     -0.312979

  @DF-RHF Final Energy:  -590.29722080358965

   => Energetics <=

    Nuclear Repulsion Energy =            802.9475890872919308
    One-Electron Energy =               -2394.5268061843553369
    Two-Electron Energy =                1001.2819962934738669
    Total Energy =                       -590.2972208035896529
  Basis Set: (AUG-CC-PVTZ AUX)
    Blend: AUG-CC-PVTZ-RI
    Molecular point group: c1

    Geometry (in Angstrom), charge = 0, multiplicity = 1:

       Center              X                  Y                   Z               Mass
    ------------   -----------------  -----------------  -----------------  -----------------
         O           -0.442270721018     1.296105947029     0.296855269135    15.994914619570
         N            0.833421278982    -0.573929052971    -0.281265730865    14.003074004430
         C            3.254912278982    -0.443955052971    -0.162625730865    12.000000000000
         C            0.777441278982     0.680499947029     0.147718269135    12.000000000000
         C           -1.585951721018     0.509907947029     0.137304269135    12.000000000000
         C            3.148914278982     0.882666947029     0.287412269135    12.000000000000
         C            1.900375278982     1.463043947029     0.449975269135    12.000000000000
         C            2.061321278982    -1.113999052971    -0.426669730865    12.000000000000
         C            4.590433278982    -1.109691052971    -0.349983730865    12.000000000000
         C           -1.884774721018    -0.508442052971     1.042008269135    12.000000000000
         C           -2.462180721018     0.852457947029    -0.888305730865    12.000000000000
         C           -3.087665721018    -1.199917052971     0.903049269135    12.000000000000
         C           -3.666832721018     0.156944947029    -1.012692730865    12.000000000000
         C           -3.980489721018    -0.870868052971    -0.121398730865    12.000000000000
         H            3.881977778982     1.351177747029     0.470169169135     1.007825032230
         H            1.772415278982     2.483476947029     0.797322269135     1.007825032230
         H            2.076161278982    -2.144998052971    -0.780075730865     1.007825032230
         H            5.150616278982    -1.144329052971     0.589734269135     1.007825032230
         H            4.466742278982    -2.135934052971    -0.706336730865     1.007825032230
         H            5.201786278982    -0.570638052971    -1.080503730865     1.007825032230
         H           -1.183409721018    -0.749463052971     1.835340269135     1.007825032230
         H           -2.193947721018     1.656777947029    -1.567515730865     1.007825032230
         H           -3.330104721018    -1.997756052971     1.600885269135     1.007825032230
         H           -4.358353721018     0.419051947029    -1.809721730865     1.007825032230
         H           -4.917669721018    -1.412275052971    -0.221556730865     1.007825032230

  Basis Set: AUG-CC-PVTZ
    Blend: AUG-CC-PVTZ
  Basis Set: (AUG-CC-PVTZ AUX)
    Blend: AUG-CC-PVTZ-JKFIT
	 Reference Energy          =    -590.2972208035896529 [Eh]
	 Singles Energy            =      -0.0000000000000000 [Eh]
	 Same-Spin Energy          =      -0.6438157582835407 [Eh]
	 Opposite-Spin Energy      =      -1.9809688874569589 [Eh]
	 Correlation Energy        =      -2.6247846457404993 [Eh]
	 Total Energy              =    -592.9220054493301859 [Eh]

	 ================> DF-SCS-MP2 Energies <==================
	-----------------------------------------------------------
	 SCS Same-Spin Scale       =       0.3333333333333333 [-]
	 SCS Opposite-Spin Scale   =       1.2000000000000000 [-]
	 SCS Same-Spin Energy      =      -0.2146052527611802 [Eh]
	 SCS Opposite-Spin Energy  =      -2.3771626649483504 [Eh]
	 SCS Correlation Energy    =      -2.5917679177095305 [Eh]
	 SCS Total Energy          =    -592.8889887212991425 [Eh]
	-----------------------------------------------------------

  Dipole Moment: [D]
     X:     2.0593      Y:    -0.1651      Z:     0.1634     Total:     2.0723

*** Psi4 exiting successfully. Buy a developer a beer!
