                               Psi4 1.4a3.dev225

  ==> Input File <==

--------------------------------------------------------------------------
#psi4
#
memory 32 gb

molecule  {
0 1
  O       -0.4771680     1.3164760     0.3008390
  N        0.7985240    -0.5535590    -0.2772820
  C        3.2200150    -0.4235850    -0.1586420
  C        0.7425440     0.7008700     0.1517020
  C       -1.6208490     0.5302780     0.1412880
  C        3.1140170     0.9030370     0.2913960
  C        1.8654780     1.4834140     0.4539590
  C        2.0264240    -1.0936290    -0.4226860
  C        4.5555360    -1.0893210    -0.3460000
  C       -1.9196720    -0.4880720     1.0459920
  C       -2.4970780     0.8728280    -0.8843220
  C       -3.1225630    -1.1795470     0.9070330
  C       -3.7017300     0.1773150    -1.0087090
  C       -4.0153870    -0.8504980    -0.1174150
  H        4.0120030     1.4769520     0.5152690
  H        1.7493061     2.4098411     0.7693072
  H        2.0412640    -2.1246280    -0.7760920
  H        5.1157190    -1.1239590     0.5937180
  H        4.4318450    -2.1155640    -0.7023530
  H        5.1668890    -0.5502680    -1.0765200
  H       -1.2183070    -0.7290930     1.8393240
  H       -2.2288450     1.6771480    -1.5635320
  H       -3.3650020    -1.9773860     1.6048690
  H       -4.3932510     0.4394220    -1.8057380
  H       -4.9525670    -1.3919050    -0.2175730
units angstrom
no_reorient  #important for SAPT in psi4, default
symmetry c1  #important for SAPT in psi4, default
}

set PROPERTIES_ORIGIN ["COM"]
properties('MP2/aug-cc-pvtz', properties = ['dipole'])
--------------------------------------------------------------------------

    Molecular point group: c1
  Charge       = 0
  Multiplicity = 1
  Basis Set: AUG-CC-PVTZ
    Blend: AUG-CC-PVTZ
  Basis Set: (AUG-CC-PVTZ AUX)
    Blend: AUG-CC-PVTZ-JKFIT

    Orbital Energies [Eh]
    ---------------------

    Doubly Occupied:

       1A    -20.598726     2A    -15.562767     3A    -11.340052
       4A    -11.295739     5A    -11.277132     6A    -11.260896
       7A    -11.242728     8A    -11.236763     9A    -11.236663
      10A    -11.232491    11A    -11.232113    12A    -11.231379
      13A    -11.230467    14A    -11.229722    15A     -1.430867
      16A     -1.253057    17A     -1.145932    18A     -1.103278
      19A     -1.055798    20A     -1.015289    21A     -1.004186
      22A     -0.942693    23A     -0.879874    24A     -0.845760
      25A     -0.831848    26A     -0.800965    27A     -0.736808
      28A     -0.707249    29A     -0.679123    30A     -0.660543
      31A     -0.655308    32A     -0.627561    33A     -0.612587
      34A     -0.594733    35A     -0.592048    36A     -0.586077
      37A     -0.569662    38A     -0.563353    39A     -0.549522
      40A     -0.523440    41A     -0.513484    42A     -0.511823
      43A     -0.492729    44A     -0.477547    45A     -0.428476
      46A     -0.384141    47A     -0.335448    48A     -0.332267
      49A     -0.313484

  @DF-RHF Final Energy:  -590.32569289736614

   => Energetics <=

    Nuclear Repulsion Energy =            802.2919378249541751
    One-Electron Energy =               -2393.3060643556123068
    Two-Electron Energy =                1000.6884336332919929
    Total Energy =                       -590.3256928973661388
  Basis Set: (AUG-CC-PVTZ AUX)
    Blend: AUG-CC-PVTZ-RI
    Molecular point group: c1

    Geometry (in Angstrom), charge = 0, multiplicity = 1:

       Center              X                  Y                   Z               Mass
    ------------   -----------------  -----------------  -----------------  -----------------
         O           -0.443232950625     1.296043880680     0.296805623353    15.994914619570
         N            0.832459049375    -0.573991119320    -0.281315376647    14.003074004430
         C            3.253950049375    -0.444017119320    -0.162675376647    12.000000000000
         C            0.776479049375     0.680437880680     0.147668623353    12.000000000000
         C           -1.586913950625     0.509845880680     0.137254623353    12.000000000000
         C            3.147952049375     0.882604880680     0.287362623353    12.000000000000
         C            1.899413049375     1.462981880680     0.449925623353    12.000000000000
         C            2.060359049375    -1.114061119320    -0.426719376647    12.000000000000
         C            4.589471049375    -1.109753119320    -0.350033376647    12.000000000000
         C           -1.885736950625    -0.508504119320     1.041958623353    12.000000000000
         C           -2.463142950625     0.852395880680    -0.888355376647    12.000000000000
         C           -3.088627950625    -1.199979119320     0.902999623353    12.000000000000
         C           -3.667794950625     0.156882880680    -1.012742376647    12.000000000000
         C           -3.981451950625    -0.870930119320    -0.121448376647    12.000000000000
         H            4.045938049375     1.456519880680     0.511235623353     1.007825032230
         H            1.783241149375     2.389408980680     0.765273823353     1.007825032230
         H            2.075199049375    -2.145060119320    -0.780125376647     1.007825032230
         H            5.149654049375    -1.144391119320     0.589684623353     1.007825032230
         H            4.465780049375    -2.135996119320    -0.706386376647     1.007825032230
         H            5.200824049375    -0.570700119320    -1.080553376647     1.007825032230
         H           -1.184371950625    -0.749525119320     1.835290623353     1.007825032230
         H           -2.194909950625     1.656715880680    -1.567565376647     1.007825032230
         H           -3.331066950625    -1.997818119320     1.600835623353     1.007825032230
         H           -4.359315950625     0.418989880680    -1.809771376647     1.007825032230
         H           -4.918631950625    -1.412337119320    -0.221606376647     1.007825032230

  Basis Set: AUG-CC-PVTZ
    Blend: AUG-CC-PVTZ
  Basis Set: (AUG-CC-PVTZ AUX)
    Blend: AUG-CC-PVTZ-JKFIT
	 Reference Energy          =    -590.3256928973661388 [Eh]
	 Singles Energy            =      -0.0000000000000000 [Eh]
	 Same-Spin Energy          =      -0.6437950219549317 [Eh]
	 Opposite-Spin Energy      =      -1.9809019661211882 [Eh]
	 Correlation Energy        =      -2.6246969880761197 [Eh]
	 Total Energy              =    -592.9503898854422914 [Eh]

	 ================> DF-SCS-MP2 Energies <==================
	-----------------------------------------------------------
	 SCS Same-Spin Scale       =       0.3333333333333333 [-]
	 SCS Opposite-Spin Scale   =       1.2000000000000000 [-]
	 SCS Same-Spin Energy      =      -0.2145983406516439 [Eh]
	 SCS Opposite-Spin Energy  =      -2.3770823593454256 [Eh]
	 SCS Correlation Energy    =      -2.5916806999970694 [Eh]
	 SCS Total Energy          =    -592.9173735973631665 [Eh]
	-----------------------------------------------------------

  Dipole Moment: [D]
     X:     2.0138      Y:    -0.1814      Z:     0.1574     Total:     2.0281

*** Psi4 exiting successfully. Buy a developer a beer!
