                               Psi4 1.4a3.dev225

  ==> Input File <==

--------------------------------------------------------------------------
#psi4
#
memory 32 gb

molecule  {
0 1
  O       -0.4771680     1.3164760     0.3008390
  N        0.7985240    -0.5535590    -0.2772820
  C        3.2200150    -0.4235850    -0.1586420
  C        0.7425440     0.7008700     0.1517020
  C       -1.6208490     0.5302780     0.1412880
  C        3.1140170     0.9030370     0.2913960
  C        1.8654780     1.4834140     0.4539590
  C        2.0264240    -1.0936290    -0.4226860
  C        4.5555360    -1.0893210    -0.3460000
  C       -1.9196720    -0.4880720     1.0459920
  C       -2.4970780     0.8728280    -0.8843220
  C       -3.1225630    -1.1795470     0.9070330
  C       -3.7017300     0.1773150    -1.0087090
  C       -4.0153870    -0.8504980    -0.1174150
  H        4.0120030     1.4769520     0.5152690
  H        1.7375180     2.5038470     0.8013060
  H        2.0412640    -2.1246280    -0.7760920
  H        5.1157190    -1.1239590     0.5937180
  H        4.4318450    -2.1155640    -0.7023530
  H        5.1668890    -0.5502680    -1.0765200
  H       -1.2183070    -0.7290930     1.8393240
  H       -2.2288450     1.6771480    -1.5635320
  H       -3.3650020    -1.9773860     1.6048690
  H       -4.2660479     0.3912082    -1.6591270
  H       -4.9525670    -1.3919050    -0.2175730
units angstrom
no_reorient  #important for SAPT in psi4, default
symmetry c1  #important for SAPT in psi4, default
}

set PROPERTIES_ORIGIN ["COM"]
properties('MP2/aug-cc-pvtz', properties = ['dipole'])
--------------------------------------------------------------------------

    Molecular point group: c1
  Charge       = 0
  Multiplicity = 1
  Basis Set: AUG-CC-PVTZ
    Blend: AUG-CC-PVTZ
  Basis Set: (AUG-CC-PVTZ AUX)
    Blend: AUG-CC-PVTZ-JKFIT

    Orbital Energies [Eh]
    ---------------------

    Doubly Occupied:

       1A    -20.597966     2A    -15.563121     3A    -11.340410
       4A    -11.294624     5A    -11.277086     6A    -11.261217
       7A    -11.242990     8A    -11.240906     9A    -11.235660
      10A    -11.232607    11A    -11.231734    12A    -11.230189
      13A    -11.229341    14A    -11.212478    15A     -1.430190
      16A     -1.253192    17A     -1.147103    18A     -1.102403
      19A     -1.053290    20A     -1.023094    21A     -1.004372
      22A     -0.942631    23A     -0.877352    24A     -0.852980
      25A     -0.834169    26A     -0.804521    27A     -0.747073
      28A     -0.704987    29A     -0.678726    30A     -0.655769
      31A     -0.647319    32A     -0.639418    33A     -0.612269
      34A     -0.599591    35A     -0.593047    36A     -0.587744
      37A     -0.569202    38A     -0.563118    39A     -0.549324
      40A     -0.521342    41A     -0.518602    42A     -0.510861
      43A     -0.492999    44A     -0.479197    45A     -0.427950
      46A     -0.384236    47A     -0.334946    48A     -0.331719
      49A     -0.313123

  @DF-RHF Final Energy:  -590.29682448396238

   => Energetics <=

    Nuclear Repulsion Energy =            802.9227094691628963
    One-Electron Energy =               -2394.4826910406100069
    Two-Electron Energy =                1001.2631570874848421
    Total Energy =                       -590.2968244839623821
  Basis Set: (AUG-CC-PVTZ AUX)
    Blend: AUG-CC-PVTZ-RI
    Molecular point group: c1

    Geometry (in Angstrom), charge = 0, multiplicity = 1:

       Center              X                  Y                   Z               Mass
    ------------   -----------------  -----------------  -----------------  -----------------
         O           -0.443861411680     1.295794532229     0.295833052167    15.994914619570
         N            0.831830588320    -0.574240467771    -0.282287947833    14.003074004430
         C            3.253321588320    -0.444266467771    -0.163647947833    12.000000000000
         C            0.775850588320     0.680188532229     0.146696052167    12.000000000000
         C           -1.587542411680     0.509596532229     0.136282052167    12.000000000000
         C            3.147323588320     0.882355532229     0.286390052167    12.000000000000
         C            1.898784588320     1.462732532229     0.448953052167    12.000000000000
         C            2.059730588320    -1.114310467771    -0.427691947833    12.000000000000
         C            4.588842588320    -1.110002467771    -0.351005947833    12.000000000000
         C           -1.886365411680    -0.508753467771     1.040986052167    12.000000000000
         C           -2.463771411680     0.852146532229    -0.889327947833    12.000000000000
         C           -3.089256411680    -1.200228467771     0.902027052167    12.000000000000
         C           -3.668423411680     0.156633532229    -1.013714947833    12.000000000000
         C           -3.982080411680    -0.871179467771    -0.122420947833    12.000000000000
         H            4.045309588320     1.456270532229     0.510263052167     1.007825032230
         H            1.770824588320     2.483165532229     0.796300052167     1.007825032230
         H            2.074570588320    -2.145309467771    -0.781097947833     1.007825032230
         H            5.149025588320    -1.144640467771     0.588712052167     1.007825032230
         H            4.465151588320    -2.136245467771    -0.707358947833     1.007825032230
         H            5.200195588320    -0.570949467771    -1.081525947833     1.007825032230
         H           -1.185000411680    -0.749774467771     1.834318052167     1.007825032230
         H           -2.195538411680     1.656466532229    -1.568537947833     1.007825032230
         H           -3.331695411680    -1.998067467771     1.599863052167     1.007825032230
         H           -4.232741311680     0.370526732229    -1.664132947833     1.007825032230
         H           -4.919260411680    -1.412586467771    -0.222578947833     1.007825032230

  Basis Set: AUG-CC-PVTZ
    Blend: AUG-CC-PVTZ
  Basis Set: (AUG-CC-PVTZ AUX)
    Blend: AUG-CC-PVTZ-JKFIT
	 Reference Energy          =    -590.2968244839623821 [Eh]
	 Singles Energy            =      -0.0000000000000000 [Eh]
	 Same-Spin Energy          =      -0.6438523731002880 [Eh]
	 Opposite-Spin Energy      =      -1.9810365417815283 [Eh]
	 Correlation Energy        =      -2.6248889148818164 [Eh]
	 Total Energy              =    -592.9217133988441901 [Eh]

	 ================> DF-SCS-MP2 Energies <==================
	-----------------------------------------------------------
	 SCS Same-Spin Scale       =       0.3333333333333333 [-]
	 SCS Opposite-Spin Scale   =       1.2000000000000000 [-]
	 SCS Same-Spin Energy      =      -0.2146174577000960 [Eh]
	 SCS Opposite-Spin Energy  =      -2.3772438501378339 [Eh]
	 SCS Correlation Energy    =      -2.5918613078379300 [Eh]
	 SCS Total Energy          =    -592.8886857918002988 [Eh]
	-----------------------------------------------------------

  Dipole Moment: [D]
     X:     1.9759      Y:    -0.1726      Z:     0.1272     Total:     1.9875

*** Psi4 exiting successfully. Buy a developer a beer!
