                               Psi4 1.4a3.dev225

  ==> Input File <==

--------------------------------------------------------------------------
#psi4
#
memory 32 gb

molecule  {
0 1
  O       -0.4771680     1.3164760     0.3008390
  N        0.7985240    -0.5535590    -0.2772820
  C        3.2200150    -0.4235850    -0.1586420
  C        0.7425440     0.7008700     0.1517020
  C       -1.6208490     0.5302780     0.1412880
  C        3.1140170     0.9030370     0.2913960
  C        1.8654780     1.4834140     0.4539590
  C        2.0264240    -1.0936290    -0.4226860
  C        4.4667363    -1.0450557    -0.3335424
  C       -1.9196720    -0.4880720     1.0459920
  C       -2.4970780     0.8728280    -0.8843220
  C       -3.1225630    -1.1795470     0.9070330
  C       -3.7017300     0.1773150    -1.0087090
  C       -4.0153870    -0.8504980    -0.1174150
  H        4.0120030     1.4769520     0.5152690
  H        1.7375180     2.5038470     0.8013060
  H        2.0412640    -2.1246280    -0.7760920
  H        5.1157190    -1.1239590     0.5937180
  H        4.4318450    -2.1155640    -0.7023530
  H        5.1668890    -0.5502680    -1.0765200
  H       -1.2183070    -0.7290930     1.8393240
  H       -2.2288450     1.6771480    -1.5635320
  H       -3.3650020    -1.9773860     1.6048690
  H       -4.3932510     0.4394220    -1.8057380
  H       -4.9525670    -1.3919050    -0.2175730
units angstrom
no_reorient  #important for SAPT in psi4, default
symmetry c1  #important for SAPT in psi4, default
}

set PROPERTIES_ORIGIN ["COM"]
properties('MP2/aug-cc-pvtz', properties = ['dipole'])
--------------------------------------------------------------------------

    Molecular point group: c1
  Charge       = 0
  Multiplicity = 1
  Basis Set: AUG-CC-PVTZ
    Blend: AUG-CC-PVTZ
  Basis Set: (AUG-CC-PVTZ AUX)
    Blend: AUG-CC-PVTZ-JKFIT

    Orbital Energies [Eh]
    ---------------------

    Doubly Occupied:

       1A    -20.599194     2A    -15.563894     3A    -11.341553
       4A    -11.295989     5A    -11.277828     6A    -11.261967
       7A    -11.241942     8A    -11.238338     9A    -11.236999
      10A    -11.236899    11A    -11.236580    12A    -11.232386
      13A    -11.231641    14A    -11.230707    15A     -1.431310
      16A     -1.254677    17A     -1.146226    18A     -1.112745
      19A     -1.058333    20A     -1.015576    21A     -1.005555
      22A     -0.940675    23A     -0.879507    24A     -0.840399
      25A     -0.830344    26A     -0.801279    27A     -0.737422
      28A     -0.706708    29A     -0.680256    30A     -0.656971
      31A     -0.654775    32A     -0.627188    33A     -0.612458
      34A     -0.596029    35A     -0.591475    36A     -0.584057
      37A     -0.570021    38A     -0.564113    39A     -0.543979
      40A     -0.520010    41A     -0.511143    42A     -0.510281
      43A     -0.493033    44A     -0.475825    45A     -0.428743
      46A     -0.384159    47A     -0.335642    48A     -0.331530
      49A     -0.312527

  @DF-RHF Final Energy:  -590.31908107550112

   => Energetics <=

    Nuclear Repulsion Energy =            803.6092276734639199
    One-Electron Energy =               -2395.9148488949713283
    Two-Electron Energy =                1001.9865401460062913
    Total Energy =                       -590.3190810755011171
  Basis Set: (AUG-CC-PVTZ AUX)
    Blend: AUG-CC-PVTZ-RI
    Molecular point group: c1

    Geometry (in Angstrom), charge = 0, multiplicity = 1:

       Center              X                  Y                   Z               Mass
    ------------   -----------------  -----------------  -----------------  -----------------
         O           -0.437411397332     1.292662038474     0.295823689048    15.994914619570
         N            0.838280602668    -0.577372961526    -0.282297310952    14.003074004430
         C            3.259771602668    -0.447398961526    -0.163657310952    12.000000000000
         C            0.782300602668     0.677056038474     0.146686689048    12.000000000000
         C           -1.581092397332     0.506464038474     0.136272689048    12.000000000000
         C            3.153773602668     0.879223038474     0.286380689048    12.000000000000
         C            1.905234602668     1.459600038474     0.448943689048    12.000000000000
         C            2.066180602668    -1.117442961526    -0.427701310952    12.000000000000
         C            4.506492902668    -1.068869661526    -0.338557710952    12.000000000000
         C           -1.879915397332    -0.511885961526     1.040976689048    12.000000000000
         C           -2.457321397332     0.849014038474    -0.889337310952    12.000000000000
         C           -3.082806397332    -1.203360961526     0.902017689048    12.000000000000
         C           -3.661973397332     0.153501038474    -1.013724310952    12.000000000000
         C           -3.975630397332    -0.874311961526    -0.122430310952    12.000000000000
         H            4.051759602668     1.453138038474     0.510253689048     1.007825032230
         H            1.777274602668     2.480033038474     0.796290689048     1.007825032230
         H            2.081020602668    -2.148441961526    -0.781107310952     1.007825032230
         H            5.155475602668    -1.147772961526     0.588702689048     1.007825032230
         H            4.471601602668    -2.139377961526    -0.707368310952     1.007825032230
         H            5.206645602668    -0.574081961526    -1.081535310952     1.007825032230
         H           -1.178550397332    -0.752906961526     1.834308689048     1.007825032230
         H           -2.189088397332     1.653334038474    -1.568547310952     1.007825032230
         H           -3.325245397332    -2.001199961526     1.599853689048     1.007825032230
         H           -4.353494397332     0.415608038474    -1.810753310952     1.007825032230
         H           -4.912810397332    -1.415718961526    -0.222588310952     1.007825032230

  Basis Set: AUG-CC-PVTZ
    Blend: AUG-CC-PVTZ
  Basis Set: (AUG-CC-PVTZ AUX)
    Blend: AUG-CC-PVTZ-JKFIT
	 Reference Energy          =    -590.3190810755011171 [Eh]
	 Singles Energy            =      -0.0000000000000000 [Eh]
	 Same-Spin Energy          =      -0.6452667244388922 [Eh]
	 Opposite-Spin Energy      =      -1.9829957939994991 [Eh]
	 Correlation Energy        =      -2.6282625184383912 [Eh]
	 Total Energy              =    -592.9473435939395358 [Eh]

	 ================> DF-SCS-MP2 Energies <==================
	-----------------------------------------------------------
	 SCS Same-Spin Scale       =       0.3333333333333333 [-]
	 SCS Opposite-Spin Scale   =       1.2000000000000000 [-]
	 SCS Same-Spin Energy      =      -0.2150889081462974 [Eh]
	 SCS Opposite-Spin Energy  =      -2.3795949527993989 [Eh]
	 SCS Correlation Energy    =      -2.5946838609456964 [Eh]
	 SCS Total Energy          =    -592.9137649364467961 [Eh]
	-----------------------------------------------------------

  Dipole Moment: [D]
     X:     1.9897      Y:    -0.1696      Z:     0.1606     Total:     2.0034

*** Psi4 exiting successfully. Buy a developer a beer!
