                               Psi4 1.4a3.dev225

  ==> Input File <==

--------------------------------------------------------------------------
#psi4
#
memory 32 gb

molecule  {
0 1
  O       -0.4771680     1.3164760     0.3008390
  N        0.7985240    -0.5535590    -0.2772820
  C        3.2200150    -0.4235850    -0.1586420
  C        0.7425440     0.7008700     0.1517020
  C       -1.6208490     0.5302780     0.1412880
  C        3.1140170     0.9030370     0.2913960
  C        1.8654780     1.4834140     0.4539590
  C        2.0264240    -1.0936290    -0.4226860
  C        4.5555360    -1.0893210    -0.3460000
  C       -1.9196720    -0.4880720     1.0459920
  C       -2.4970780     0.8728280    -0.8843220
  C       -3.1225630    -1.1795470     0.9070330
  C       -3.7017300     0.1773150    -1.0087090
  C       -3.8876745    -0.8975663     0.0291254
  H        4.0120030     1.4769520     0.5152690
  H        1.7375180     2.5038470     0.8013060
  H        2.0412640    -2.1246280    -0.7760920
  H        5.1157190    -1.1239590     0.5937180
  H        4.4318450    -2.1155640    -0.7023530
  H        5.1668890    -0.5502680    -1.0765200
  H       -1.2183070    -0.7290930     1.8393240
  H       -2.2288450     1.6771480    -1.5635320
  H       -3.3650020    -1.9773860     1.6048690
  H       -4.3932510     0.4394220    -1.8057380
  H       -4.9525670    -1.3919050    -0.2175730
units angstrom
no_reorient  #important for SAPT in psi4, default
symmetry c1  #important for SAPT in psi4, default
}

set PROPERTIES_ORIGIN ["COM"]
properties('MP2/aug-cc-pvtz', properties = ['dipole'])
--------------------------------------------------------------------------

    Molecular point group: c1
  Charge       = 0
  Multiplicity = 1
  Basis Set: AUG-CC-PVTZ
    Blend: AUG-CC-PVTZ
  Basis Set: (AUG-CC-PVTZ AUX)
    Blend: AUG-CC-PVTZ-JKFIT

    Orbital Energies [Eh]
    ---------------------

    Doubly Occupied:

       1A    -20.597762     2A    -15.562637     3A    -11.340271
       4A    -11.293230     5A    -11.276911     6A    -11.261072
       7A    -11.246387     8A    -11.242764     9A    -11.240728
      10A    -11.233494    11A    -11.232499    12A    -11.230794
      13A    -11.225785    14A    -11.208340    15A     -1.429917
      16A     -1.252938    17A     -1.163143    18A     -1.102199
      19A     -1.058876    20A     -1.031644    21A     -0.993999
      22A     -0.943369    23A     -0.877704    24A     -0.850859
      25A     -0.824020    26A     -0.794465    27A     -0.738638
      28A     -0.704783    29A     -0.669474    30A     -0.659957
      31A     -0.641824    32A     -0.627295    33A     -0.610822
      34A     -0.606646    35A     -0.589746    36A     -0.586620
      37A     -0.570150    38A     -0.561023    39A     -0.548067
      40A     -0.526926    41A     -0.520797    42A     -0.507784
      43A     -0.486386    44A     -0.453400    45A     -0.427663
      46A     -0.383979    47A     -0.360969    48A     -0.326966
      49A     -0.307213

  @DF-RHF Final Energy:  -590.26908986302499

   => Energetics <=

    Nuclear Repulsion Energy =            804.2272710695870046
    One-Electron Energy =               -2397.1268510640907152
    Two-Electron Energy =                1002.6304901314787230
    Total Energy =                       -590.2690898630249876
  Basis Set: (AUG-CC-PVTZ AUX)
    Blend: AUG-CC-PVTZ-RI
    Molecular point group: c1

    Geometry (in Angstrom), charge = 0, multiplicity = 1:

       Center              X                  Y                   Z               Mass
    ------------   -----------------  -----------------  -----------------  -----------------
         O           -0.451449053217     1.298583689298     0.287130376585    15.994914619570
         N            0.824242946783    -0.571451310702    -0.290990623415    14.003074004430
         C            3.245733946783    -0.441477310702    -0.172350623415    12.000000000000
         C            0.768262946783     0.682977689298     0.137993376585    12.000000000000
         C           -1.595130053217     0.512385689298     0.127579376585    12.000000000000
         C            3.139735946783     0.885144689298     0.277687376585    12.000000000000
         C            1.891196946783     1.465521689298     0.440250376585    12.000000000000
         C            2.052142946783    -1.111521310702    -0.436394623415    12.000000000000
         C            4.581254946783    -1.107213310702    -0.359708623415    12.000000000000
         C           -1.893953053217    -0.505964310702     1.032283376585    12.000000000000
         C           -2.471359053217     0.854935689298    -0.898030623415    12.000000000000
         C           -3.096844053217    -1.197439310702     0.893324376585    12.000000000000
         C           -3.676011053217     0.159422689298    -1.022417623415    12.000000000000
         C           -3.861955553217    -0.915458610702     0.015416776585    12.000000000000
         H            4.037721946783     1.459059689298     0.501560376585     1.007825032230
         H            1.763236946783     2.485954689298     0.787597376585     1.007825032230
         H            2.066982946783    -2.142520310702    -0.789800623415     1.007825032230
         H            5.141437946783    -1.141851310702     0.580009376585     1.007825032230
         H            4.457563946783    -2.133456310702    -0.716061623415     1.007825032230
         H            5.192607946783    -0.568160310702    -1.090228623415     1.007825032230
         H           -1.192588053217    -0.746985310702     1.825615376585     1.007825032230
         H           -2.203126053217     1.659255689298    -1.577240623415     1.007825032230
         H           -3.339283053217    -1.995278310702     1.591160376585     1.007825032230
         H           -4.367532053217     0.421529689298    -1.819446623415     1.007825032230
         H           -4.926848053217    -1.409797310702    -0.231281623415     1.007825032230

  Basis Set: AUG-CC-PVTZ
    Blend: AUG-CC-PVTZ
  Basis Set: (AUG-CC-PVTZ AUX)
    Blend: AUG-CC-PVTZ-JKFIT
	 Reference Energy          =    -590.2690898630249876 [Eh]
	 Singles Energy            =      -0.0000000000000000 [Eh]
	 Same-Spin Energy          =      -0.6438140635227625 [Eh]
	 Opposite-Spin Energy      =      -1.9832677318513756 [Eh]
	 Correlation Energy        =      -2.6270817953741381 [Eh]
	 Total Energy              =    -592.8961716583991119 [Eh]

	 ================> DF-SCS-MP2 Energies <==================
	-----------------------------------------------------------
	 SCS Same-Spin Scale       =       0.3333333333333333 [-]
	 SCS Opposite-Spin Scale   =       1.2000000000000000 [-]
	 SCS Same-Spin Energy      =      -0.2146046878409208 [Eh]
	 SCS Opposite-Spin Energy  =      -2.3799212782216506 [Eh]
	 SCS Correlation Energy    =      -2.5945259660625712 [Eh]
	 SCS Total Energy          =    -592.8636158290875073 [Eh]
	-----------------------------------------------------------

  Dipole Moment: [D]
     X:     2.0218      Y:    -0.1210      Z:     0.1183     Total:     2.0289

*** Psi4 exiting successfully. Buy a developer a beer!
