                               Psi4 1.4a3.dev225

  ==> Input File <==

--------------------------------------------------------------------------
#psi4
#
memory 32 gb

molecule  {
0 1
  O       -0.4771680     1.3164760     0.3008390
  N        0.7985240    -0.5535590    -0.2772820
  C        3.2200150    -0.4235850    -0.1586420
  C        0.7425440     0.7008700     0.1517020
  C       -1.6208490     0.5302780     0.1412880
  C        3.1140170     0.9030370     0.2913960
  C        1.8654780     1.4834140     0.4539590
  C        2.0264240    -1.0936290    -0.4226860
  C        4.5555360    -1.0893210    -0.3460000
  C       -1.9196720    -0.4880720     1.0459920
  C       -2.4970780     0.8728280    -0.8843220
  C       -3.1225630    -1.1795470     0.9070330
  C       -3.7017300     0.1773150    -1.0087090
  C       -4.0153870    -0.8504980    -0.1174150
  H        4.0120030     1.4769520     0.5152690
  H        1.7375180     2.5038470     0.8013060
  H        2.0412640    -2.1246280    -0.7760920
  H        5.1157190    -1.1239590     0.5937180
  H        4.4318450    -2.1155640    -0.7023530
  H        5.1948167    -0.5256431    -1.1098915
  H       -1.2183070    -0.7290930     1.8393240
  H       -2.2288450     1.6771480    -1.5635320
  H       -3.3650020    -1.9773860     1.6048690
  H       -4.3932510     0.4394220    -1.8057380
  H       -4.9525670    -1.3919050    -0.2175730
units angstrom
no_reorient  #important for SAPT in psi4, default
symmetry c1  #important for SAPT in psi4, default
}

set PROPERTIES_ORIGIN ["COM"]
properties('MP2/aug-cc-pvtz', properties = ['dipole'])
--------------------------------------------------------------------------

    Molecular point group: c1
  Charge       = 0
  Multiplicity = 1
  Basis Set: AUG-CC-PVTZ
    Blend: AUG-CC-PVTZ
  Basis Set: (AUG-CC-PVTZ AUX)
    Blend: AUG-CC-PVTZ-JKFIT

    Orbital Energies [Eh]
    ---------------------

    Doubly Occupied:

       1A    -20.598760     2A    -15.563595     3A    -11.340982
       4A    -11.295763     5A    -11.277648     6A    -11.261614
       7A    -11.243626     8A    -11.241323     9A    -11.238694
      10A    -11.236825    11A    -11.236725    12A    -11.232180
      13A    -11.231433    14A    -11.230530    15A     -1.430906
      16A     -1.253695    17A     -1.145965    18A     -1.102446
      19A     -1.052825    20A     -1.015339    21A     -1.003545
      22A     -0.940162    23A     -0.877826    24A     -0.841626
      25A     -0.830577    26A     -0.800761    27A     -0.736952
      28A     -0.704709    29A     -0.679300    30A     -0.655614
      31A     -0.643202    32A     -0.626584    33A     -0.610908
      34A     -0.594774    35A     -0.591356    36A     -0.584497
      37A     -0.567044    38A     -0.562882    39A     -0.547257
      40A     -0.521601    41A     -0.512939    42A     -0.511720
      43A     -0.492792    44A     -0.477424    45A     -0.428362
      46A     -0.384498    47A     -0.335522    48A     -0.332383
      49A     -0.313641

  @DF-RHF Final Energy:  -590.32950924918373

   => Energetics <=

    Nuclear Repulsion Energy =            801.5011183897000819
    One-Electron Energy =               -2391.7785934756557253
    Two-Electron Energy =                 999.9479658367720276
    Total Energy =                       -590.3295092491837295
  Basis Set: (AUG-CC-PVTZ AUX)
    Blend: AUG-CC-PVTZ-RI
    Molecular point group: c1

    Geometry (in Angstrom), charge = 0, multiplicity = 1:

       Center              X                  Y                   Z               Mass
    ------------   -----------------  -----------------  -----------------  -----------------
         O           -0.443320834436     1.295397908859     0.296813098018    15.994914619570
         N            0.832371165564    -0.574637091141    -0.281307901982    14.003074004430
         C            3.253862165564    -0.444663091141    -0.162667901982    12.000000000000
         C            0.776391165564     0.679791908859     0.147676098018    12.000000000000
         C           -1.587001834436     0.509199908859     0.137262098018    12.000000000000
         C            3.147864165564     0.881958908859     0.287370098018    12.000000000000
         C            1.899325165564     1.462335908859     0.449933098018    12.000000000000
         C            2.060271165564    -1.114707091141    -0.426711901982    12.000000000000
         C            4.589383165564    -1.110399091141    -0.350025901982    12.000000000000
         C           -1.885824834436    -0.509150091141     1.041966098018    12.000000000000
         C           -2.463230834436     0.851749908859    -0.888347901982    12.000000000000
         C           -3.088715834436    -1.200625091141     0.903007098018    12.000000000000
         C           -3.667882834436     0.156236908859    -1.012734901982    12.000000000000
         C           -3.981539834436    -0.871576091141    -0.121440901982    12.000000000000
         H            4.045850165564     1.455873908859     0.511243098018     1.007825032230
         H            1.771365165564     2.482768908859     0.797280098018     1.007825032230
         H            2.075111165564    -2.145706091141    -0.780117901982     1.007825032230
         H            5.149566165564    -1.145037091141     0.589692098018     1.007825032230
         H            4.465692165564    -2.136642091141    -0.706378901982     1.007825032230
         H            5.228663865564    -0.546721191141    -1.113917401982     1.007825032230
         H           -1.184459834436    -0.750171091141     1.835298098018     1.007825032230
         H           -2.194997834436     1.656069908859    -1.567557901982     1.007825032230
         H           -3.331154834436    -1.998464091141     1.600843098018     1.007825032230
         H           -4.359403834436     0.418343908859    -1.809763901982     1.007825032230
         H           -4.918719834436    -1.412983091141    -0.221598901982     1.007825032230

  Basis Set: AUG-CC-PVTZ
    Blend: AUG-CC-PVTZ
  Basis Set: (AUG-CC-PVTZ AUX)
    Blend: AUG-CC-PVTZ-JKFIT
	 Reference Energy          =    -590.3295092491837295 [Eh]
	 Singles Energy            =      -0.0000000000000000 [Eh]
	 Same-Spin Energy          =      -0.6439810621657501 [Eh]
	 Opposite-Spin Energy      =      -1.9817839510715314 [Eh]
	 Correlation Energy        =      -2.6257650132372814 [Eh]
	 Total Energy              =    -592.9552742624209714 [Eh]

	 ================> DF-SCS-MP2 Energies <==================
	-----------------------------------------------------------
	 SCS Same-Spin Scale       =       0.3333333333333333 [-]
	 SCS Opposite-Spin Scale   =       1.2000000000000000 [-]
	 SCS Same-Spin Energy      =      -0.2146603540552500 [Eh]
	 SCS Opposite-Spin Energy  =      -2.3781407412858377 [Eh]
	 SCS Correlation Energy    =      -2.5928010953410876 [Eh]
	 SCS Total Energy          =    -592.9223103445248171 [Eh]
	-----------------------------------------------------------

  Dipole Moment: [D]
     X:     1.9873      Y:    -0.1861      Z:     0.1710     Total:     2.0033

*** Psi4 exiting successfully. Buy a developer a beer!
