                               Psi4 1.4a3.dev225

  ==> Input File <==

--------------------------------------------------------------------------
#psi4
#
memory 32 gb

molecule  {
0 1
  O       -0.4771680     1.3164760     0.3008390
  N        0.7985240    -0.5535590    -0.2772820
  C        3.2200150    -0.4235850    -0.1586420
  C        0.7425440     0.7008700     0.1517020
  C       -1.6208490     0.5302780     0.1412880
  C        3.1140170     0.9030370     0.2913960
  C        1.8654780     1.4834140     0.4539590
  C        2.0264240    -1.0936290    -0.4226860
  C        4.5555360    -1.0893210    -0.3460000
  C       -1.9196720    -0.4880720     1.0459920
  C       -2.4970780     0.8728280    -0.8843220
  C       -3.1225630    -1.1795470     0.9070330
  C       -3.7017300     0.1773150    -1.0087090
  C       -3.9942318    -0.8467082    -0.1059330
  H        4.0120030     1.4769520     0.5152690
  H        1.7375180     2.5038470     0.8013060
  H        2.0412640    -2.1246280    -0.7760920
  H        5.1157190    -1.1239590     0.5937180
  H        4.4318450    -2.1155640    -0.7023530
  H        5.1668890    -0.5502680    -1.0765200
  H       -1.2183070    -0.7290930     1.8393240
  H       -2.2288450     1.6771480    -1.5635320
  H       -3.3650020    -1.9773860     1.6048690
  H       -4.3932510     0.4394220    -1.8057380
  H       -4.9525670    -1.3919050    -0.2175730
units angstrom
no_reorient  #important for SAPT in psi4, default
symmetry c1  #important for SAPT in psi4, default
}

set PROPERTIES_ORIGIN ["COM"]
properties('MP2/aug-cc-pvtz', properties = ['dipole'])
--------------------------------------------------------------------------

    Molecular point group: c1
  Charge       = 0
  Multiplicity = 1
  Basis Set: AUG-CC-PVTZ
    Blend: AUG-CC-PVTZ
  Basis Set: (AUG-CC-PVTZ AUX)
    Blend: AUG-CC-PVTZ-JKFIT

    Orbital Energies [Eh]
    ---------------------

    Doubly Occupied:

       1A    -20.598339     2A    -15.563274     3A    -11.340595
       4A    -11.295045     5A    -11.277223     6A    -11.261354
       7A    -11.243126     8A    -11.241064     9A    -11.236542
      10A    -11.234321    11A    -11.232706    12A    -11.231927
      13A    -11.231494    14A    -11.229916    15A     -1.430500
      16A     -1.253362    17A     -1.148024    18A     -1.102538
      19A     -1.053216    20A     -1.016454    21A     -1.003885
      22A     -0.942829    23A     -0.877359    24A     -0.842813
      25A     -0.830781    26A     -0.800186    27A     -0.737141
      28A     -0.704647    29A     -0.676390    30A     -0.656281
      31A     -0.642970    32A     -0.626725    33A     -0.611055
      34A     -0.595272    35A     -0.592698    36A     -0.586696
      37A     -0.569639    38A     -0.562882    39A     -0.549229
      40A     -0.521023    41A     -0.515196    42A     -0.506204
      43A     -0.494285    44A     -0.478626    45A     -0.428149
      46A     -0.384372    47A     -0.336109    48A     -0.332953
      49A     -0.313585

  @DF-RHF Final Energy:  -590.33090206278621

   => Energetics <=

    Nuclear Repulsion Energy =            802.1687913311496914
    One-Electron Energy =               -2393.1173919811635642
    Two-Electron Energy =                1000.6176985872275509
    Total Energy =                       -590.3309020627862083
  Basis Set: (AUG-CC-PVTZ AUX)
    Blend: AUG-CC-PVTZ-RI
    Molecular point group: c1

    Geometry (in Angstrom), charge = 0, multiplicity = 1:

       Center              X                  Y                   Z               Mass
    ------------   -----------------  -----------------  -----------------  -----------------
         O           -0.444540367658     1.295286283855     0.295886942468    15.994914619570
         N            0.831151632342    -0.574748716145    -0.282234057532    14.003074004430
         C            3.252642632342    -0.444774716145    -0.163594057532    12.000000000000
         C            0.775171632342     0.679680283855     0.146749942468    12.000000000000
         C           -1.588221367658     0.509088283855     0.136335942468    12.000000000000
         C            3.146644632342     0.881847283855     0.286443942468    12.000000000000
         C            1.898105632342     1.462224283855     0.449006942468    12.000000000000
         C            2.059051632342    -1.114818716145    -0.427638057532    12.000000000000
         C            4.588163632342    -1.110510716145    -0.350952057532    12.000000000000
         C           -1.887044367658    -0.509261716145     1.041039942468    12.000000000000
         C           -2.464450367658     0.851638283855    -0.889274057532    12.000000000000
         C           -3.089935367658    -1.200736716145     0.902080942468    12.000000000000
         C           -3.669102367658     0.156125283855    -1.013661057532    12.000000000000
         C           -3.961604167658    -0.867897916145    -0.110885057532    12.000000000000
         H            4.044630632342     1.455762283855     0.510316942468     1.007825032230
         H            1.770145632342     2.482657283855     0.796353942468     1.007825032230
         H            2.073891632342    -2.145817716145    -0.781044057532     1.007825032230
         H            5.148346632342    -1.145148716145     0.588765942468     1.007825032230
         H            4.464472632342    -2.136753716145    -0.707305057532     1.007825032230
         H            5.199516632342    -0.571457716145    -1.081472057532     1.007825032230
         H           -1.185679367658    -0.750282716145     1.834371942468     1.007825032230
         H           -2.196217367658     1.655958283855    -1.568484057532     1.007825032230
         H           -3.332374367658    -1.998575716145     1.599916942468     1.007825032230
         H           -4.360623367658     0.418232283855    -1.810690057532     1.007825032230
         H           -4.919939367658    -1.413094716145    -0.222525057532     1.007825032230

  Basis Set: AUG-CC-PVTZ
    Blend: AUG-CC-PVTZ
  Basis Set: (AUG-CC-PVTZ AUX)
    Blend: AUG-CC-PVTZ-JKFIT
	 Reference Energy          =    -590.3309020627862083 [Eh]
	 Singles Energy            =      -0.0000000000000000 [Eh]
	 Same-Spin Energy          =      -0.6440582711633139 [Eh]
	 Opposite-Spin Energy      =      -1.9814520572797434 [Eh]
	 Correlation Energy        =      -2.6255103284430574 [Eh]
	 Total Energy              =    -592.9564123912292644 [Eh]

	 ================> DF-SCS-MP2 Energies <==================
	-----------------------------------------------------------
	 SCS Same-Spin Scale       =       0.3333333333333333 [-]
	 SCS Opposite-Spin Scale   =       1.2000000000000000 [-]
	 SCS Same-Spin Energy      =      -0.2146860903877713 [Eh]
	 SCS Opposite-Spin Energy  =      -2.3777424687356921 [Eh]
	 SCS Correlation Energy    =      -2.5924285591234635 [Eh]
	 SCS Total Energy          =    -592.9233306219097130 [Eh]
	-----------------------------------------------------------

  Dipole Moment: [D]
     X:     2.0156      Y:    -0.1778      Z:     0.1540     Total:     2.0292

*** Psi4 exiting successfully. Buy a developer a beer!
