                               Psi4 1.4a3.dev225

  ==> Input File <==

--------------------------------------------------------------------------
#psi4
#
memory 32 gb

molecule  {
0 1
  O       -0.4771680     1.3164760     0.3008390
  N        0.7985240    -0.5535590    -0.2772820
  C        3.2447326    -0.4107608    -0.0574271
  C        0.7425440     0.7008700     0.1517020
  C       -1.6208490     0.5302780     0.1412880
  C        3.1140170     0.9030370     0.2913960
  C        1.8654780     1.4834140     0.4539590
  C        2.0264240    -1.0936290    -0.4226860
  C        4.5555360    -1.0893210    -0.3460000
  C       -1.9196720    -0.4880720     1.0459920
  C       -2.4970780     0.8728280    -0.8843220
  C       -3.1225630    -1.1795470     0.9070330
  C       -3.7017300     0.1773150    -1.0087090
  C       -4.0153870    -0.8504980    -0.1174150
  H        4.0120030     1.4769520     0.5152690
  H        1.7375180     2.5038470     0.8013060
  H        2.0412640    -2.1246280    -0.7760920
  H        5.1157190    -1.1239590     0.5937180
  H        4.4318450    -2.1155640    -0.7023530
  H        5.1668890    -0.5502680    -1.0765200
  H       -1.2183070    -0.7290930     1.8393240
  H       -2.2288450     1.6771480    -1.5635320
  H       -3.3650020    -1.9773860     1.6048690
  H       -4.3932510     0.4394220    -1.8057380
  H       -4.9525670    -1.3919050    -0.2175730
units angstrom
no_reorient  #important for SAPT in psi4, default
symmetry c1  #important for SAPT in psi4, default
}

set PROPERTIES_ORIGIN ["COM"]
properties('MP2/aug-cc-pvtz', properties = ['dipole'])
--------------------------------------------------------------------------

    Molecular point group: c1
  Charge       = 0
  Multiplicity = 1
  Basis Set: AUG-CC-PVTZ
    Blend: AUG-CC-PVTZ
  Basis Set: (AUG-CC-PVTZ AUX)
    Blend: AUG-CC-PVTZ-JKFIT

    Orbital Energies [Eh]
    ---------------------

    Doubly Occupied:

       1A    -20.597686     2A    -15.565929     3A    -11.339527
       4A    -11.295538     5A    -11.285969     6A    -11.255707
       7A    -11.244802     8A    -11.238922     9A    -11.236796
      10A    -11.236690    11A    -11.233130    12A    -11.232050
      13A    -11.231212    14A    -11.230421    15A     -1.430061
      16A     -1.253653    17A     -1.145792    18A     -1.107053
      19A     -1.049873    20A     -1.015260    21A     -1.003318
      22A     -0.942238    23A     -0.876925    24A     -0.843305
      25A     -0.831245    26A     -0.798456    27A     -0.736728
      28A     -0.703433    29A     -0.679296    30A     -0.655257
      31A     -0.644422    32A     -0.626479    33A     -0.610236
      34A     -0.593823    35A     -0.592069    36A     -0.586384
      37A     -0.570892    38A     -0.558642    39A     -0.547459
      40A     -0.530376    41A     -0.513275    42A     -0.511657
      43A     -0.492525    44A     -0.476898    45A     -0.425674
      46A     -0.388312    47A     -0.335344    48A     -0.330895
      49A     -0.310281

  @DF-RHF Final Energy:  -590.32460031775963

   => Energetics <=

    Nuclear Repulsion Energy =            801.4963751994192762
    One-Electron Energy =               -2391.7581203304471273
    Two-Electron Energy =                 999.9371448132683327
    Total Energy =                       -590.3246003177596322
  Basis Set: (AUG-CC-PVTZ AUX)
    Blend: AUG-CC-PVTZ-RI
    Molecular point group: c1

    Geometry (in Angstrom), charge = 0, multiplicity = 1:

       Center              X                  Y                   Z               Mass
    ------------   -----------------  -----------------  -----------------  -----------------
         O           -0.444771337300     1.294700534884     0.290069073674    15.994914619570
         N            0.830920662700    -0.575334465116    -0.288051926326    14.003074004430
         C            3.277129262700    -0.432536265116    -0.068197026326    12.000000000000
         C            0.774940662700     0.679094534884     0.140932073674    12.000000000000
         C           -1.588452337300     0.508502534884     0.130518073674    12.000000000000
         C            3.146413662700     0.881261534884     0.280626073674    12.000000000000
         C            1.897874662700     1.461638534884     0.443189073674    12.000000000000
         C            2.058820662700    -1.115404465116    -0.433455926326    12.000000000000
         C            4.587932662700    -1.111096465116    -0.356769926326    12.000000000000
         C           -1.887275337300    -0.509847465116     1.035222073674    12.000000000000
         C           -2.464681337300     0.851052534884    -0.895091926326    12.000000000000
         C           -3.090166337300    -1.201322465116     0.896263073674    12.000000000000
         C           -3.669333337300     0.155539534884    -1.019478926326    12.000000000000
         C           -3.982990337300    -0.872273465116    -0.128184926326    12.000000000000
         H            4.044399662700     1.455176534884     0.504499073674     1.007825032230
         H            1.769914662700     2.482071534884     0.790536073674     1.007825032230
         H            2.073660662700    -2.146403465116    -0.786861926326     1.007825032230
         H            5.148115662700    -1.145734465116     0.582948073674     1.007825032230
         H            4.464241662700    -2.137339465116    -0.713122926326     1.007825032230
         H            5.199285662700    -0.572043465116    -1.087289926326     1.007825032230
         H           -1.185910337300    -0.750868465116     1.828554073674     1.007825032230
         H           -2.196448337300     1.655372534884    -1.574301926326     1.007825032230
         H           -3.332605337300    -1.999161465116     1.594099073674     1.007825032230
         H           -4.360854337300     0.417646534884    -1.816507926326     1.007825032230
         H           -4.920170337300    -1.413680465116    -0.228342926326     1.007825032230

  Basis Set: AUG-CC-PVTZ
    Blend: AUG-CC-PVTZ
  Basis Set: (AUG-CC-PVTZ AUX)
    Blend: AUG-CC-PVTZ-JKFIT
	 Reference Energy          =    -590.3246003177596322 [Eh]
	 Singles Energy            =      -0.0000000000000000 [Eh]
	 Same-Spin Energy          =      -0.6445102065343572 [Eh]
	 Opposite-Spin Energy      =      -1.9822814581255901 [Eh]
	 Correlation Energy        =      -2.6267916646599474 [Eh]
	 Total Energy              =    -592.9513919824196364 [Eh]

	 ================> DF-SCS-MP2 Energies <==================
	-----------------------------------------------------------
	 SCS Same-Spin Scale       =       0.3333333333333333 [-]
	 SCS Opposite-Spin Scale   =       1.2000000000000000 [-]
	 SCS Same-Spin Energy      =      -0.2148367355114524 [Eh]
	 SCS Opposite-Spin Energy  =      -2.3787377497507078 [Eh]
	 SCS Correlation Energy    =      -2.5935744852621601 [Eh]
	 SCS Total Energy          =    -592.9181748030217705 [Eh]
	-----------------------------------------------------------

  Dipole Moment: [D]
     X:     2.0077      Y:    -0.2421      Z:     0.1065     Total:     2.0251

*** Psi4 exiting successfully. Buy a developer a beer!
