                               Psi4 1.4a3.dev225

  ==> Input File <==

--------------------------------------------------------------------------
#psi4
#
memory 32 gb

molecule  {
0 1
  O       -0.4771680     1.3164760     0.3008390
  N        0.7985240    -0.5535590    -0.2772820
  C        3.2200150    -0.4235850    -0.1586420
  C        0.7425440     0.7008700     0.1517020
  C       -1.6208490     0.5302780     0.1412880
  C        3.1155260     0.8841511     0.2849892
  C        1.8654780     1.4834140     0.4539590
  C        2.0264240    -1.0936290    -0.4226860
  C        4.5555360    -1.0893210    -0.3460000
  C       -1.9196720    -0.4880720     1.0459920
  C       -2.4970780     0.8728280    -0.8843220
  C       -3.1225630    -1.1795470     0.9070330
  C       -3.7017300     0.1773150    -1.0087090
  C       -4.0153870    -0.8504980    -0.1174150
  H        4.0120030     1.4769520     0.5152690
  H        1.7375180     2.5038470     0.8013060
  H        2.0412640    -2.1246280    -0.7760920
  H        5.1157190    -1.1239590     0.5937180
  H        4.4318450    -2.1155640    -0.7023530
  H        5.1668890    -0.5502680    -1.0765200
  H       -1.2183070    -0.7290930     1.8393240
  H       -2.2288450     1.6771480    -1.5635320
  H       -3.3650020    -1.9773860     1.6048690
  H       -4.3932510     0.4394220    -1.8057380
  H       -4.9525670    -1.3919050    -0.2175730
units angstrom
no_reorient  #important for SAPT in psi4, default
symmetry c1  #important for SAPT in psi4, default
}

set PROPERTIES_ORIGIN ["COM"]
properties('MP2/aug-cc-pvtz', properties = ['dipole'])
--------------------------------------------------------------------------

    Molecular point group: c1
  Charge       = 0
  Multiplicity = 1
  Basis Set: AUG-CC-PVTZ
    Blend: AUG-CC-PVTZ
  Basis Set: (AUG-CC-PVTZ AUX)
    Blend: AUG-CC-PVTZ-JKFIT

    Orbital Energies [Eh]
    ---------------------

    Doubly Occupied:

       1A    -20.598070     2A    -15.563863     3A    -11.340039
       4A    -11.295487     5A    -11.278617     6A    -11.261012
       7A    -11.241588     8A    -11.241347     9A    -11.236669
      10A    -11.236569    11A    -11.232905    12A    -11.231966
      13A    -11.231206    14A    -11.230352    15A     -1.430349
      16A     -1.254162    17A     -1.145773    18A     -1.104623
      19A     -1.052220    20A     -1.015164    21A     -1.003236
      22A     -0.943464    23A     -0.878040    24A     -0.842894
      25A     -0.830822    26A     -0.800136    27A     -0.736150
      28A     -0.705159    29A     -0.679161    30A     -0.655310
      31A     -0.643619    32A     -0.626280    33A     -0.610601
      34A     -0.594554    35A     -0.592261    36A     -0.586330
      37A     -0.569591    38A     -0.560252    39A     -0.549616
      40A     -0.523605    41A     -0.513697    42A     -0.511573
      43A     -0.492545    44A     -0.477806    45A     -0.428405
      46A     -0.384241    47A     -0.335338    48A     -0.332662
      49A     -0.313922

  @DF-RHF Final Energy:  -590.33101655062126

   => Energetics <=

    Nuclear Repulsion Energy =            801.9340325509418790
    One-Electron Energy =               -2392.6436050696906932
    Two-Electron Energy =                1000.3785559681274435
    Total Energy =                       -590.3310165506212570
  Basis Set: (AUG-CC-PVTZ AUX)
    Blend: AUG-CC-PVTZ-RI
    Molecular point group: c1

    Geometry (in Angstrom), charge = 0, multiplicity = 1:

       Center              X                  Y                   Z               Mass
    ------------   -----------------  -----------------  -----------------  -----------------
         O           -0.443266598351     1.296756472018     0.297046770037    15.994914619570
         N            0.832425401649    -0.573278527982    -0.281074229963    14.003074004430
         C            3.253916401649    -0.443304527982    -0.162434229963    12.000000000000
         C            0.776445401649     0.681150472018     0.147909770037    12.000000000000
         C           -1.586947598351     0.510558472018     0.137495770037    12.000000000000
         C            3.149427401649     0.864431572018     0.281196970037    12.000000000000
         C            1.899379401649     1.463694472018     0.450166770037    12.000000000000
         C            2.060325401649    -1.113348527982    -0.426478229963    12.000000000000
         C            4.589437401649    -1.109040527982    -0.349792229963    12.000000000000
         C           -1.885770598351    -0.507791527982     1.042199770037    12.000000000000
         C           -2.463176598351     0.853108472018    -0.888114229963    12.000000000000
         C           -3.088661598351    -1.199266527982     0.903240770037    12.000000000000
         C           -3.667828598351     0.157595472018    -1.012501229963    12.000000000000
         C           -3.981485598351    -0.870217527982    -0.121207229963    12.000000000000
         H            4.045904401649     1.457232472018     0.511476770037     1.007825032230
         H            1.771419401649     2.484127472018     0.797513770037     1.007825032230
         H            2.075165401649    -2.144347527982    -0.779884229963     1.007825032230
         H            5.149620401649    -1.143678527982     0.589925770037     1.007825032230
         H            4.465746401649    -2.135283527982    -0.706145229963     1.007825032230
         H            5.200790401649    -0.569987527982    -1.080312229963     1.007825032230
         H           -1.184405598351    -0.748812527982     1.835531770037     1.007825032230
         H           -2.194943598351     1.657428472018    -1.567324229963     1.007825032230
         H           -3.331100598351    -1.997105527982     1.601076770037     1.007825032230
         H           -4.359349598351     0.419702472018    -1.809530229963     1.007825032230
         H           -4.918665598351    -1.411624527982    -0.221365229963     1.007825032230

  Basis Set: AUG-CC-PVTZ
    Blend: AUG-CC-PVTZ
  Basis Set: (AUG-CC-PVTZ AUX)
    Blend: AUG-CC-PVTZ-JKFIT
	 Reference Energy          =    -590.3310165506212570 [Eh]
	 Singles Energy            =      -0.0000000000000000 [Eh]
	 Same-Spin Energy          =      -0.6441125282465651 [Eh]
	 Opposite-Spin Energy      =      -1.9815064339619235 [Eh]
	 Correlation Energy        =      -2.6256189622084887 [Eh]
	 Total Energy              =    -592.9566355128297346 [Eh]

	 ================> DF-SCS-MP2 Energies <==================
	-----------------------------------------------------------
	 SCS Same-Spin Scale       =       0.3333333333333333 [-]
	 SCS Opposite-Spin Scale   =       1.2000000000000000 [-]
	 SCS Same-Spin Energy      =      -0.2147041760821883 [Eh]
	 SCS Opposite-Spin Energy  =      -2.3778077207543080 [Eh]
	 SCS Correlation Energy    =      -2.5925118968364962 [Eh]
	 SCS Total Energy          =    -592.9235284474577838 [Eh]
	-----------------------------------------------------------

  Dipole Moment: [D]
     X:     2.0162      Y:    -0.1980      Z:     0.1507     Total:     2.0315

*** Psi4 exiting successfully. Buy a developer a beer!
