                               Psi4 1.4a3.dev225

  ==> Input File <==

--------------------------------------------------------------------------
#psi4
#
memory 32 gb

molecule  {
0 1
  O       -0.4771680     1.3164760     0.3008390
  N        0.7985240    -0.5535590    -0.2772820
  C        3.2200150    -0.4235850    -0.1586420
  C        0.7425440     0.7008700     0.1517020
  C       -1.6208490     0.5302780     0.1412880
  C        3.1140170     0.9030370     0.2913960
  C        1.8654780     1.4834140     0.4539590
  C        2.0264240    -1.0936290    -0.4226860
  C        4.5555360    -1.0893210    -0.3460000
  C       -1.9196720    -0.4880720     1.0459920
  C       -2.4970780     0.8728280    -0.8843220
  C       -3.1225630    -1.1795470     0.9070330
  C       -3.7017300     0.1773150    -1.0087090
  C       -4.0153870    -0.8504980    -0.1174150
  H        4.0120030     1.4769520     0.5152690
  H        1.7375180     2.5038470     0.8013060
  H        2.0412640    -2.1246280    -0.7760920
  H        5.1668975    -1.1271235     0.6795710
  H        4.4318450    -2.1155640    -0.7023530
  H        5.1668890    -0.5502680    -1.0765200
  H       -1.2183070    -0.7290930     1.8393240
  H       -2.2288450     1.6771480    -1.5635320
  H       -3.3650020    -1.9773860     1.6048690
  H       -4.3932510     0.4394220    -1.8057380
  H       -4.9525670    -1.3919050    -0.2175730
units angstrom
no_reorient  #important for SAPT in psi4, default
symmetry c1  #important for SAPT in psi4, default
}

set PROPERTIES_ORIGIN ["COM"]
properties('MP2/aug-cc-pvtz', properties = ['dipole'])
--------------------------------------------------------------------------

    Molecular point group: c1
  Charge       = 0
  Multiplicity = 1
  Basis Set: AUG-CC-PVTZ
    Blend: AUG-CC-PVTZ
  Basis Set: (AUG-CC-PVTZ AUX)
    Blend: AUG-CC-PVTZ-JKFIT

    Orbital Energies [Eh]
    ---------------------

    Doubly Occupied:

       1A    -20.598989     2A    -15.563833     3A    -11.341301
       4A    -11.295889     5A    -11.278068     6A    -11.261850
       7A    -11.244668     8A    -11.243871     9A    -11.241521
      10A    -11.236927    11A    -11.236827    12A    -11.232291
      13A    -11.231556    14A    -11.230634    15A     -1.431122
      16A     -1.253972    17A     -1.146082    18A     -1.102402
      19A     -1.052760    20A     -1.015443    21A     -1.003419
      22A     -0.937922    23A     -0.878023    24A     -0.841249
      25A     -0.830549    26A     -0.800713    27A     -0.737124
      28A     -0.704784    29A     -0.679445    30A     -0.655702
      31A     -0.643339    32A     -0.626787    33A     -0.611415
      34A     -0.595235    35A     -0.590240    36A     -0.581957
      37A     -0.567778    38A     -0.562112    39A     -0.542475
      40A     -0.522058    41A     -0.513111    42A     -0.511156
      43A     -0.492884    44A     -0.477026    45A     -0.428536
      46A     -0.384575    47A     -0.335633    48A     -0.332467
      49A     -0.313696

  @DF-RHF Final Energy:  -590.32517226272842

   => Energetics <=

    Nuclear Repulsion Energy =            801.2978482343236237
    One-Electron Energy =               -2391.3632023372706499
    Two-Electron Energy =                 999.7401818402184972
    Total Energy =                       -590.3251722627284153
  Basis Set: (AUG-CC-PVTZ AUX)
    Blend: AUG-CC-PVTZ-RI
    Molecular point group: c1

    Geometry (in Angstrom), charge = 0, multiplicity = 1:

       Center              X                  Y                   Z               Mass
    ------------   -----------------  -----------------  -----------------  -----------------
         O           -0.443447440357     1.295549228494     0.296163893365    15.994914619570
         N            0.832244559643    -0.574485771506    -0.281957106635    14.003074004430
         C            3.253735559643    -0.444511771506    -0.163317106635    12.000000000000
         C            0.776264559643     0.679943228494     0.147026893365    12.000000000000
         C           -1.587128440357     0.509351228494     0.136612893365    12.000000000000
         C            3.147737559643     0.882110228494     0.286720893365    12.000000000000
         C            1.899198559643     1.462487228494     0.449283893365    12.000000000000
         C            2.060144559643    -1.114555771506    -0.427361106635    12.000000000000
         C            4.589256559643    -1.110247771506    -0.350675106635    12.000000000000
         C           -1.885951440357    -0.508998771506     1.041316893365    12.000000000000
         C           -2.463357440357     0.851901228494    -0.888997106635    12.000000000000
         C           -3.088842440357    -1.200473771506     0.902357893365    12.000000000000
         C           -3.668009440357     0.156388228494    -1.013384106635    12.000000000000
         C           -3.981666440357    -0.871424771506    -0.122090106635    12.000000000000
         H            4.045723559643     1.456025228494     0.510593893365     1.007825032230
         H            1.771238559643     2.482920228494     0.796630893365     1.007825032230
         H            2.074984559643    -2.145554771506    -0.780767106635     1.007825032230
         H            5.200618059643    -1.148050271506     0.674895893365     1.007825032230
         H            4.465565559643    -2.136490771506    -0.707028106635     1.007825032230
         H            5.200609559643    -0.571194771506    -1.081195106635     1.007825032230
         H           -1.184586440357    -0.750019771506     1.834648893365     1.007825032230
         H           -2.195124440357     1.656221228494    -1.568207106635     1.007825032230
         H           -3.331281440357    -1.998312771506     1.600193893365     1.007825032230
         H           -4.359530440357     0.418495228494    -1.810413106635     1.007825032230
         H           -4.918846440357    -1.412831771506    -0.222248106635     1.007825032230

  Basis Set: AUG-CC-PVTZ
    Blend: AUG-CC-PVTZ
  Basis Set: (AUG-CC-PVTZ AUX)
    Blend: AUG-CC-PVTZ-JKFIT
	 Reference Energy          =    -590.3251722627284153 [Eh]
	 Singles Energy            =      -0.0000000000000000 [Eh]
	 Same-Spin Energy          =      -0.6439611308916097 [Eh]
	 Opposite-Spin Energy      =      -1.9821213308607510 [Eh]
	 Correlation Energy        =      -2.6260824617523606 [Eh]
	 Total Energy              =    -592.9512547244808047 [Eh]

	 ================> DF-SCS-MP2 Energies <==================
	-----------------------------------------------------------
	 SCS Same-Spin Scale       =       0.3333333333333333 [-]
	 SCS Opposite-Spin Scale   =       1.2000000000000000 [-]
	 SCS Same-Spin Energy      =      -0.2146537102972032 [Eh]
	 SCS Opposite-Spin Energy  =      -2.3785455970329012 [Eh]
	 SCS Correlation Energy    =      -2.5931993073301043 [Eh]
	 SCS Total Energy          =    -592.9183715700585253 [Eh]
	-----------------------------------------------------------

  Dipole Moment: [D]
     X:     1.9541      Y:    -0.1671      Z:     0.1246     Total:     1.9652

*** Psi4 exiting successfully. Buy a developer a beer!
