                               Psi4 1.4a3.dev225

  ==> Input File <==

--------------------------------------------------------------------------
#psi4
#
memory 32 gb

molecule  {
0 1
  O       -0.4771680     1.3164760     0.3008390
  N        0.7985240    -0.5535590    -0.2772820
  C        3.2200150    -0.4235850    -0.1586420
  C        0.7425440     0.7008700     0.1517020
  C       -1.6208490     0.5302780     0.1412880
  C        3.1140170     0.9030370     0.2913960
  C        1.8654780     1.4834140     0.4539590
  C        2.0264240    -1.0936290    -0.4226860
  C        4.5555360    -1.0893210    -0.3460000
  C       -1.9196720    -0.4880720     1.0459920
  C       -2.4970780     0.8728280    -0.8843220
  C       -3.1074414    -1.1620814     0.8991735
  C       -3.7017300     0.1773150    -1.0087090
  C       -4.0153870    -0.8504980    -0.1174150
  H        4.0120030     1.4769520     0.5152690
  H        1.7375180     2.5038470     0.8013060
  H        2.0412640    -2.1246280    -0.7760920
  H        5.1157190    -1.1239590     0.5937180
  H        4.4318450    -2.1155640    -0.7023530
  H        5.1668890    -0.5502680    -1.0765200
  H       -1.2183070    -0.7290930     1.8393240
  H       -2.2288450     1.6771480    -1.5635320
  H       -3.3650020    -1.9773860     1.6048690
  H       -4.3932510     0.4394220    -1.8057380
  H       -4.9525670    -1.3919050    -0.2175730
units angstrom
no_reorient  #important for SAPT in psi4, default
symmetry c1  #important for SAPT in psi4, default
}

set PROPERTIES_ORIGIN ["COM"]
properties('MP2/aug-cc-pvtz', properties = ['dipole'])
--------------------------------------------------------------------------

    Molecular point group: c1
  Charge       = 0
  Multiplicity = 1
  Basis Set: AUG-CC-PVTZ
    Blend: AUG-CC-PVTZ
  Basis Set: (AUG-CC-PVTZ AUX)
    Blend: AUG-CC-PVTZ-JKFIT

    Orbital Energies [Eh]
    ---------------------

    Doubly Occupied:

       1A    -20.598629     2A    -15.563541     3A    -11.340834
       4A    -11.295913     5A    -11.277395     6A    -11.261515
       7A    -11.243304     8A    -11.241247     9A    -11.236616
      10A    -11.236035    11A    -11.232818    12A    -11.230683
      13A    -11.230089    14A    -11.229820    15A     -1.430834
      16A     -1.253594    17A     -1.148048    18A     -1.102713
      19A     -1.053089    20A     -1.017331    21A     -1.003562
      22A     -0.942982    23A     -0.878049    24A     -0.842118
      25A     -0.829176    26A     -0.801441    27A     -0.736491
      28A     -0.704762    29A     -0.680110    30A     -0.656477
      31A     -0.643193    32A     -0.624471    33A     -0.610934
      34A     -0.594292    35A     -0.591483    36A     -0.585608
      37A     -0.570389    38A     -0.563511    39A     -0.549727
      40A     -0.521383    41A     -0.515858    42A     -0.511117
      43A     -0.492906    44A     -0.475816    45A     -0.428354
      46A     -0.384567    47A     -0.337664    48A     -0.331954
      49A     -0.313479

  @DF-RHF Final Energy:  -590.33098231682720

   => Energetics <=

    Nuclear Repulsion Energy =            802.1980105184305785
    One-Electron Energy =               -2393.1661438324535993
    Two-Electron Energy =                1000.6371509971957039
    Total Energy =                       -590.3309823168272032
  Basis Set: (AUG-CC-PVTZ AUX)
    Blend: AUG-CC-PVTZ-RI
    Molecular point group: c1

    Geometry (in Angstrom), charge = 0, multiplicity = 1:

       Center              X                  Y                   Z               Mass
    ------------   -----------------  -----------------  -----------------  -----------------
         O           -0.444149176766     1.294399607842     0.297140956428    15.994914619570
         N            0.831542823234    -0.575635392158    -0.280980043572    14.003074004430
         C            3.253033823234    -0.445661392158    -0.162340043572    12.000000000000
         C            0.775562823234     0.678793607842     0.148003956428    12.000000000000
         C           -1.587830176766     0.508201607842     0.137589956428    12.000000000000
         C            3.147035823234     0.880960607842     0.287697956428    12.000000000000
         C            1.898496823234     1.461337607842     0.450260956428    12.000000000000
         C            2.059442823234    -1.115705392158    -0.426384043572    12.000000000000
         C            4.588554823234    -1.111397392158    -0.349698043572    12.000000000000
         C           -1.886653176766    -0.510148392158     1.042293956428    12.000000000000
         C           -2.464059176766     0.850751607842    -0.888020043572    12.000000000000
         C           -3.074422576766    -1.184157792158     0.895475456428    12.000000000000
         C           -3.668711176766     0.155238607842    -1.012407043572    12.000000000000
         C           -3.982368176766    -0.872574392158    -0.121113043572    12.000000000000
         H            4.045021823234     1.454875607842     0.511570956428     1.007825032230
         H            1.770536823234     2.481770607842     0.797607956428     1.007825032230
         H            2.074282823234    -2.146704392158    -0.779790043572     1.007825032230
         H            5.148737823234    -1.146035392158     0.590019956428     1.007825032230
         H            4.464863823234    -2.137640392158    -0.706051043572     1.007825032230
         H            5.199907823234    -0.572344392158    -1.080218043572     1.007825032230
         H           -1.185288176766    -0.751169392158     1.835625956428     1.007825032230
         H           -2.195826176766     1.655071607842    -1.567230043572     1.007825032230
         H           -3.331983176766    -1.999462392158     1.601170956428     1.007825032230
         H           -4.360232176766     0.417345607842    -1.809436043572     1.007825032230
         H           -4.919548176766    -1.413981392158    -0.221271043572     1.007825032230

  Basis Set: AUG-CC-PVTZ
    Blend: AUG-CC-PVTZ
  Basis Set: (AUG-CC-PVTZ AUX)
    Blend: AUG-CC-PVTZ-JKFIT
	 Reference Energy          =    -590.3309823168272032 [Eh]
	 Singles Energy            =      -0.0000000000000000 [Eh]
	 Same-Spin Energy          =      -0.6440029202942530 [Eh]
	 Opposite-Spin Energy      =      -1.9813943351919010 [Eh]
	 Correlation Energy        =      -2.6253972554861540 [Eh]
	 Total Energy              =    -592.9563795723133808 [Eh]

	 ================> DF-SCS-MP2 Energies <==================
	-----------------------------------------------------------
	 SCS Same-Spin Scale       =       0.3333333333333333 [-]
	 SCS Opposite-Spin Scale   =       1.2000000000000000 [-]
	 SCS Same-Spin Energy      =      -0.2146676400980843 [Eh]
	 SCS Opposite-Spin Energy  =      -2.3776732022302811 [Eh]
	 SCS Correlation Energy    =      -2.5923408423283654 [Eh]
	 SCS Total Energy          =    -592.9233231591555295 [Eh]
	-----------------------------------------------------------

  Dipole Moment: [D]
     X:     2.0211      Y:    -0.1738      Z:     0.1502     Total:     2.0342

*** Psi4 exiting successfully. Buy a developer a beer!
