                               Psi4 1.4a3.dev225

  ==> Input File <==

--------------------------------------------------------------------------
#psi4
#
memory 32 gb

molecule  {
0 1
  O       -0.4771680     1.3164760     0.3008390
  N        0.7985240    -0.5535590    -0.2772820
  C        3.2200150    -0.4235850    -0.1586420
  C        0.7425440     0.7008700     0.1517020
  C       -1.6208490     0.5302780     0.1412880
  C        3.0989271     1.0918957     0.3554637
  C        1.8654780     1.4834140     0.4539590
  C        2.0264240    -1.0936290    -0.4226860
  C        4.5555360    -1.0893210    -0.3460000
  C       -1.9196720    -0.4880720     1.0459920
  C       -2.4970780     0.8728280    -0.8843220
  C       -3.1225630    -1.1795470     0.9070330
  C       -3.7017300     0.1773150    -1.0087090
  C       -4.0153870    -0.8504980    -0.1174150
  H        4.0120030     1.4769520     0.5152690
  H        1.7375180     2.5038470     0.8013060
  H        2.0412640    -2.1246280    -0.7760920
  H        5.1157190    -1.1239590     0.5937180
  H        4.4318450    -2.1155640    -0.7023530
  H        5.1668890    -0.5502680    -1.0765200
  H       -1.2183070    -0.7290930     1.8393240
  H       -2.2288450     1.6771480    -1.5635320
  H       -3.3650020    -1.9773860     1.6048690
  H       -4.3932510     0.4394220    -1.8057380
  H       -4.9525670    -1.3919050    -0.2175730
units angstrom
no_reorient  #important for SAPT in psi4, default
symmetry c1  #important for SAPT in psi4, default
}

set PROPERTIES_ORIGIN ["COM"]
properties('MP2/aug-cc-pvtz', properties = ['dipole'])
--------------------------------------------------------------------------

    Molecular point group: c1
  Charge       = 0
  Multiplicity = 1
  Basis Set: AUG-CC-PVTZ
    Blend: AUG-CC-PVTZ
  Basis Set: (AUG-CC-PVTZ AUX)
    Blend: AUG-CC-PVTZ-JKFIT

    Orbital Energies [Eh]
    ---------------------

    Doubly Occupied:

       1A    -20.603320     2A    -15.560492     3A    -11.347274
       4A    -11.297311     5A    -11.266458     6A    -11.263506
       7A    -11.254062     8A    -11.239599     9A    -11.237489
      10A    -11.237363    11A    -11.233202    12A    -11.232620
      13A    -11.231355    14A    -11.231317    15A     -1.434315
      16A     -1.248606    17A     -1.146894    18A     -1.099043
      19A     -1.053104    20A     -1.016165    21A     -1.008110
      22A     -0.939628    23A     -0.880607    24A     -0.837465
      25A     -0.825581    26A     -0.805175    27A     -0.744759
      28A     -0.701783    29A     -0.684008    30A     -0.657229
      31A     -0.647589    32A     -0.631861    33A     -0.616706
      34A     -0.595931    35A     -0.591964    36A     -0.584342
      37A     -0.578247    38A     -0.569867    39A     -0.547534
      40A     -0.513926    41A     -0.512284    42A     -0.493965
      43A     -0.481911    44A     -0.476001    45A     -0.422235
      46A     -0.396718    47A     -0.336273    48A     -0.329605
      49A     -0.307778

  @DF-RHF Final Energy:  -590.29121720022545

   => Energetics <=

    Nuclear Repulsion Energy =            799.7632569990940965
    One-Electron Energy =               -2388.2038007676851521
    Two-Electron Energy =                 998.1493265683654954
    Total Energy =                       -590.2912172002254465
  Basis Set: (AUG-CC-PVTZ AUX)
    Blend: AUG-CC-PVTZ-RI
    Molecular point group: c1

    Geometry (in Angstrom), charge = 0, multiplicity = 1:

       Center              X                  Y                   Z               Mass
    ------------   -----------------  -----------------  -----------------  -----------------
         O           -0.442190401969     1.283287267018     0.292477527381    15.994914619570
         N            0.833501598031    -0.586747732982    -0.285643472619    14.003074004430
         C            3.254992598031    -0.456773732982    -0.167003472619    12.000000000000
         C            0.777521598031     0.667681267018     0.143340527381    12.000000000000
         C           -1.585871401969     0.497089267018     0.132926527381    12.000000000000
         C            3.133904698031     1.058706967018     0.347102227381    12.000000000000
         C            1.900455598031     1.450225267018     0.445597527381    12.000000000000
         C            2.061401598031    -1.126817732982    -0.431047472619    12.000000000000
         C            4.590513598031    -1.122509732982    -0.354361472619    12.000000000000
         C           -1.884694401969    -0.521260732982     1.037630527381    12.000000000000
         C           -2.462100401969     0.839639267018    -0.892683472619    12.000000000000
         C           -3.087585401969    -1.212735732982     0.898671527381    12.000000000000
         C           -3.666752401969     0.144126267018    -1.017070472619    12.000000000000
         C           -3.980409401969    -0.883686732982    -0.125776472619    12.000000000000
         H            4.046980598031     1.443763267018     0.506907527381     1.007825032230
         H            1.772495598031     2.470658267018     0.792944527381     1.007825032230
         H            2.076241598031    -2.157816732982    -0.784453472619     1.007825032230
         H            5.150696598031    -1.157147732982     0.585356527381     1.007825032230
         H            4.466822598031    -2.148752732982    -0.710714472619     1.007825032230
         H            5.201866598031    -0.583456732982    -1.084881472619     1.007825032230
         H           -1.183329401969    -0.762281732982     1.830962527381     1.007825032230
         H           -2.193867401969     1.643959267018    -1.571893472619     1.007825032230
         H           -3.330024401969    -2.010574732982     1.596507527381     1.007825032230
         H           -4.358273401969     0.406233267018    -1.814099472619     1.007825032230
         H           -4.917589401969    -1.425093732982    -0.225934472619     1.007825032230

  Basis Set: AUG-CC-PVTZ
    Blend: AUG-CC-PVTZ
  Basis Set: (AUG-CC-PVTZ AUX)
    Blend: AUG-CC-PVTZ-JKFIT
	 Reference Energy          =    -590.2912172002254465 [Eh]
	 Singles Energy            =      -0.0000000000000000 [Eh]
	 Same-Spin Energy          =      -0.6430167933225613 [Eh]
	 Opposite-Spin Energy      =      -1.9835228584713152 [Eh]
	 Correlation Energy        =      -2.6265396517938764 [Eh]
	 Total Energy              =    -592.9177568520193518 [Eh]

	 ================> DF-SCS-MP2 Energies <==================
	-----------------------------------------------------------
	 SCS Same-Spin Scale       =       0.3333333333333333 [-]
	 SCS Opposite-Spin Scale   =       1.2000000000000000 [-]
	 SCS Same-Spin Energy      =      -0.2143389311075204 [Eh]
	 SCS Opposite-Spin Energy  =      -2.3802274301655779 [Eh]
	 SCS Correlation Energy    =      -2.5945663612730985 [Eh]
	 SCS Total Energy          =    -592.8857835614985561 [Eh]
	-----------------------------------------------------------

  Dipole Moment: [D]
     X:     1.9749      Y:    -0.0428      Z:     0.2100     Total:     1.9865

*** Psi4 exiting successfully. Buy a developer a beer!
