                               Psi4 1.4a3.dev225

  ==> Input File <==

--------------------------------------------------------------------------
#psi4
#
memory 32 gb

molecule  {
0 1
  O       -0.4771680     1.3164760     0.3008390
  N        0.7985240    -0.5535590    -0.2772820
  C        3.2200150    -0.4235850    -0.1586420
  C        0.7425440     0.7008700     0.1517020
  C       -1.6208490     0.5302780     0.1412880
  C        3.1291069     0.7141783     0.2273283
  C        1.8654780     1.4834140     0.4539590
  C        2.0264240    -1.0936290    -0.4226860
  C        4.5555360    -1.0893210    -0.3460000
  C       -1.9196720    -0.4880720     1.0459920
  C       -2.4970780     0.8728280    -0.8843220
  C       -3.1225630    -1.1795470     0.9070330
  C       -3.7017300     0.1773150    -1.0087090
  C       -4.0153870    -0.8504980    -0.1174150
  H        4.0120030     1.4769520     0.5152690
  H        1.7375180     2.5038470     0.8013060
  H        2.0412640    -2.1246280    -0.7760920
  H        5.1157190    -1.1239590     0.5937180
  H        4.4318450    -2.1155640    -0.7023530
  H        5.1668890    -0.5502680    -1.0765200
  H       -1.2183070    -0.7290930     1.8393240
  H       -2.2288450     1.6771480    -1.5635320
  H       -3.3650020    -1.9773860     1.6048690
  H       -4.3932510     0.4394220    -1.8057380
  H       -4.9525670    -1.3919050    -0.2175730
units angstrom
no_reorient  #important for SAPT in psi4, default
symmetry c1  #important for SAPT in psi4, default
}

set PROPERTIES_ORIGIN ["COM"]
properties('MP2/aug-cc-pvtz', properties = ['dipole'])
--------------------------------------------------------------------------

    Molecular point group: c1
  Charge       = 0
  Multiplicity = 1
  Basis Set: AUG-CC-PVTZ
    Blend: AUG-CC-PVTZ
  Basis Set: (AUG-CC-PVTZ AUX)
    Blend: AUG-CC-PVTZ-JKFIT

    Orbital Energies [Eh]
    ---------------------

    Doubly Occupied:

       1A    -20.593980     2A    -15.569189     3A    -11.334424
       4A    -11.294177     5A    -11.291710     6A    -11.253244
       7A    -11.242575     8A    -11.236282     9A    -11.236143
      10A    -11.234727    11A    -11.231211    12A    -11.230258
      13A    -11.229758    14A    -11.222595    15A     -1.427274
      16A     -1.262752    17A     -1.145718    18A     -1.134534
      19A     -1.042098    20A     -1.014581    21A     -0.997613
      22A     -0.950449    23A     -0.890569    24A     -0.843720
      25A     -0.830610    26A     -0.792930    27A     -0.733419
      28A     -0.704923    29A     -0.680030    30A     -0.654007
      31A     -0.647211    32A     -0.625656    33A     -0.612607
      34A     -0.599818    35A     -0.591335    36A     -0.587206
      37A     -0.569385    38A     -0.555269    39A     -0.549280
      40A     -0.517226    41A     -0.514026    42A     -0.502196
      43A     -0.489624    44A     -0.481009    45A     -0.425721
      46A     -0.396218    47A     -0.334671    48A     -0.332671
      49A     -0.314558

  @DF-RHF Final Energy:  -590.26931320210633

   => Energetics <=

    Nuclear Repulsion Energy =            804.1734515803990462
    One-Electron Energy =               -2396.9831484254882525
    Two-Electron Energy =                1002.5403836429827606
    Total Energy =                       -590.2693132021063320
  Basis Set: (AUG-CC-PVTZ AUX)
    Blend: AUG-CC-PVTZ-RI
    Molecular point group: c1

    Geometry (in Angstrom), charge = 0, multiplicity = 1:

       Center              X                  Y                   Z               Mass
    ------------   -----------------  -----------------  -----------------  -----------------
         O           -0.444147121484     1.307776727118     0.300785237764    15.994914619570
         N            0.831544878516    -0.562258272882    -0.277335762236    14.003074004430
         C            3.253035878516    -0.432284272882    -0.158695762236    12.000000000000
         C            0.775564878516     0.692170727118     0.151648237764    12.000000000000
         C           -1.587828121484     0.521578727118     0.141234237764    12.000000000000
         C            3.162127778516     0.705479027118     0.227274537764    12.000000000000
         C            1.898498878516     1.474714727118     0.453905237764    12.000000000000
         C            2.059444878516    -1.102328272882    -0.422739762236    12.000000000000
         C            4.588556878516    -1.098020272882    -0.346053762236    12.000000000000
         C           -1.886651121484    -0.496771272882     1.045938237764    12.000000000000
         C           -2.464057121484     0.864128727118    -0.884375762236    12.000000000000
         C           -3.089542121484    -1.188246272882     0.906979237764    12.000000000000
         C           -3.668709121484     0.168615727118    -1.008762762236    12.000000000000
         C           -3.982366121484    -0.859197272882    -0.117468762236    12.000000000000
         H            4.045023878516     1.468252727118     0.515215237764     1.007825032230
         H            1.770538878516     2.495147727118     0.801252237764     1.007825032230
         H            2.074284878516    -2.133327272882    -0.776145762236     1.007825032230
         H            5.148739878516    -1.132658272882     0.593664237764     1.007825032230
         H            4.464865878516    -2.124263272882    -0.702406762236     1.007825032230
         H            5.199909878516    -0.558967272882    -1.076573762236     1.007825032230
         H           -1.185286121484    -0.737792272882     1.839270237764     1.007825032230
         H           -2.195824121484     1.668448727118    -1.563585762236     1.007825032230
         H           -3.331981121484    -1.986085272882     1.604815237764     1.007825032230
         H           -4.360230121484     0.430722727118    -1.805791762236     1.007825032230
         H           -4.919546121484    -1.400604272882    -0.217626762236     1.007825032230

  Basis Set: AUG-CC-PVTZ
    Blend: AUG-CC-PVTZ
  Basis Set: (AUG-CC-PVTZ AUX)
    Blend: AUG-CC-PVTZ-JKFIT
	 Reference Energy          =    -590.2693132021063320 [Eh]
	 Singles Energy            =      -0.0000000000000000 [Eh]
	 Same-Spin Energy          =      -0.6446506337197184 [Eh]
	 Opposite-Spin Energy      =      -1.9833759142677920 [Eh]
	 Correlation Energy        =      -2.6280265479875107 [Eh]
	 Total Energy              =    -592.8973397500938063 [Eh]

	 ================> DF-SCS-MP2 Energies <==================
	-----------------------------------------------------------
	 SCS Same-Spin Scale       =       0.3333333333333333 [-]
	 SCS Opposite-Spin Scale   =       1.2000000000000000 [-]
	 SCS Same-Spin Energy      =      -0.2148835445732395 [Eh]
	 SCS Opposite-Spin Energy  =      -2.3800510971213504 [Eh]
	 SCS Correlation Energy    =      -2.5949346416945898 [Eh]
	 SCS Total Energy          =    -592.8642478438009675 [Eh]
	-----------------------------------------------------------

  Dipole Moment: [D]
     X:     1.9650      Y:    -0.3612      Z:     0.0865     Total:     1.9998

*** Psi4 exiting successfully. Buy a developer a beer!
