                               Psi4 1.4a3.dev225

  ==> Input File <==

--------------------------------------------------------------------------
#psi4
#
memory 32 gb

molecule  {
0 1
  O       -0.4771680     1.3164760     0.3008390
  N        0.7985240    -0.5535590    -0.2772820
  C        3.2200150    -0.4235850    -0.1586420
  C        0.7425440     0.7008700     0.1517020
  C       -1.6208490     0.5302780     0.1412880
  C        3.1140170     0.9030370     0.2913960
  C        1.8654780     1.4834140     0.4539590
  C        2.0522482    -1.1328899    -0.4353095
  C        4.5555360    -1.0893210    -0.3460000
  C       -1.9196720    -0.4880720     1.0459920
  C       -2.4970780     0.8728280    -0.8843220
  C       -3.1225630    -1.1795470     0.9070330
  C       -3.7017300     0.1773150    -1.0087090
  C       -4.0153870    -0.8504980    -0.1174150
  H        4.0120030     1.4769520     0.5152690
  H        1.7375180     2.5038470     0.8013060
  H        2.0412640    -2.1246280    -0.7760920
  H        5.1157190    -1.1239590     0.5937180
  H        4.4318450    -2.1155640    -0.7023530
  H        5.1668890    -0.5502680    -1.0765200
  H       -1.2183070    -0.7290930     1.8393240
  H       -2.2288450     1.6771480    -1.5635320
  H       -3.3650020    -1.9773860     1.6048690
  H       -4.3932510     0.4394220    -1.8057380
  H       -4.9525670    -1.3919050    -0.2175730
units angstrom
no_reorient  #important for SAPT in psi4, default
symmetry c1  #important for SAPT in psi4, default
}

set PROPERTIES_ORIGIN ["COM"]
properties('MP2/aug-cc-pvtz', properties = ['dipole'])
--------------------------------------------------------------------------

    Molecular point group: c1
  Charge       = 0
  Multiplicity = 1
  Basis Set: AUG-CC-PVTZ
    Blend: AUG-CC-PVTZ
  Basis Set: (AUG-CC-PVTZ AUX)
    Blend: AUG-CC-PVTZ-JKFIT

    Orbital Energies [Eh]
    ---------------------

    Doubly Occupied:

       1A    -20.598122     2A    -15.563953     3A    -11.340002
       4A    -11.295150     5A    -11.277402     6A    -11.262224
       7A    -11.245085     8A    -11.242964     9A    -11.236216
      10A    -11.236111    11A    -11.232114    12A    -11.231500
      13A    -11.230821    14A    -11.229949    15A     -1.429980
      16A     -1.241688    17A     -1.145188    18A     -1.100659
      19A     -1.053737    20A     -1.014707    21A     -1.003716
      22A     -0.942137    23A     -0.881232    24A     -0.840449
      25A     -0.829982    26A     -0.797860    27A     -0.737142
      28A     -0.703438    29A     -0.678314    30A     -0.654779
      31A     -0.644776    32A     -0.630889    33A     -0.613784
      34A     -0.595928    35A     -0.591119    36A     -0.585661
      37A     -0.568779    38A     -0.563045    39A     -0.548568
      40A     -0.522222    41A     -0.511846    42A     -0.510088
      43A     -0.491937    44A     -0.475618    45A     -0.426376
      46A     -0.380665    47A     -0.334945    48A     -0.332735
      49A     -0.314379

  @DF-RHF Final Energy:  -590.32716932032702

   => Energetics <=

    Nuclear Repulsion Energy =            800.7997028488822480
    One-Electron Energy =               -2390.4137790523404874
    Two-Electron Energy =                 999.2869068831313371
    Total Energy =                       -590.3271693203270161
  Basis Set: (AUG-CC-PVTZ AUX)
    Blend: AUG-CC-PVTZ-RI
    Molecular point group: c1

    Geometry (in Angstrom), charge = 0, multiplicity = 1:

       Center              X                  Y                   Z               Mass
    ------------   -----------------  -----------------  -----------------  -----------------
         O           -0.444843084158     1.298077493368     0.297449832291    15.994914619570
         N            0.830848915842    -0.571957506632    -0.280671167709    14.003074004430
         C            3.252339915842    -0.441983506632    -0.162031167709    12.000000000000
         C            0.774868915842     0.682471493368     0.148312832291    12.000000000000
         C           -1.588524084158     0.511879493368     0.137898832291    12.000000000000
         C            3.146341915842     0.884638493368     0.288006832291    12.000000000000
         C            1.897802915842     1.465015493368     0.450569832291    12.000000000000
         C            2.084573115842    -1.151288406632    -0.438698667709    12.000000000000
         C            4.587860915842    -1.107719506632    -0.349389167709    12.000000000000
         C           -1.887347084158    -0.506470506632     1.042602832291    12.000000000000
         C           -2.464753084158     0.854429493368    -0.887711167709    12.000000000000
         C           -3.090238084158    -1.197945506632     0.903643832291    12.000000000000
         C           -3.669405084158     0.158916493368    -1.012098167709    12.000000000000
         C           -3.983062084158    -0.868896506632    -0.120804167709    12.000000000000
         H            4.044327915842     1.458553493368     0.511879832291     1.007825032230
         H            1.769842915842     2.485448493368     0.797916832291     1.007825032230
         H            2.073588915842    -2.143026506632    -0.779481167709     1.007825032230
         H            5.148043915842    -1.142357506632     0.590328832291     1.007825032230
         H            4.464169915842    -2.133962506632    -0.705742167709     1.007825032230
         H            5.199213915842    -0.568666506632    -1.079909167709     1.007825032230
         H           -1.185982084158    -0.747491506632     1.835934832291     1.007825032230
         H           -2.196520084158     1.658749493368    -1.566921167709     1.007825032230
         H           -3.332677084158    -1.995784506632     1.601479832291     1.007825032230
         H           -4.360926084158     0.421023493368    -1.809127167709     1.007825032230
         H           -4.920242084158    -1.410303506632    -0.220962167709     1.007825032230

  Basis Set: AUG-CC-PVTZ
    Blend: AUG-CC-PVTZ
  Basis Set: (AUG-CC-PVTZ AUX)
    Blend: AUG-CC-PVTZ-JKFIT
	 Reference Energy          =    -590.3271693203270161 [Eh]
	 Singles Energy            =      -0.0000000000000000 [Eh]
	 Same-Spin Energy          =      -0.6441328698379957 [Eh]
	 Opposite-Spin Energy      =      -1.9824705813338457 [Eh]
	 Correlation Energy        =      -2.6266034511718415 [Eh]
	 Total Energy              =    -592.9537727714988478 [Eh]

	 ================> DF-SCS-MP2 Energies <==================
	-----------------------------------------------------------
	 SCS Same-Spin Scale       =       0.3333333333333333 [-]
	 SCS Opposite-Spin Scale   =       1.2000000000000000 [-]
	 SCS Same-Spin Energy      =      -0.2147109566126652 [Eh]
	 SCS Opposite-Spin Energy  =      -2.3789646976006149 [Eh]
	 SCS Correlation Energy    =      -2.5936756542132802 [Eh]
	 SCS Total Energy          =    -592.9208449745402731 [Eh]
	-----------------------------------------------------------

  Dipole Moment: [D]
     X:     2.0781      Y:    -0.2166      Z:     0.1473     Total:     2.0945

*** Psi4 exiting successfully. Buy a developer a beer!
