                               Psi4 1.4a3.dev225

  ==> Input File <==

--------------------------------------------------------------------------
#psi4
#
memory 32 gb

molecule  {
0 1
  O       -0.4771680     1.3164760     0.3008390
  N        0.7985240    -0.5535590    -0.2772820
  C        3.2200150    -0.4235850    -0.1586420
  C        0.7425440     0.7008700     0.1517020
  C       -1.6208490     0.5302780     0.1412880
  C        3.1140170     0.9030370     0.2913960
  C        1.8654780     1.4834140     0.4539590
  C        2.0264240    -1.0936290    -0.4226860
  C        4.5555360    -1.0893210    -0.3460000
  C       -1.9196720    -0.4880720     1.0459920
  C       -2.4970780     0.8728280    -0.8843220
  C       -3.1225630    -1.1795470     0.9070330
  C       -3.7017300     0.1773150    -1.0087090
  C       -4.0153870    -0.8504980    -0.1174150
  H        4.0120030     1.4769520     0.5152690
  H        1.7375180     2.5038470     0.8013060
  H        2.0412640    -2.1246280    -0.7760920
  H        5.1072980    -1.0097207     0.5959645
  H        4.4318450    -2.1155640    -0.7023530
  H        5.1668890    -0.5502680    -1.0765200
  H       -1.2183070    -0.7290930     1.8393240
  H       -2.2288450     1.6771480    -1.5635320
  H       -3.3650020    -1.9773860     1.6048690
  H       -4.3932510     0.4394220    -1.8057380
  H       -4.9525670    -1.3919050    -0.2175730
units angstrom
no_reorient  #important for SAPT in psi4, default
symmetry c1  #important for SAPT in psi4, default
}

set PROPERTIES_ORIGIN ["COM"]
properties('MP2/aug-cc-pvtz', properties = ['dipole'])
--------------------------------------------------------------------------

    Molecular point group: c1
  Charge       = 0
  Multiplicity = 1
  Basis Set: AUG-CC-PVTZ
    Blend: AUG-CC-PVTZ
  Basis Set: (AUG-CC-PVTZ AUX)
    Blend: AUG-CC-PVTZ-JKFIT

    Orbital Energies [Eh]
    ---------------------

    Doubly Occupied:

       1A    -20.598336     2A    -15.563250     3A    -11.340336
       4A    -11.295540     5A    -11.276736     6A    -11.261316
       7A    -11.242930     8A    -11.241292     9A    -11.236641
      10A    -11.236541    11A    -11.233314    12A    -11.231961
      13A    -11.231226    14A    -11.230341    15A     -1.430510
      16A     -1.253224    17A     -1.145756    18A     -1.102987
      19A     -1.053096    20A     -1.015151    21A     -1.003758
      22A     -0.943055    23A     -0.877744    24A     -0.841664
      25A     -0.830399    26A     -0.800783    27A     -0.736697
      28A     -0.705035    29A     -0.679211    30A     -0.655344
      31A     -0.642403    32A     -0.626549    33A     -0.610975
      34A     -0.595441    35A     -0.591093    36A     -0.585028
      37A     -0.568300    38A     -0.563703    39A     -0.555690
      40A     -0.520456    41A     -0.512685    42A     -0.511699
      43A     -0.492566    44A     -0.477093    45A     -0.428007
      46A     -0.384169    47A     -0.335320    48A     -0.331968
      49A     -0.313041

  @DF-RHF Final Energy:  -590.33021332400165

   => Energetics <=

    Nuclear Repulsion Energy =            801.8241617888172641
    One-Electron Energy =               -2392.4280265330630755
    Two-Electron Energy =                1000.2736514202441640
    Total Energy =                       -590.3302133240016474
  Basis Set: (AUG-CC-PVTZ AUX)
    Blend: AUG-CC-PVTZ-RI
    Molecular point group: c1

    Geometry (in Angstrom), charge = 0, multiplicity = 1:

       Center              X                  Y                   Z               Mass
    ------------   -----------------  -----------------  -----------------  -----------------
         O           -0.443122907457     1.294909943413     0.296619149867    15.994914619570
         N            0.832569092543    -0.575125056587    -0.281501850133    14.003074004430
         C            3.254060092543    -0.445151056587    -0.162861850133    12.000000000000
         C            0.776589092543     0.679303943413     0.147482149867    12.000000000000
         C           -1.586803907457     0.508711943413     0.137068149867    12.000000000000
         C            3.148062092543     0.881470943413     0.287176149867    12.000000000000
         C            1.899523092543     1.461847943413     0.449739149867    12.000000000000
         C            2.060469092543    -1.115195056587    -0.426905850133    12.000000000000
         C            4.589581092543    -1.110887056587    -0.350219850133    12.000000000000
         C           -1.885626907457    -0.509638056587     1.041772149867    12.000000000000
         C           -2.463032907457     0.851261943413    -0.888541850133    12.000000000000
         C           -3.088517907457    -1.201113056587     0.902813149867    12.000000000000
         C           -3.667684907457     0.155748943413    -1.012928850133    12.000000000000
         C           -3.981341907457    -0.872064056587    -0.121634850133    12.000000000000
         H            4.046048092543     1.455385943413     0.511049149867     1.007825032230
         H            1.771563092543     2.482280943413     0.797086149867     1.007825032230
         H            2.075309092543    -2.146194056587    -0.780311850133     1.007825032230
         H            5.141343092543    -1.031286756587     0.591744649867     1.007825032230
         H            4.465890092543    -2.137130056587    -0.706572850133     1.007825032230
         H            5.200934092543    -0.571834056587    -1.080739850133     1.007825032230
         H           -1.184261907457    -0.750659056587     1.835104149867     1.007825032230
         H           -2.194799907457     1.655581943413    -1.567751850133     1.007825032230
         H           -3.330956907457    -1.998952056587     1.600649149867     1.007825032230
         H           -4.359205907457     0.417855943413    -1.809957850133     1.007825032230
         H           -4.918521907457    -1.413471056587    -0.221792850133     1.007825032230

  Basis Set: AUG-CC-PVTZ
    Blend: AUG-CC-PVTZ
  Basis Set: (AUG-CC-PVTZ AUX)
    Blend: AUG-CC-PVTZ-JKFIT
	 Reference Energy          =    -590.3302133240016474 [Eh]
	 Singles Energy            =      -0.0000000000000000 [Eh]
	 Same-Spin Energy          =      -0.6441264012963073 [Eh]
	 Opposite-Spin Energy      =      -1.9816748415893866 [Eh]
	 Correlation Energy        =      -2.6258012428856938 [Eh]
	 Total Energy              =    -592.9560145668873474 [Eh]

	 ================> DF-SCS-MP2 Energies <==================
	-----------------------------------------------------------
	 SCS Same-Spin Scale       =       0.3333333333333333 [-]
	 SCS Opposite-Spin Scale   =       1.2000000000000000 [-]
	 SCS Same-Spin Energy      =      -0.2147088004321024 [Eh]
	 SCS Opposite-Spin Energy  =      -2.3780098099072640 [Eh]
	 SCS Correlation Energy    =      -2.5927186103393662 [Eh]
	 SCS Total Energy          =    -592.9229319343410225 [Eh]
	-----------------------------------------------------------

  Dipole Moment: [D]
     X:     2.0417      Y:    -0.1580      Z:     0.1405     Total:     2.0526

*** Psi4 exiting successfully. Buy a developer a beer!
