                               Psi4 1.4a3.dev225

  ==> Input File <==

--------------------------------------------------------------------------
#psi4
#
memory 32 gb

molecule  {
0 1
  O       -0.4771680     1.3164760     0.3008390
  N        0.7985240    -0.5535590    -0.2772820
  C        3.2200150    -0.4235850    -0.1586420
  C        0.7425440     0.7008700     0.1517020
  C       -1.6208490     0.5302780     0.1412880
  C        3.1140170     0.9030370     0.2913960
  C        1.8654780     1.4834140     0.4539590
  C        2.0264240    -1.0936290    -0.4226860
  C        4.5555360    -1.0893210    -0.3460000
  C       -1.9196720    -0.4880720     1.0459920
  C       -2.4970780     0.8728280    -0.8843220
  C       -3.1225630    -1.1795470     0.9070330
  C       -3.7017300     0.1773150    -1.0087090
  C       -4.0153870    -0.8504980    -0.1174150
  H        4.0120030     1.4769520     0.5152690
  H        1.7375180     2.5038470     0.8013060
  H        2.0412640    -2.1246280    -0.7760920
  H        5.1157190    -1.1239590     0.5937180
  H        4.4261886    -2.1624942    -0.7186491
  H        5.1668890    -0.5502680    -1.0765200
  H       -1.2183070    -0.7290930     1.8393240
  H       -2.2288450     1.6771480    -1.5635320
  H       -3.3650020    -1.9773860     1.6048690
  H       -4.3932510     0.4394220    -1.8057380
  H       -4.9525670    -1.3919050    -0.2175730
units angstrom
no_reorient  #important for SAPT in psi4, default
symmetry c1  #important for SAPT in psi4, default
}

set PROPERTIES_ORIGIN ["COM"]
properties('MP2/aug-cc-pvtz', properties = ['dipole'])
--------------------------------------------------------------------------

    Molecular point group: c1
  Charge       = 0
  Multiplicity = 1
  Basis Set: AUG-CC-PVTZ
    Blend: AUG-CC-PVTZ
  Basis Set: (AUG-CC-PVTZ AUX)
    Blend: AUG-CC-PVTZ-JKFIT

    Orbital Energies [Eh]
    ---------------------

    Doubly Occupied:

       1A    -20.598688     2A    -15.563516     3A    -11.340893
       4A    -11.295718     5A    -11.277428     6A    -11.261828
       7A    -11.243672     8A    -11.241364     9A    -11.238700
      10A    -11.236784    11A    -11.236684    12A    -11.232132
      13A    -11.231391    14A    -11.230488    15A     -1.430843
      16A     -1.253615    17A     -1.145919    18A     -1.102577
      19A     -1.052646    20A     -1.015295    21A     -1.003434
      22A     -0.940333    23A     -0.877820    24A     -0.841450
      25A     -0.830446    26A     -0.800915    27A     -0.736861
      28A     -0.704741    29A     -0.679005    30A     -0.655567
      31A     -0.642224    32A     -0.626364    33A     -0.611223
      34A     -0.594177    35A     -0.592318    36A     -0.586399
      37A     -0.569940    38A     -0.563604    39A     -0.543785
      40A     -0.518780    41A     -0.513614    42A     -0.511508
      43A     -0.492752    44A     -0.477687    45A     -0.428346
      46A     -0.384705    47A     -0.335489    48A     -0.332464
      49A     -0.313713

  @DF-RHF Final Energy:  -590.32939735984371

   => Energetics <=

    Nuclear Repulsion Energy =            801.5116494261307025
    One-Electron Energy =               -2391.8024010123476728
    Two-Electron Energy =                 999.9613542263733734
    Total Energy =                       -590.3293973598437105
  Basis Set: (AUG-CC-PVTZ AUX)
    Blend: AUG-CC-PVTZ-RI
    Molecular point group: c1

    Geometry (in Angstrom), charge = 0, multiplicity = 1:

       Center              X                  Y                   Z               Mass
    ------------   -----------------  -----------------  -----------------  -----------------
         O           -0.443137961336     1.295787542734     0.296720118562    15.994914619570
         N            0.832554038664    -0.574247457266    -0.281400881438    14.003074004430
         C            3.254045038664    -0.444273457266    -0.162760881438    12.000000000000
         C            0.776574038664     0.680181542734     0.147583118562    12.000000000000
         C           -1.586818961336     0.509589542734     0.137169118562    12.000000000000
         C            3.148047038664     0.882348542734     0.287277118562    12.000000000000
         C            1.899508038664     1.462725542734     0.449840118562    12.000000000000
         C            2.060454038664    -1.114317457266    -0.426804881438    12.000000000000
         C            4.589566038664    -1.110009457266    -0.350118881438    12.000000000000
         C           -1.885641961336    -0.508760457266     1.041873118562    12.000000000000
         C           -2.463047961336     0.852139542734    -0.888440881438    12.000000000000
         C           -3.088532961336    -1.200235457266     0.902914118562    12.000000000000
         C           -3.667699961336     0.156626542734    -1.012827881438    12.000000000000
         C           -3.981356961336    -0.871186457266    -0.121533881438    12.000000000000
         H            4.046033038664     1.456263542734     0.511150118562     1.007825032230
         H            1.771548038664     2.483158542734     0.797187118562     1.007825032230
         H            2.075294038664    -2.145316457266    -0.780210881438     1.007825032230
         H            5.149749038664    -1.144647457266     0.589599118562     1.007825032230
         H            4.460218638664    -2.183182657266    -0.722767981438     1.007825032230
         H            5.200919038664    -0.570956457266    -1.080638881438     1.007825032230
         H           -1.184276961336    -0.749781457266     1.835205118562     1.007825032230
         H           -2.194814961336     1.656459542734    -1.567650881438     1.007825032230
         H           -3.330971961336    -1.998074457266     1.600750118562     1.007825032230
         H           -4.359220961336     0.418733542734    -1.809856881438     1.007825032230
         H           -4.918536961336    -1.412593457266    -0.221691881438     1.007825032230

  Basis Set: AUG-CC-PVTZ
    Blend: AUG-CC-PVTZ
  Basis Set: (AUG-CC-PVTZ AUX)
    Blend: AUG-CC-PVTZ-JKFIT
	 Reference Energy          =    -590.3293973598437105 [Eh]
	 Singles Energy            =      -0.0000000000000000 [Eh]
	 Same-Spin Energy          =      -0.6440176779412700 [Eh]
	 Opposite-Spin Energy      =      -1.9818594535982239 [Eh]
	 Correlation Energy        =      -2.6258771315394940 [Eh]
	 Total Energy              =    -592.9552744913831930 [Eh]

	 ================> DF-SCS-MP2 Energies <==================
	-----------------------------------------------------------
	 SCS Same-Spin Scale       =       0.3333333333333333 [-]
	 SCS Opposite-Spin Scale   =       1.2000000000000000 [-]
	 SCS Same-Spin Energy      =      -0.2146725593137566 [Eh]
	 SCS Opposite-Spin Energy  =      -2.3782313443178684 [Eh]
	 SCS Correlation Energy    =      -2.5929039036316253 [Eh]
	 SCS Total Energy          =    -592.9223012634753331 [Eh]
	-----------------------------------------------------------

  Dipole Moment: [D]
     X:     2.0038      Y:    -0.1581      Z:     0.1649     Total:     2.0168

*** Psi4 exiting successfully. Buy a developer a beer!
