                               Psi4 1.4a3.dev225

  ==> Input File <==

--------------------------------------------------------------------------
#psi4
#
memory 32 gb

molecule  {
0 1
  O       -0.4771680     1.3164760     0.3008390
  N        0.7985240    -0.5535590    -0.2772820
  C        3.2200150    -0.4235850    -0.1586420
  C        0.7425440     0.7008700     0.1517020
  C       -1.6208490     0.5302780     0.1412880
  C        3.1140170     0.9030370     0.2913960
  C        1.8654780     1.4834140     0.4539590
  C        2.0264240    -1.0936290    -0.4226860
  C        4.5555360    -1.0893210    -0.3460000
  C       -1.9196720    -0.4880720     1.0459920
  C       -2.4970780     0.8728280    -0.8843220
  C       -3.1225630    -1.1795470     0.9070330
  C       -3.7017300     0.1773150    -1.0087090
  C       -4.1400883    -0.8666285    -0.1918802
  H        4.0120030     1.4769520     0.5152690
  H        1.7375180     2.5038470     0.8013060
  H        2.0412640    -2.1246280    -0.7760920
  H        5.1157190    -1.1239590     0.5937180
  H        4.4318450    -2.1155640    -0.7023530
  H        5.1668890    -0.5502680    -1.0765200
  H       -1.2183070    -0.7290930     1.8393240
  H       -2.2288450     1.6771480    -1.5635320
  H       -3.3650020    -1.9773860     1.6048690
  H       -4.3932510     0.4394220    -1.8057380
  H       -4.9525670    -1.3919050    -0.2175730
units angstrom
no_reorient  #important for SAPT in psi4, default
symmetry c1  #important for SAPT in psi4, default
}

set PROPERTIES_ORIGIN ["COM"]
properties('MP2/aug-cc-pvtz', properties = ['dipole'])
--------------------------------------------------------------------------

    Molecular point group: c1
  Charge       = 0
  Multiplicity = 1
  Basis Set: AUG-CC-PVTZ
    Blend: AUG-CC-PVTZ
  Basis Set: (AUG-CC-PVTZ AUX)
    Blend: AUG-CC-PVTZ-JKFIT

    Orbital Energies [Eh]
    ---------------------

    Doubly Occupied:

       1A    -20.600363     2A    -15.564365     3A    -11.341712
       4A    -11.299857     5A    -11.277927     6A    -11.262047
       7A    -11.250003     8A    -11.243909     9A    -11.241915
      10A    -11.239457    11A    -11.234153    12A    -11.233191
      13A    -11.232944    14A    -11.230940    15A     -1.432465
      16A     -1.254329    17A     -1.136212    18A     -1.103290
      19A     -1.052522    20A     -1.014465    21A     -0.999670
      22A     -0.943755    23A     -0.880419    24A     -0.843277
      25A     -0.827015    26A     -0.806082    27A     -0.736496
      28A     -0.706574    29A     -0.697825    30A     -0.651866
      31A     -0.644780    32A     -0.626134    33A     -0.611150
      34A     -0.596803    35A     -0.590106    36A     -0.580902
      37A     -0.572122    38A     -0.564952    39A     -0.552360
      40A     -0.534512    41A     -0.521351    42A     -0.504692
      43A     -0.482375    44A     -0.465000    45A     -0.428727
      46A     -0.385137    47A     -0.339088    48A     -0.325691
      49A     -0.311691

  @DF-RHF Final Energy:  -590.30278288702425

   => Energetics <=

    Nuclear Repulsion Energy =            799.2186747911048315
    One-Electron Energy =               -2387.0896826768230312
    Two-Electron Energy =                 997.5682249986939496
    Total Energy =                       -590.3027828870242502
  Basis Set: (AUG-CC-PVTZ AUX)
    Blend: AUG-CC-PVTZ-RI
    Molecular point group: c1

    Geometry (in Angstrom), charge = 0, multiplicity = 1:

       Center              X                  Y                   Z               Mass
    ------------   -----------------  -----------------  -----------------  -----------------
         O           -0.435083702603     1.296577824547     0.301459363874    15.994914619570
         N            0.840608297397    -0.573457175453    -0.276661636126    14.003074004430
         C            3.262099297397    -0.443483175453    -0.158021636126    12.000000000000
         C            0.784628297397     0.680971824547     0.152322363874    12.000000000000
         C           -1.578764702603     0.510379824547     0.141908363874    12.000000000000
         C            3.156101297397     0.883138824547     0.292016363874    12.000000000000
         C            1.907562297397     1.463515824547     0.454579363874    12.000000000000
         C            2.068508297397    -1.113527175453    -0.422065636126    12.000000000000
         C            4.597620297397    -1.109219175453    -0.345379636126    12.000000000000
         C           -1.877587702603    -0.507970175453     1.046612363874    12.000000000000
         C           -2.454993702603     0.852929824547    -0.883701636126    12.000000000000
         C           -3.080478702603    -1.199445175453     0.907653363874    12.000000000000
         C           -3.659645702603     0.157416824547    -1.008088636126    12.000000000000
         C           -4.098004002603    -0.886526675453    -0.191259836126    12.000000000000
         H            4.054087297397     1.457053824547     0.515889363874     1.007825032230
         H            1.779602297397     2.483948824547     0.801926363874     1.007825032230
         H            2.083348297397    -2.144526175453    -0.775471636126     1.007825032230
         H            5.157803297397    -1.143857175453     0.594338363874     1.007825032230
         H            4.473929297397    -2.135462175453    -0.701732636126     1.007825032230
         H            5.208973297397    -0.570166175453    -1.075899636126     1.007825032230
         H           -1.176222702603    -0.748991175453     1.839944363874     1.007825032230
         H           -2.186760702603     1.657249824547    -1.562911636126     1.007825032230
         H           -3.322917702603    -1.997284175453     1.605489363874     1.007825032230
         H           -4.351166702603     0.419523824547    -1.805117636126     1.007825032230
         H           -4.910482702603    -1.411803175453    -0.216952636126     1.007825032230

  Basis Set: AUG-CC-PVTZ
    Blend: AUG-CC-PVTZ
  Basis Set: (AUG-CC-PVTZ AUX)
    Blend: AUG-CC-PVTZ-JKFIT
	 Reference Energy          =    -590.3027828870242502 [Eh]
	 Singles Energy            =      -0.0000000000000000 [Eh]
	 Same-Spin Energy          =      -0.6439433146878741 [Eh]
	 Opposite-Spin Energy      =      -1.9834716588930683 [Eh]
	 Correlation Energy        =      -2.6274149735809424 [Eh]
	 Total Energy              =    -592.9301978606051762 [Eh]

	 ================> DF-SCS-MP2 Energies <==================
	-----------------------------------------------------------
	 SCS Same-Spin Scale       =       0.3333333333333333 [-]
	 SCS Opposite-Spin Scale   =       1.2000000000000000 [-]
	 SCS Same-Spin Energy      =      -0.2146477715626247 [Eh]
	 SCS Opposite-Spin Energy  =      -2.3801659906716819 [Eh]
	 SCS Correlation Energy    =      -2.5948137622343066 [Eh]
	 SCS Total Energy          =    -592.8975966492585030 [Eh]
	-----------------------------------------------------------

  Dipole Moment: [D]
     X:     2.0749      Y:    -0.1909      Z:     0.1716     Total:     2.0907

*** Psi4 exiting successfully. Buy a developer a beer!
