                               Psi4 1.4a3.dev225

  ==> Input File <==

--------------------------------------------------------------------------
#psi4
#
memory 32 gb

molecule  {
0 1
  O       -0.4771680     1.3164760     0.3008390
  N        0.7985240    -0.5535590    -0.2772820
  C        3.2200150    -0.4235850    -0.1586420
  C        0.7425440     0.7008700     0.1517020
  C       -1.6208490     0.5302780     0.1412880
  C        3.1140170     0.9030370     0.2913960
  C        1.8654780     1.4834140     0.4539590
  C        2.0140553    -1.0736894    -0.4162526
  C        4.5555360    -1.0893210    -0.3460000
  C       -1.9196720    -0.4880720     1.0459920
  C       -2.4970780     0.8728280    -0.8843220
  C       -3.1225630    -1.1795470     0.9070330
  C       -3.7017300     0.1773150    -1.0087090
  C       -4.0153870    -0.8504980    -0.1174150
  H        4.0120030     1.4769520     0.5152690
  H        1.7375180     2.5038470     0.8013060
  H        2.0412640    -2.1246280    -0.7760920
  H        5.1157190    -1.1239590     0.5937180
  H        4.4318450    -2.1155640    -0.7023530
  H        5.1668890    -0.5502680    -1.0765200
  H       -1.2183070    -0.7290930     1.8393240
  H       -2.2288450     1.6771480    -1.5635320
  H       -3.3650020    -1.9773860     1.6048690
  H       -4.3932510     0.4394220    -1.8057380
  H       -4.9525670    -1.3919050    -0.2175730
units angstrom
no_reorient  #important for SAPT in psi4, default
symmetry c1  #important for SAPT in psi4, default
}

set PROPERTIES_ORIGIN ["COM"]
properties('MP2/aug-cc-pvtz', properties = ['dipole'])
--------------------------------------------------------------------------

    Molecular point group: c1
  Charge       = 0
  Multiplicity = 1
  Basis Set: AUG-CC-PVTZ
    Blend: AUG-CC-PVTZ
  Basis Set: (AUG-CC-PVTZ AUX)
    Blend: AUG-CC-PVTZ-JKFIT

    Orbital Energies [Eh]
    ---------------------

    Doubly Occupied:

       1A    -20.598823     2A    -15.563090     3A    -11.341129
       4A    -11.295927     5A    -11.277339     6A    -11.261080
       7A    -11.242478     8A    -11.240344     9A    -11.237012
      10A    -11.236912    11A    -11.233109    12A    -11.232381
      13A    -11.231609    14A    -11.230699    15A     -1.431156
      16A     -1.259904    17A     -1.146218    18A     -1.103733
      19A     -1.052691    20A     -1.015539    21A     -1.003823
      22A     -0.943321    23A     -0.876030    24A     -0.843199
      25A     -0.831039    26A     -0.802461    27A     -0.736924
      28A     -0.705033    29A     -0.679605    30A     -0.655880
      31A     -0.642960    32A     -0.625163    33A     -0.609017
      34A     -0.594049    35A     -0.592688    36A     -0.586424
      37A     -0.570149    38A     -0.563649    39A     -0.549765
      40A     -0.520703    41A     -0.515028    42A     -0.511942
      43A     -0.493078    44A     -0.478568    45A     -0.428350
      46A     -0.386392    47A     -0.335715    48A     -0.332237
      49A     -0.313182

  @DF-RHF Final Energy:  -590.33137478748165

   => Energetics <=

    Nuclear Repulsion Energy =            802.1898578976087038
    One-Electron Energy =               -2393.1273728895166641
    Two-Electron Energy =                1000.6061402044261968
    Total Energy =                       -590.3313747874816499
  Basis Set: (AUG-CC-PVTZ AUX)
    Blend: AUG-CC-PVTZ-RI
    Molecular point group: c1

    Geometry (in Angstrom), charge = 0, multiplicity = 1:

       Center              X                  Y                   Z               Mass
    ------------   -----------------  -----------------  -----------------  -----------------
         O           -0.442366832069     1.294239205053     0.296214270487    15.994914619570
         N            0.833325167931    -0.575795794947    -0.281906729513    14.003074004430
         C            3.254816167931    -0.445821794947    -0.163266729513    12.000000000000
         C            0.777345167931     0.678633205053     0.147077270487    12.000000000000
         C           -1.586047832069     0.508041205053     0.136663270487    12.000000000000
         C            3.148818167931     0.880800205053     0.286771270487    12.000000000000
         C            1.900279167931     1.461177205053     0.449334270487    12.000000000000
         C            2.048856467931    -1.095926194947    -0.420877329513    12.000000000000
         C            4.590337167931    -1.111557794947    -0.350624729513    12.000000000000
         C           -1.884870832069    -0.510308794947     1.041367270487    12.000000000000
         C           -2.462276832069     0.850591205053    -0.888946729513    12.000000000000
         C           -3.087761832069    -1.201783794947     0.902408270487    12.000000000000
         C           -3.666928832069     0.155078205053    -1.013333729513    12.000000000000
         C           -3.980585832069    -0.872734794947    -0.122039729513    12.000000000000
         H            4.046804167931     1.454715205053     0.510644270487     1.007825032230
         H            1.772319167931     2.481610205053     0.796681270487     1.007825032230
         H            2.076065167931    -2.146864794947    -0.780716729513     1.007825032230
         H            5.150520167931    -1.146195794947     0.589093270487     1.007825032230
         H            4.466646167931    -2.137800794947    -0.706977729513     1.007825032230
         H            5.201690167931    -0.572504794947    -1.081144729513     1.007825032230
         H           -1.183505832069    -0.751329794947     1.834699270487     1.007825032230
         H           -2.194043832069     1.654911205053    -1.568156729513     1.007825032230
         H           -3.330200832069    -1.999622794947     1.600244270487     1.007825032230
         H           -4.358449832069     0.417185205053    -1.810362729513     1.007825032230
         H           -4.917765832069    -1.414141794947    -0.222197729513     1.007825032230

  Basis Set: AUG-CC-PVTZ
    Blend: AUG-CC-PVTZ
  Basis Set: (AUG-CC-PVTZ AUX)
    Blend: AUG-CC-PVTZ-JKFIT
	 Reference Energy          =    -590.3313747874816499 [Eh]
	 Singles Energy            =      -0.0000000000000000 [Eh]
	 Same-Spin Energy          =      -0.6439581204734469 [Eh]
	 Opposite-Spin Energy      =      -1.9811288271977141 [Eh]
	 Correlation Energy        =      -2.6250869476711611 [Eh]
	 Total Energy              =    -592.9564617351528568 [Eh]

	 ================> DF-SCS-MP2 Energies <==================
	-----------------------------------------------------------
	 SCS Same-Spin Scale       =       0.3333333333333333 [-]
	 SCS Opposite-Spin Scale   =       1.2000000000000000 [-]
	 SCS Same-Spin Energy      =      -0.2146527068244823 [Eh]
	 SCS Opposite-Spin Energy  =      -2.3773545926372570 [Eh]
	 SCS Correlation Energy    =      -2.5920072994617391 [Eh]
	 SCS Total Energy          =    -592.9233820869434339 [Eh]
	-----------------------------------------------------------

  Dipole Moment: [D]
     X:     1.9841      Y:    -0.1611      Z:     0.1630     Total:     1.9973

*** Psi4 exiting successfully. Buy a developer a beer!
