                               Psi4 1.4a3.dev225

  ==> Input File <==

--------------------------------------------------------------------------
#psi4
#
memory 32 gb

molecule  {
0 1
  O       -0.4771680     1.3164760     0.3008390
  N        0.7985240    -0.5535590    -0.2772820
  C        3.2200150    -0.4235850    -0.1586420
  C        0.7425440     0.7008700     0.1517020
  C       -1.6848102     0.4624932     0.1686927
  C        3.1140170     0.9030370     0.2913960
  C        1.8654780     1.4834140     0.4539590
  C        2.0264240    -1.0936290    -0.4226860
  C        4.5555360    -1.0893210    -0.3460000
  C       -1.9196720    -0.4880720     1.0459920
  C       -2.4970780     0.8728280    -0.8843220
  C       -3.1225630    -1.1795470     0.9070330
  C       -3.7017300     0.1773150    -1.0087090
  C       -4.0153870    -0.8504980    -0.1174150
  H        4.0120030     1.4769520     0.5152690
  H        1.7375180     2.5038470     0.8013060
  H        2.0412640    -2.1246280    -0.7760920
  H        5.1157190    -1.1239590     0.5937180
  H        4.4318450    -2.1155640    -0.7023530
  H        5.1668890    -0.5502680    -1.0765200
  H       -1.2183070    -0.7290930     1.8393240
  H       -2.2288450     1.6771480    -1.5635320
  H       -3.3650020    -1.9773860     1.6048690
  H       -4.3932510     0.4394220    -1.8057380
  H       -4.9525670    -1.3919050    -0.2175730
units angstrom
no_reorient  #important for SAPT in psi4, default
symmetry c1  #important for SAPT in psi4, default
}

set PROPERTIES_ORIGIN ["COM"]
properties('MP2/aug-cc-pvtz', properties = ['dipole'])
--------------------------------------------------------------------------

    Molecular point group: c1
  Charge       = 0
  Multiplicity = 1
  Basis Set: AUG-CC-PVTZ
    Blend: AUG-CC-PVTZ
  Basis Set: (AUG-CC-PVTZ AUX)
    Blend: AUG-CC-PVTZ-JKFIT

    Orbital Energies [Eh]
    ---------------------

    Doubly Occupied:

       1A    -20.587065     2A    -15.558174     3A    -11.334071
       4A    -11.293302     5A    -11.273556     6A    -11.257598
       7A    -11.241556     8A    -11.240442     9A    -11.238821
      10A    -11.237118    11A    -11.236068    12A    -11.234265
      13A    -11.230009    14A    -11.228333    15A     -1.401545
      16A     -1.246386    17A     -1.160447    18A     -1.098481
      19A     -1.046955    20A     -1.027690    21A     -1.007571
      22A     -0.938107    23A     -0.870695    24A     -0.843431
      25A     -0.830596    26A     -0.800637    27A     -0.729004
      28A     -0.699461    29A     -0.679589    30A     -0.650889
      31A     -0.638444    32A     -0.625992    33A     -0.607816
      34A     -0.599698    35A     -0.587979    36A     -0.584985
      37A     -0.566547    38A     -0.556901    39A     -0.546072
      40A     -0.517771    41A     -0.515147    42A     -0.505264
      43A     -0.502758    44A     -0.481042    45A     -0.423743
      46A     -0.380788    47A     -0.345176    48A     -0.334562
      49A     -0.313658

  @DF-RHF Final Energy:  -590.31965671916669

   => Energetics <=

    Nuclear Repulsion Energy =            801.6118483380846556
    One-Electron Energy =               -2392.1505998298712257
    Two-Electron Energy =                1000.2190947726198829
    Total Energy =                       -590.3196567191666873
  Basis Set: (AUG-CC-PVTZ AUX)
    Blend: AUG-CC-PVTZ-RI
    Molecular point group: c1

    Geometry (in Angstrom), charge = 0, multiplicity = 1:

       Center              X                  Y                   Z               Mass
    ------------   -----------------  -----------------  -----------------  -----------------
         O           -0.439021811505     1.299926851938     0.294854587786    15.994914619570
         N            0.836670188495    -0.570108148062    -0.283266412214    14.003074004430
         C            3.258161188495    -0.440134148062    -0.164626412214    12.000000000000
         C            0.780690188495     0.684320851938     0.145717587786    12.000000000000
         C           -1.646664011505     0.445944051938     0.162708287786    12.000000000000
         C            3.152163188495     0.886487851938     0.285411587786    12.000000000000
         C            1.903624188495     1.466864851938     0.447974587786    12.000000000000
         C            2.064570188495    -1.110178148062    -0.428670412214    12.000000000000
         C            4.593682188495    -1.105870148062    -0.351984412214    12.000000000000
         C           -1.881525811505    -0.504621148062     1.040007587786    12.000000000000
         C           -2.458931811505     0.856278851938    -0.890306412214    12.000000000000
         C           -3.084416811505    -1.196096148062     0.901048587786    12.000000000000
         C           -3.663583811505     0.160765851938    -1.014693412214    12.000000000000
         C           -3.977240811505    -0.867047148062    -0.123399412214    12.000000000000
         H            4.050149188495     1.460402851938     0.509284587786     1.007825032230
         H            1.775664188495     2.487297851938     0.795321587786     1.007825032230
         H            2.079410188495    -2.141177148062    -0.782076412214     1.007825032230
         H            5.153865188495    -1.140508148062     0.587733587786     1.007825032230
         H            4.469991188495    -2.132113148062    -0.708337412214     1.007825032230
         H            5.205035188495    -0.566817148062    -1.082504412214     1.007825032230
         H           -1.180160811505    -0.745642148062     1.833339587786     1.007825032230
         H           -2.190698811505     1.660598851938    -1.569516412214     1.007825032230
         H           -3.326855811505    -1.993935148062     1.598884587786     1.007825032230
         H           -4.355104811505     0.422872851938    -1.811722412214     1.007825032230
         H           -4.914420811505    -1.408454148062    -0.223557412214     1.007825032230

  Basis Set: AUG-CC-PVTZ
    Blend: AUG-CC-PVTZ
  Basis Set: (AUG-CC-PVTZ AUX)
    Blend: AUG-CC-PVTZ-JKFIT
	 Reference Energy          =    -590.3196567191666873 [Eh]
	 Singles Energy            =      -0.0000000000000000 [Eh]
	 Same-Spin Energy          =      -0.6441599544278519 [Eh]
	 Opposite-Spin Energy      =      -1.9824538143834827 [Eh]
	 Correlation Energy        =      -2.6266137688113345 [Eh]
	 Total Energy              =    -592.9462704879780404 [Eh]

	 ================> DF-SCS-MP2 Energies <==================
	-----------------------------------------------------------
	 SCS Same-Spin Scale       =       0.3333333333333333 [-]
	 SCS Opposite-Spin Scale   =       1.2000000000000000 [-]
	 SCS Same-Spin Energy      =      -0.2147199848092839 [Eh]
	 SCS Opposite-Spin Energy  =      -2.3789445772601789 [Eh]
	 SCS Correlation Energy    =      -2.5936645620694629 [Eh]
	 SCS Total Energy          =    -592.9133212812361080 [Eh]
	-----------------------------------------------------------

  Dipole Moment: [D]
     X:     1.3847      Y:    -0.3322      Z:     0.1597     Total:     1.4329

*** Psi4 exiting successfully. Buy a developer a beer!
