                               Psi4 1.4a3.dev225

  ==> Input File <==

--------------------------------------------------------------------------
#psi4
#
memory 32 gb

molecule  {
0 1
  O       -0.4771680     1.3164760     0.3008390
  N        0.7985240    -0.5535590    -0.2772820
  C        3.2200150    -0.4235850    -0.1586420
  C        0.7425440     0.7008700     0.1517020
  C       -1.6208490     0.5302780     0.1412880
  C        3.1140170     0.9030370     0.2913960
  C        1.8654780     1.4834140     0.4539590
  C        2.0264240    -1.0936290    -0.4226860
  C        4.5555360    -1.0893210    -0.3460000
  C       -1.9196720    -0.4880720     1.0459920
  C       -2.4970780     0.8728280    -0.8843220
  C       -3.1225630    -1.1795470     0.9070330
  C       -3.7017300     0.1773150    -1.0087090
  C       -3.9515308    -0.8740321    -0.0441448
  H        4.0120030     1.4769520     0.5152690
  H        1.7375180     2.5038470     0.8013060
  H        2.0412640    -2.1246280    -0.7760920
  H        5.1157190    -1.1239590     0.5937180
  H        4.4318450    -2.1155640    -0.7023530
  H        5.1668890    -0.5502680    -1.0765200
  H       -1.2183070    -0.7290930     1.8393240
  H       -2.2288450     1.6771480    -1.5635320
  H       -3.3650020    -1.9773860     1.6048690
  H       -4.3932510     0.4394220    -1.8057380
  H       -4.9525670    -1.3919050    -0.2175730
units angstrom
no_reorient  #important for SAPT in psi4, default
symmetry c1  #important for SAPT in psi4, default
}

set PROPERTIES_ORIGIN ["COM"]
properties('MP2/aug-cc-pvtz', properties = ['dipole'])
--------------------------------------------------------------------------

    Molecular point group: c1
  Charge       = 0
  Multiplicity = 1
  Basis Set: AUG-CC-PVTZ
    Blend: AUG-CC-PVTZ
  Basis Set: (AUG-CC-PVTZ AUX)
    Blend: AUG-CC-PVTZ-JKFIT

    Orbital Energies [Eh]
    ---------------------

    Doubly Occupied:

       1A    -20.598028     2A    -15.562946     3A    -11.340419
       4A    -11.294189     5A    -11.277053     6A    -11.261201
       7A    -11.242935     8A    -11.241722     9A    -11.240886
      10A    -11.232591    11A    -11.232426    12A    -11.231390
      13A    -11.229007    14A    -11.223534    15A     -1.430200
      16A     -1.253134    17A     -1.152372    18A     -1.102357
      19A     -1.054445    20A     -1.022423    21A     -1.000010
      22A     -0.943016    23A     -0.877164    24A     -0.846587
      25A     -0.827578    26A     -0.798650    27A     -0.737670
      28A     -0.704565    29A     -0.673020    30A     -0.658130
      31A     -0.642533    32A     -0.627010    33A     -0.610808
      34A     -0.599969    35A     -0.590710    36A     -0.586987
      37A     -0.569770    38A     -0.561964    39A     -0.548609
      40A     -0.522124    41A     -0.520186    42A     -0.501667
      43A     -0.489286    44A     -0.476022    45A     -0.427919
      46A     -0.384163    47A     -0.345718    48A     -0.329457
      49A     -0.311030

  @DF-RHF Final Energy:  -590.31788944853247

   => Energetics <=

    Nuclear Repulsion Energy =            802.8838611913129171
    One-Electron Energy =               -2394.5323395094801526
    Two-Electron Energy =                1001.3305888696347665
    Total Energy =                       -590.3178894485324690
  Basis Set: (AUG-CC-PVTZ AUX)
    Blend: AUG-CC-PVTZ-RI
    Molecular point group: c1

    Geometry (in Angstrom), charge = 0, multiplicity = 1:

       Center              X                  Y                   Z               Mass
    ------------   -----------------  -----------------  -----------------  -----------------
         O           -0.447308904230     1.297057839941     0.291880879579    15.994914619570
         N            0.828383095770    -0.572977160059    -0.286240120421    14.003074004430
         C            3.249874095770    -0.443003160059    -0.167600120421    12.000000000000
         C            0.772403095770     0.681451839941     0.142743879579    12.000000000000
         C           -1.590989904230     0.510859839941     0.132329879579    12.000000000000
         C            3.143876095770     0.883618839941     0.282437879579    12.000000000000
         C            1.895337095770     1.463995839941     0.445000879579    12.000000000000
         C            2.056283095770    -1.113047160059    -0.431644120421    12.000000000000
         C            4.585395095770    -1.108739160059    -0.354958120421    12.000000000000
         C           -1.889812904230    -0.507490160059     1.037033879579    12.000000000000
         C           -2.467218904230     0.853409839941    -0.893280120421    12.000000000000
         C           -3.092703904230    -1.198965160059     0.898074879579    12.000000000000
         C           -3.671870904230     0.157896839941    -1.017667120421    12.000000000000
         C           -3.921671704230    -0.893450260059    -0.053102920421    12.000000000000
         H            4.041862095770     1.457533839941     0.506310879579     1.007825032230
         H            1.767377095770     2.484428839941     0.792347879579     1.007825032230
         H            2.071123095770    -2.144046160059    -0.785050120421     1.007825032230
         H            5.145578095770    -1.143377160059     0.584759879579     1.007825032230
         H            4.461704095770    -2.134982160059    -0.711311120421     1.007825032230
         H            5.196748095770    -0.569686160059    -1.085478120421     1.007825032230
         H           -1.188447904230    -0.748511160059     1.830365879579     1.007825032230
         H           -2.198985904230     1.657729839941    -1.572490120421     1.007825032230
         H           -3.335142904230    -1.996804160059     1.595910879579     1.007825032230
         H           -4.363391904230     0.420003839941    -1.814696120421     1.007825032230
         H           -4.922707904230    -1.411323160059    -0.226531120421     1.007825032230

  Basis Set: AUG-CC-PVTZ
    Blend: AUG-CC-PVTZ
  Basis Set: (AUG-CC-PVTZ AUX)
    Blend: AUG-CC-PVTZ-JKFIT
	 Reference Energy          =    -590.3178894485324690 [Eh]
	 Singles Energy            =      -0.0000000000000000 [Eh]
	 Same-Spin Energy          =      -0.6440440160760159 [Eh]
	 Opposite-Spin Energy      =      -1.9819117717097632 [Eh]
	 Correlation Energy        =      -2.6259557877857791 [Eh]
	 Total Energy              =    -592.9438452363182250 [Eh]

	 ================> DF-SCS-MP2 Energies <==================
	-----------------------------------------------------------
	 SCS Same-Spin Scale       =       0.3333333333333333 [-]
	 SCS Opposite-Spin Scale   =       1.2000000000000000 [-]
	 SCS Same-Spin Energy      =      -0.2146813386920053 [Eh]
	 SCS Opposite-Spin Energy  =      -2.3782941260517156 [Eh]
	 SCS Correlation Energy    =      -2.5929754647437209 [Eh]
	 SCS Total Energy          =    -592.9108649132762139 [Eh]
	-----------------------------------------------------------

  Dipole Moment: [D]
     X:     2.0079      Y:    -0.1556      Z:     0.1338     Total:     2.0184

*** Psi4 exiting successfully. Buy a developer a beer!
