                               Psi4 1.4a3.dev225

  ==> Input File <==

--------------------------------------------------------------------------
#psi4
#
memory 32 gb

molecule  {
0 1
  O       -0.4771680     1.3164760     0.3008390
  N        0.7985240    -0.5535590    -0.2772820
  C        3.2200150    -0.4235850    -0.1586420
  C        0.7425440     0.7008700     0.1517020
  C       -1.6208490     0.5302780     0.1412880
  C        3.1140170     0.9030370     0.2913960
  C        1.8654780     1.4834140     0.4539590
  C        2.0264240    -1.0936290    -0.4226860
  C        4.7331355    -1.1778515    -0.3709151
  C       -1.9196720    -0.4880720     1.0459920
  C       -2.4970780     0.8728280    -0.8843220
  C       -3.1225630    -1.1795470     0.9070330
  C       -3.7017300     0.1773150    -1.0087090
  C       -4.0153870    -0.8504980    -0.1174150
  H        4.0120030     1.4769520     0.5152690
  H        1.7375180     2.5038470     0.8013060
  H        2.0412640    -2.1246280    -0.7760920
  H        5.1157190    -1.1239590     0.5937180
  H        4.4318450    -2.1155640    -0.7023530
  H        5.1668890    -0.5502680    -1.0765200
  H       -1.2183070    -0.7290930     1.8393240
  H       -2.2288450     1.6771480    -1.5635320
  H       -3.3650020    -1.9773860     1.6048690
  H       -4.3932510     0.4394220    -1.8057380
  H       -4.9525670    -1.3919050    -0.2175730
units angstrom
no_reorient  #important for SAPT in psi4, default
symmetry c1  #important for SAPT in psi4, default
}

set PROPERTIES_ORIGIN ["COM"]
properties('MP2/aug-cc-pvtz', properties = ['dipole'])
--------------------------------------------------------------------------

    Molecular point group: c1
  Charge       = 0
  Multiplicity = 1
  Basis Set: AUG-CC-PVTZ
    Blend: AUG-CC-PVTZ
  Basis Set: (AUG-CC-PVTZ AUX)
    Blend: AUG-CC-PVTZ-JKFIT

    Orbital Energies [Eh]
    ---------------------

    Doubly Occupied:

       1A    -20.597787     2A    -15.562703     3A    -11.339645
       4A    -11.295209     5A    -11.276928     6A    -11.260882
       7A    -11.248830     8A    -11.239935     9A    -11.236380
      10A    -11.236279    11A    -11.233597    12A    -11.231657
      13A    -11.230922    14A    -11.230079    15A     -1.429973
      16A     -1.251956    17A     -1.145413    18A     -1.092450
      19A     -1.044603    20A     -1.014806    21A     -1.000796
      22A     -0.949684    23A     -0.875192    24A     -0.843783
      25A     -0.830536    26A     -0.799894    27A     -0.735955
      28A     -0.702109    29A     -0.677935    30A     -0.654886
      31A     -0.630934    32A     -0.625617    33A     -0.610602
      34A     -0.607506    35A     -0.598271    36A     -0.588547
      37A     -0.579109    38A     -0.573559    39A     -0.556587
      40A     -0.515882    41A     -0.511884    42A     -0.493348
      43A     -0.478820    44A     -0.475618    45A     -0.423132
      46A     -0.384455    47A     -0.335135    48A     -0.332830
      49A     -0.314053

  @DF-RHF Final Energy:  -590.30440439401832

   => Energetics <=

    Nuclear Repulsion Energy =            798.2728160681087957
    One-Electron Energy =               -2385.3410567686114518
    Two-Electron Energy =                 996.7638363064843361
    Total Energy =                       -590.3044043940183201
  Basis Set: (AUG-CC-PVTZ AUX)
    Blend: AUG-CC-PVTZ-RI
    Molecular point group: c1

    Geometry (in Angstrom), charge = 0, multiplicity = 1:

       Center              X                  Y                   Z               Mass
    ------------   -----------------  -----------------  -----------------  -----------------
         O           -0.454683497000     1.301271907772     0.298246763139    15.994914619570
         N            0.821008503000    -0.568763092228    -0.279874236861    14.003074004430
         C            3.242499503000    -0.438789092228    -0.161234236861    12.000000000000
         C            0.765028503000     0.685665907772     0.149109763139    12.000000000000
         C           -1.598364497000     0.515073907772     0.138695763139    12.000000000000
         C            3.136501503000     0.887832907772     0.288803763139    12.000000000000
         C            1.887962503000     1.468209907772     0.451366763139    12.000000000000
         C            2.048908503000    -1.108833092228    -0.425278236861    12.000000000000
         C            4.755620003000    -1.193055592228    -0.373507336861    12.000000000000
         C           -1.897187497000    -0.503276092228     1.043399763139    12.000000000000
         C           -2.474593497000     0.857623907772    -0.886914236861    12.000000000000
         C           -3.100078497000    -1.194751092228     0.904440763139    12.000000000000
         C           -3.679245497000     0.162110907772    -1.011301236861    12.000000000000
         C           -3.992902497000    -0.865702092228    -0.120007236861    12.000000000000
         H            4.034487503000     1.461747907772     0.512676763139     1.007825032230
         H            1.760002503000     2.488642907772     0.798713763139     1.007825032230
         H            2.063748503000    -2.139832092228    -0.778684236861     1.007825032230
         H            5.138203503000    -1.139163092228     0.591125763139     1.007825032230
         H            4.454329503000    -2.130768092228    -0.704945236861     1.007825032230
         H            5.189373503000    -0.565472092228    -1.079112236861     1.007825032230
         H           -1.195822497000    -0.744297092228     1.836731763139     1.007825032230
         H           -2.206360497000     1.661943907772    -1.566124236861     1.007825032230
         H           -3.342517497000    -1.992590092228     1.602276763139     1.007825032230
         H           -4.370766497000     0.424217907772    -1.808330236861     1.007825032230
         H           -4.930082497000    -1.407109092228    -0.220165236861     1.007825032230

  Basis Set: AUG-CC-PVTZ
    Blend: AUG-CC-PVTZ
  Basis Set: (AUG-CC-PVTZ AUX)
    Blend: AUG-CC-PVTZ-JKFIT
	 Reference Energy          =    -590.3044043940183201 [Eh]
	 Singles Energy            =      -0.0000000000000000 [Eh]
	 Same-Spin Energy          =      -0.6437722073771803 [Eh]
	 Opposite-Spin Energy      =      -1.9824648612641842 [Eh]
	 Correlation Energy        =      -2.6262370686413643 [Eh]
	 Total Energy              =    -592.9306414626596506 [Eh]

	 ================> DF-SCS-MP2 Energies <==================
	-----------------------------------------------------------
	 SCS Same-Spin Scale       =       0.3333333333333333 [-]
	 SCS Opposite-Spin Scale   =       1.2000000000000000 [-]
	 SCS Same-Spin Energy      =      -0.2145907357923934 [Eh]
	 SCS Opposite-Spin Energy  =      -2.3789578335170209 [Eh]
	 SCS Correlation Energy    =      -2.5935485693094145 [Eh]
	 SCS Total Energy          =    -592.8979529633277252 [Eh]
	-----------------------------------------------------------

  Dipole Moment: [D]
     X:     1.9942      Y:    -0.1790      Z:     0.1573     Total:     2.0084

*** Psi4 exiting successfully. Buy a developer a beer!
