                               Psi4 1.4a3.dev225

  ==> Input File <==

--------------------------------------------------------------------------
#psi4
#
memory 32 gb

molecule  {
0 1
  O       -0.4771680     1.3164760     0.3008390
  N        0.7985240    -0.5535590    -0.2772820
  C        3.2200150    -0.4235850    -0.1586420
  C        0.7425440     0.7008700     0.1517020
  C       -1.6208490     0.5302780     0.1412880
  C        3.1140170     0.9030370     0.2913960
  C        1.8654780     1.4834140     0.4539590
  C        2.0264240    -1.0936290    -0.4226860
  C        4.5555360    -1.0893210    -0.3460000
  C       -1.9196720    -0.4880720     1.0459920
  C       -2.4970780     0.8728280    -0.8843220
  C       -3.1225630    -1.1795470     0.9070330
  C       -3.7017300     0.1773150    -1.0087090
  C       -4.0153870    -0.8504980    -0.1174150
  H        4.0284952     1.4874924     0.5193806
  H        1.7375180     2.5038470     0.8013060
  H        2.0412640    -2.1246280    -0.7760920
  H        5.1157190    -1.1239590     0.5937180
  H        4.4318450    -2.1155640    -0.7023530
  H        5.1668890    -0.5502680    -1.0765200
  H       -1.2183070    -0.7290930     1.8393240
  H       -2.2288450     1.6771480    -1.5635320
  H       -3.3650020    -1.9773860     1.6048690
  H       -4.3932510     0.4394220    -1.8057380
  H       -4.9525670    -1.3919050    -0.2175730
units angstrom
no_reorient  #important for SAPT in psi4, default
symmetry c1  #important for SAPT in psi4, default
}

set PROPERTIES_ORIGIN ["COM"]
properties('MP2/aug-cc-pvtz', properties = ['dipole'])
--------------------------------------------------------------------------

    Molecular point group: c1
  Charge       = 0
  Multiplicity = 1
  Basis Set: AUG-CC-PVTZ
    Blend: AUG-CC-PVTZ
  Basis Set: (AUG-CC-PVTZ AUX)
    Blend: AUG-CC-PVTZ-JKFIT

    Orbital Energies [Eh]
    ---------------------

    Doubly Occupied:

       1A    -20.598652     2A    -15.563467     3A    -11.340856
       4A    -11.295700     5A    -11.277446     6A    -11.263716
       7A    -11.243408     8A    -11.241330     9A    -11.236768
      10A    -11.236668    11A    -11.232748    12A    -11.232113
      13A    -11.231373    14A    -11.230473    15A     -1.430805
      16A     -1.253565    17A     -1.145903    18A     -1.102248
      19A     -1.053081    20A     -1.015286    21A     -1.003750
      22A     -0.942883    23A     -0.876748    24A     -0.842204
      25A     -0.830687    26A     -0.800095    27A     -0.735957
      28A     -0.704583    29A     -0.679194    30A     -0.655529
      31A     -0.643329    32A     -0.626481    33A     -0.610055
      34A     -0.594320    35A     -0.591847    36A     -0.586156
      37A     -0.569665    38A     -0.561897    39A     -0.549490
      40A     -0.521231    41A     -0.513601    42A     -0.511732
      43A     -0.492722    44A     -0.477636    45A     -0.428159
      46A     -0.384554    47A     -0.335472    48A     -0.332422
      49A     -0.313661

  @DF-RHF Final Energy:  -590.33091543968339

   => Energetics <=

    Nuclear Repulsion Energy =            801.6101554386010548
    One-Electron Energy =               -2391.9988082651989316
    Two-Electron Energy =                1000.0577373869145958
    Total Energy =                       -590.3309154396833947
  Basis Set: (AUG-CC-PVTZ AUX)
    Blend: AUG-CC-PVTZ-RI
    Molecular point group: c1

    Geometry (in Angstrom), charge = 0, multiplicity = 1:

       Center              X                  Y                   Z               Mass
    ------------   -----------------  -----------------  -----------------  -----------------
         O           -0.443258565525     1.295474602181     0.296608993971    15.994914619570
         N            0.832433434475    -0.574560397819    -0.281512006029    14.003074004430
         C            3.253924434475    -0.444586397819    -0.162872006029    12.000000000000
         C            0.776453434475     0.679868602181     0.147471993971    12.000000000000
         C           -1.586939565525     0.509276602181     0.137057993971    12.000000000000
         C            3.147926434475     0.882035602181     0.287165993971    12.000000000000
         C            1.899387434475     1.462412602181     0.449728993971    12.000000000000
         C            2.060333434475    -1.114630397819    -0.426916006029    12.000000000000
         C            4.589445434475    -1.110322397819    -0.350230006029    12.000000000000
         C           -1.885762565525    -0.509073397819     1.041761993971    12.000000000000
         C           -2.463168565525     0.851826602181    -0.888552006029    12.000000000000
         C           -3.088653565525    -1.200548397819     0.902802993971    12.000000000000
         C           -3.667820565525     0.156313602181    -1.012939006029    12.000000000000
         C           -3.981477565525    -0.871499397819    -0.121645006029    12.000000000000
         H            4.062404634475     1.466491002181     0.515150593971     1.007825032230
         H            1.771427434475     2.482845602181     0.797075993971     1.007825032230
         H            2.075173434475    -2.145629397819    -0.780322006029     1.007825032230
         H            5.149628434475    -1.144960397819     0.589487993971     1.007825032230
         H            4.465754434475    -2.136565397819    -0.706583006029     1.007825032230
         H            5.200798434475    -0.571269397819    -1.080750006029     1.007825032230
         H           -1.184397565525    -0.750094397819     1.835093993971     1.007825032230
         H           -2.194935565525     1.656146602181    -1.567762006029     1.007825032230
         H           -3.331092565525    -1.998387397819     1.600638993971     1.007825032230
         H           -4.359341565525     0.418420602181    -1.809968006029     1.007825032230
         H           -4.918657565525    -1.412906397819    -0.221803006029     1.007825032230

  Basis Set: AUG-CC-PVTZ
    Blend: AUG-CC-PVTZ
  Basis Set: (AUG-CC-PVTZ AUX)
    Blend: AUG-CC-PVTZ-JKFIT
	 Reference Energy          =    -590.3309154396833947 [Eh]
	 Singles Energy            =      -0.0000000000000000 [Eh]
	 Same-Spin Energy          =      -0.6440415988228436 [Eh]
	 Opposite-Spin Energy      =      -1.9816322482563651 [Eh]
	 Correlation Energy        =      -2.6256738470792085 [Eh]
	 Total Energy              =    -592.9565892867625507 [Eh]

	 ================> DF-SCS-MP2 Energies <==================
	-----------------------------------------------------------
	 SCS Same-Spin Scale       =       0.3333333333333333 [-]
	 SCS Opposite-Spin Scale   =       1.2000000000000000 [-]
	 SCS Same-Spin Energy      =      -0.2146805329409479 [Eh]
	 SCS Opposite-Spin Energy  =      -2.3779586979076379 [Eh]
	 SCS Correlation Energy    =      -2.5926392308485857 [Eh]
	 SCS Total Energy          =    -592.9235546705319848 [Eh]
	-----------------------------------------------------------

  Dipole Moment: [D]
     X:     2.0091      Y:    -0.1876      Z:     0.1549     Total:     2.0238

*** Psi4 exiting successfully. Buy a developer a beer!
