                               Psi4 1.4a3.dev225

  ==> Input File <==

--------------------------------------------------------------------------
#psi4
#
memory 32 gb

molecule  {
0 1
  O       -0.4771680     1.3164760     0.3008390
  N        0.7985240    -0.5535590    -0.2772820
  C        3.2200150    -0.4235850    -0.1586420
  C        0.7425440     0.7008700     0.1517020
  C       -1.6208490     0.5302780     0.1412880
  C        3.1140170     0.9030370     0.2913960
  C        1.8654780     1.4834140     0.4539590
  C        2.0264240    -1.0936290    -0.4226860
  C        4.5555360    -1.0893210    -0.3460000
  C       -1.9196720    -0.4880720     1.0459920
  C       -2.4970780     0.8728280    -0.8843220
  C       -3.1225630    -1.1795470     0.9070330
  C       -3.7017300     0.1773150    -1.0087090
  C       -4.0153870    -0.8504980    -0.1174150
  H        4.0120030     1.4769520     0.5152690
  H        1.7375180     2.5038470     0.8013060
  H        2.0412640    -2.1246280    -0.7760920
  H        5.1171647    -1.1620159     0.5906767
  H        4.4318450    -2.1155640    -0.7023530
  H        5.1668890    -0.5502680    -1.0765200
  H       -1.2183070    -0.7290930     1.8393240
  H       -2.2288450     1.6771480    -1.5635320
  H       -3.3650020    -1.9773860     1.6048690
  H       -4.3932510     0.4394220    -1.8057380
  H       -4.9525670    -1.3919050    -0.2175730
units angstrom
no_reorient  #important for SAPT in psi4, default
symmetry c1  #important for SAPT in psi4, default
}

set PROPERTIES_ORIGIN ["COM"]
properties('MP2/aug-cc-pvtz', properties = ['dipole'])
--------------------------------------------------------------------------

    Molecular point group: c1
  Charge       = 0
  Multiplicity = 1
  Basis Set: AUG-CC-PVTZ
    Blend: AUG-CC-PVTZ
  Basis Set: (AUG-CC-PVTZ AUX)
    Blend: AUG-CC-PVTZ-JKFIT

    Orbital Energies [Eh]
    ---------------------

    Doubly Occupied:

       1A    -20.598648     2A    -15.563448     3A    -11.340844
       4A    -11.295692     5A    -11.277476     6A    -11.261470
       7A    -11.243333     8A    -11.241119     9A    -11.236766
      10A    -11.236666    11A    -11.232591    12A    -11.232111
      13A    -11.231369    14A    -11.230471    15A     -1.430798
      16A     -1.253548    17A     -1.145899    18A     -1.102528
      19A     -1.053012    20A     -1.015282    21A     -1.003789
      22A     -0.942917    23A     -0.877662    24A     -0.842297
      25A     -0.830713    26A     -0.800896    27A     -0.736852
      28A     -0.704637    29A     -0.679180    30A     -0.655538
      31A     -0.643667    32A     -0.626464    33A     -0.611087
      34A     -0.595122    35A     -0.592190    36A     -0.586404
      37A     -0.570111    38A     -0.563343    39A     -0.547149
      40A     -0.521296    41A     -0.513726    42A     -0.511625
      43A     -0.492729    44A     -0.477689    45A     -0.428264
      46A     -0.384544    47A     -0.335471    48A     -0.332464
      49A     -0.313738

  @DF-RHF Final Energy:  -590.33145493912457

   => Energetics <=

    Nuclear Repulsion Energy =            801.6859416043720330
    One-Electron Energy =               -2392.1455289591604014
    Two-Electron Energy =                1000.1281324156636856
    Total Energy =                       -590.3314549391245691
  Basis Set: (AUG-CC-PVTZ AUX)
    Blend: AUG-CC-PVTZ-RI
    Molecular point group: c1

    Geometry (in Angstrom), charge = 0, multiplicity = 1:

       Center              X                  Y                   Z               Mass
    ------------   -----------------  -----------------  -----------------  -----------------
         O           -0.443176633893     1.295739225587     0.296647943146    15.994914619570
         N            0.832515366107    -0.574295774413    -0.281473056854    14.003074004430
         C            3.254006366107    -0.444321774413    -0.162833056854    12.000000000000
         C            0.776535366107     0.680133225587     0.147510943146    12.000000000000
         C           -1.586857633893     0.509541225587     0.137096943146    12.000000000000
         C            3.148008366107     0.882300225587     0.287204943146    12.000000000000
         C            1.899469366107     1.462677225587     0.449767943146    12.000000000000
         C            2.060415366107    -1.114365774413    -0.426877056854    12.000000000000
         C            4.589527366107    -1.110057774413    -0.350191056854    12.000000000000
         C           -1.885680633893    -0.508808774413     1.041800943146    12.000000000000
         C           -2.463086633893     0.852091225587    -0.888513056854    12.000000000000
         C           -3.088571633893    -1.200283774413     0.902841943146    12.000000000000
         C           -3.667738633893     0.156578225587    -1.012900056854    12.000000000000
         C           -3.981395633893    -0.871234774413    -0.121606056854    12.000000000000
         H            4.045994366107     1.456215225587     0.511077943146     1.007825032230
         H            1.771509366107     2.483110225587     0.797114943146     1.007825032230
         H            2.075255366107    -2.145364774413    -0.780283056854     1.007825032230
         H            5.151156066107    -1.182752674413     0.586485643146     1.007825032230
         H            4.465836366107    -2.136300774413    -0.706544056854     1.007825032230
         H            5.200880366107    -0.571004774413    -1.080711056854     1.007825032230
         H           -1.184315633893    -0.749829774413     1.835132943146     1.007825032230
         H           -2.194853633893     1.656411225587    -1.567723056854     1.007825032230
         H           -3.331010633893    -1.998122774413     1.600677943146     1.007825032230
         H           -4.359259633893     0.418685225587    -1.809929056854     1.007825032230
         H           -4.918575633893    -1.412641774413    -0.221764056854     1.007825032230

  Basis Set: AUG-CC-PVTZ
    Blend: AUG-CC-PVTZ
  Basis Set: (AUG-CC-PVTZ AUX)
    Blend: AUG-CC-PVTZ-JKFIT
	 Reference Energy          =    -590.3314549391245691 [Eh]
	 Singles Energy            =      -0.0000000000000000 [Eh]
	 Same-Spin Energy          =      -0.6439864049477386 [Eh]
	 Opposite-Spin Energy      =      -1.9814539998014562 [Eh]
	 Correlation Energy        =      -2.6254404047491948 [Eh]
	 Total Energy              =    -592.9568953438737253 [Eh]

	 ================> DF-SCS-MP2 Energies <==================
	-----------------------------------------------------------
	 SCS Same-Spin Scale       =       0.3333333333333333 [-]
	 SCS Opposite-Spin Scale   =       1.2000000000000000 [-]
	 SCS Same-Spin Energy      =      -0.2146621349825795 [Eh]
	 SCS Opposite-Spin Energy  =      -2.3777447997617474 [Eh]
	 SCS Correlation Energy    =      -2.5924069347443268 [Eh]
	 SCS Total Energy          =    -592.9238618738688729 [Eh]
	-----------------------------------------------------------

  Dipole Moment: [D]
     X:     2.0079      Y:    -0.1935      Z:     0.1602     Total:     2.0235

*** Psi4 exiting successfully. Buy a developer a beer!
