                               Psi4 1.4a3.dev225

  ==> Input File <==

--------------------------------------------------------------------------
#psi4
#
memory 32 gb

molecule  {
0 1
  O       -0.4771680     1.3164760     0.3008390
  N        0.7985240    -0.5535590    -0.2772820
  C        3.2200150    -0.4235850    -0.1586420
  C        0.7425440     0.7008700     0.1517020
  C       -1.6208490     0.5302780     0.1412880
  C        3.1140170     0.9030370     0.2913960
  C        1.8654780     1.4834140     0.4539590
  C        2.0264240    -1.0936290    -0.4226860
  C        4.5555360    -1.0893210    -0.3460000
  C       -1.9196720    -0.4880720     1.0459920
  C       -2.4970780     0.8728280    -0.8843220
  C       -3.1225630    -1.1795470     0.9070330
  C       -3.7017300     0.1773150    -1.0087090
  C       -4.1430995    -0.8034297    -0.2639554
  H        4.0120030     1.4769520     0.5152690
  H        1.7375180     2.5038470     0.8013060
  H        2.0412640    -2.1246280    -0.7760920
  H        5.1157190    -1.1239590     0.5937180
  H        4.4318450    -2.1155640    -0.7023530
  H        5.1668890    -0.5502680    -1.0765200
  H       -1.2183070    -0.7290930     1.8393240
  H       -2.2288450     1.6771480    -1.5635320
  H       -3.3650020    -1.9773860     1.6048690
  H       -4.3932510     0.4394220    -1.8057380
  H       -4.9525670    -1.3919050    -0.2175730
units angstrom
no_reorient  #important for SAPT in psi4, default
symmetry c1  #important for SAPT in psi4, default
}

set PROPERTIES_ORIGIN ["COM"]
properties('MP2/aug-cc-pvtz', properties = ['dipole'])
--------------------------------------------------------------------------

    Molecular point group: c1
  Charge       = 0
  Multiplicity = 1
  Basis Set: AUG-CC-PVTZ
    Blend: AUG-CC-PVTZ
  Basis Set: (AUG-CC-PVTZ AUX)
    Blend: AUG-CC-PVTZ-JKFIT

    Orbital Energies [Eh]
    ---------------------

    Doubly Occupied:

       1A    -20.600140     2A    -15.564410     3A    -11.341553
       4A    -11.299563     5A    -11.277874     6A    -11.261967
       7A    -11.252156     8A    -11.243863     9A    -11.241822
      10A    -11.233151    11A    -11.232994    12A    -11.232694
      13A    -11.229648    14A    -11.227613    15A     -1.432192
      16A     -1.254272    17A     -1.139953    18A     -1.103236
      19A     -1.054260    20A     -1.023363    21A     -0.994496
      22A     -0.943339    23A     -0.880342    24A     -0.841613
      25A     -0.829036    26A     -0.802525    27A     -0.735998
      28A     -0.706345    29A     -0.695363    30A     -0.653631
      31A     -0.644415    32A     -0.626442    33A     -0.611720
      34A     -0.599982    35A     -0.590305    36A     -0.579719
      37A     -0.574777    38A     -0.562973    39A     -0.551488
      40A     -0.534251    41A     -0.521352    42A     -0.501355
      43A     -0.483926    44A     -0.453411    45A     -0.428927
      46A     -0.385147    47A     -0.349651    48A     -0.323313
      49A     -0.309859

  @DF-RHF Final Energy:  -590.29078932607501

   => Energetics <=

    Nuclear Repulsion Energy =            799.7122628147145633
    One-Electron Energy =               -2388.0812569052623076
    Two-Electron Energy =                 998.0782047644728436
    Total Energy =                       -590.2907893260750143
  Basis Set: (AUG-CC-PVTZ AUX)
    Blend: AUG-CC-PVTZ-RI
    Molecular point group: c1

    Geometry (in Angstrom), charge = 0, multiplicity = 1:

       Center              X                  Y                   Z               Mass
    ------------   -----------------  -----------------  -----------------  -----------------
         O           -0.434888470236     1.292480304838     0.306132388560    15.994914619570
         N            0.840803529764    -0.577554695162    -0.271988611440    14.003074004430
         C            3.262294529764    -0.447580695162    -0.153348611440    12.000000000000
         C            0.784823529764     0.676874304838     0.156995388560    12.000000000000
         C           -1.578569470236     0.506282304838     0.146581388560    12.000000000000
         C            3.156296529764     0.879041304838     0.296689388560    12.000000000000
         C            1.907757529764     1.459418304838     0.459252388560    12.000000000000
         C            2.068703529764    -1.117624695162    -0.417392611440    12.000000000000
         C            4.597815529764    -1.113316695162    -0.340706611440    12.000000000000
         C           -1.877392470236    -0.512067695162     1.051285388560    12.000000000000
         C           -2.454798470236     0.848832304838    -0.879028611440    12.000000000000
         C           -3.080283470236    -1.203542695162     0.912326388560    12.000000000000
         C           -3.659450470236     0.153319304838    -1.003415611440    12.000000000000
         C           -4.100819970236    -0.827425395162    -0.258662011440    12.000000000000
         H            4.054282529764     1.452956304838     0.520562388560     1.007825032230
         H            1.779797529764     2.479851304838     0.806599388560     1.007825032230
         H            2.083543529764    -2.148623695162    -0.770798611440     1.007825032230
         H            5.157998529764    -1.147954695162     0.599011388560     1.007825032230
         H            4.474124529764    -2.139559695162    -0.697059611440     1.007825032230
         H            5.209168529764    -0.574263695162    -1.071226611440     1.007825032230
         H           -1.176027470236    -0.753088695162     1.844617388560     1.007825032230
         H           -2.186565470236     1.653152304838    -1.558238611440     1.007825032230
         H           -3.322722470236    -2.001381695162     1.610162388560     1.007825032230
         H           -4.350971470236     0.415426304838    -1.800444611440     1.007825032230
         H           -4.910287470236    -1.415900695162    -0.212279611440     1.007825032230

  Basis Set: AUG-CC-PVTZ
    Blend: AUG-CC-PVTZ
  Basis Set: (AUG-CC-PVTZ AUX)
    Blend: AUG-CC-PVTZ-JKFIT
	 Reference Energy          =    -590.2907893260750143 [Eh]
	 Singles Energy            =      -0.0000000000000000 [Eh]
	 Same-Spin Energy          =      -0.6432658823404170 [Eh]
	 Opposite-Spin Energy      =      -1.9836998093385543 [Eh]
	 Correlation Energy        =      -2.6269656916789712 [Eh]
	 Total Energy              =    -592.9177550177539615 [Eh]

	 ================> DF-SCS-MP2 Energies <==================
	-----------------------------------------------------------
	 SCS Same-Spin Scale       =       0.3333333333333333 [-]
	 SCS Opposite-Spin Scale   =       1.2000000000000000 [-]
	 SCS Same-Spin Energy      =      -0.2144219607801390 [Eh]
	 SCS Opposite-Spin Energy  =      -2.3804397712062650 [Eh]
	 SCS Correlation Energy    =      -2.5948617319864042 [Eh]
	 SCS Total Energy          =    -592.8856510580613985 [Eh]
	-----------------------------------------------------------

  Dipole Moment: [D]
     X:     2.0587      Y:    -0.2153      Z:     0.1888     Total:     2.0785

*** Psi4 exiting successfully. Buy a developer a beer!
