                               Psi4 1.4a3.dev225

  ==> Input File <==

--------------------------------------------------------------------------
#psi4
#
memory 32 gb

molecule  {
0 1
  O       -0.4771680     1.3164760     0.3008390
  N        0.7985240    -0.5535590    -0.2772820
  C        3.2200150    -0.4235850    -0.1586420
  C        0.7425440     0.7008700     0.1517020
  C       -1.6208490     0.5302780     0.1412880
  C        3.1140170     0.9030370     0.2913960
  C        1.8654780     1.4834140     0.4539590
  C        2.0264240    -1.0936290    -0.4226860
  C        4.5555360    -1.0893210    -0.3460000
  C       -1.9196720    -0.4880720     1.0459920
  C       -2.4970780     0.8728280    -0.8843220
  C       -3.1379901    -1.1968629     0.9146255
  C       -3.7017300     0.1773150    -1.0087090
  C       -4.0153870    -0.8504980    -0.1174150
  H        4.0120030     1.4769520     0.5152690
  H        1.7375180     2.5038470     0.8013060
  H        2.0412640    -2.1246280    -0.7760920
  H        5.1157190    -1.1239590     0.5937180
  H        4.4318450    -2.1155640    -0.7023530
  H        5.1668890    -0.5502680    -1.0765200
  H       -1.2183070    -0.7290930     1.8393240
  H       -2.2288450     1.6771480    -1.5635320
  H       -3.3650020    -1.9773860     1.6048690
  H       -4.3932510     0.4394220    -1.8057380
  H       -4.9525670    -1.3919050    -0.2175730
units angstrom
no_reorient  #important for SAPT in psi4, default
symmetry c1  #important for SAPT in psi4, default
}

set PROPERTIES_ORIGIN ["COM"]
properties('MP2/aug-cc-pvtz', properties = ['dipole'])
--------------------------------------------------------------------------

    Molecular point group: c1
  Charge       = 0
  Multiplicity = 1
  Basis Set: AUG-CC-PVTZ
    Blend: AUG-CC-PVTZ
  Basis Set: (AUG-CC-PVTZ AUX)
    Blend: AUG-CC-PVTZ-JKFIT

    Orbital Energies [Eh]
    ---------------------

    Doubly Occupied:

       1A    -20.598525     2A    -15.563262     3A    -11.340615
       4A    -11.295422     5A    -11.277208     6A    -11.261348
       7A    -11.243127     8A    -11.241075     9A    -11.237382
      10A    -11.236790    11A    -11.234255    12A    -11.232700
      13A    -11.232015    14A    -11.230906    15A     -1.430635
      16A     -1.253351    17A     -1.143860    18A     -1.102533
      19A     -1.052965    20A     -1.013489    21A     -1.003829
      22A     -0.942833    23A     -0.877321    24A     -0.842337
      25A     -0.832010    26A     -0.800343    27A     -0.737235
      28A     -0.704692    29A     -0.678258    30A     -0.654521
      31A     -0.643383    32A     -0.628908    33A     -0.611170
      34A     -0.596200    35A     -0.592383    36A     -0.586066
      37A     -0.568904    38A     -0.563129    39A     -0.549427
      40A     -0.520966    41A     -0.514615    42A     -0.508766
      43A     -0.492528    44A     -0.478676    45A     -0.428066
      46A     -0.384350    47A     -0.333348    48A     -0.332770
      49A     -0.313644

  @DF-RHF Final Energy:  -590.33053675222936

   => Energetics <=

    Nuclear Repulsion Energy =            801.2455121494377863
    One-Electron Energy =               -2391.2678185807949376
    Two-Electron Energy =                 999.6917696791279013
    Total Energy =                       -590.3305367522293636
  Basis Set: (AUG-CC-PVTZ AUX)
    Blend: AUG-CC-PVTZ-RI
    Molecular point group: c1

    Geometry (in Angstrom), charge = 0, multiplicity = 1:

       Center              X                  Y                   Z               Mass
    ------------   -----------------  -----------------  -----------------  -----------------
         O           -0.442168539471     1.296654680434     0.296139119770    15.994914619570
         N            0.833523460529    -0.573380319566    -0.281981880230    14.003074004430
         C            3.255014460529    -0.443406319566    -0.163341880230    12.000000000000
         C            0.777543460529     0.681048680434     0.147002119770    12.000000000000
         C           -1.585849539471     0.510456680434     0.136588119770    12.000000000000
         C            3.149016460529     0.883215680434     0.286696119770    12.000000000000
         C            1.900477460529     1.463592680434     0.449259119770    12.000000000000
         C            2.061423460529    -1.113450319566    -0.427385880230    12.000000000000
         C            4.590535460529    -1.109142319566    -0.350699880230    12.000000000000
         C           -1.884672539471    -0.507893319566     1.041292119770    12.000000000000
         C           -2.462078539471     0.853006680434    -0.889021880230    12.000000000000
         C           -3.102990639471    -1.216684219566     0.909925619770    12.000000000000
         C           -3.666730539471     0.157493680434    -1.013408880230    12.000000000000
         C           -3.980387539471    -0.870319319566    -0.122114880230    12.000000000000
         H            4.047002460529     1.457130680434     0.510569119770     1.007825032230
         H            1.772517460529     2.484025680434     0.796606119770     1.007825032230
         H            2.076263460529    -2.144449319566    -0.780791880230     1.007825032230
         H            5.150718460529    -1.143780319566     0.589018119770     1.007825032230
         H            4.466844460529    -2.135385319566    -0.707052880230     1.007825032230
         H            5.201888460529    -0.570089319566    -1.081219880230     1.007825032230
         H           -1.183307539471    -0.748914319566     1.834624119770     1.007825032230
         H           -2.193845539471     1.657326680434    -1.568231880230     1.007825032230
         H           -3.330002539471    -1.997207319566     1.600169119770     1.007825032230
         H           -4.358251539471     0.419600680434    -1.810437880230     1.007825032230
         H           -4.917567539471    -1.411726319566    -0.222272880230     1.007825032230

  Basis Set: AUG-CC-PVTZ
    Blend: AUG-CC-PVTZ
  Basis Set: (AUG-CC-PVTZ AUX)
    Blend: AUG-CC-PVTZ-JKFIT
	 Reference Energy          =    -590.3305367522293636 [Eh]
	 Singles Energy            =      -0.0000000000000000 [Eh]
	 Same-Spin Energy          =      -0.6440127378038520 [Eh]
	 Opposite-Spin Energy      =      -1.9816620569643049 [Eh]
	 Correlation Energy        =      -2.6256747947681571 [Eh]
	 Total Energy              =    -592.9562115469975652 [Eh]

	 ================> DF-SCS-MP2 Energies <==================
	-----------------------------------------------------------
	 SCS Same-Spin Scale       =       0.3333333333333333 [-]
	 SCS Opposite-Spin Scale   =       1.2000000000000000 [-]
	 SCS Same-Spin Energy      =      -0.2146709126012840 [Eh]
	 SCS Opposite-Spin Energy  =      -2.3779944683571657 [Eh]
	 SCS Correlation Energy    =      -2.5926653809584495 [Eh]
	 SCS Total Energy          =    -592.9232021331878286 [Eh]
	-----------------------------------------------------------

  Dipole Moment: [D]
     X:     2.0130      Y:    -0.1917      Z:     0.1604     Total:     2.0285

*** Psi4 exiting successfully. Buy a developer a beer!
