                               Psi4 1.4a3.dev225

  ==> Input File <==

--------------------------------------------------------------------------
#psi4
#
memory 32 gb

molecule  {
0 1
  O       -0.4771680     1.3164760     0.3008390
  N        0.7985240    -0.5535590    -0.2772820
  C        3.2200150    -0.4235850    -0.1586420
  C        0.7425440     0.7008700     0.1517020
  C       -1.6208490     0.5302780     0.1412880
  C        3.1140170     0.9030370     0.2913960
  C        1.8654780     1.4834140     0.4539590
  C        2.0264240    -1.0936290    -0.4226860
  C        4.5555360    -1.0893210    -0.3460000
  C       -1.9196720    -0.4880720     1.0459920
  C       -2.4970780     0.8728280    -0.8843220
  C       -3.1225630    -1.1795470     0.9070330
  C       -3.6586009     0.2022158    -1.0042557
  C       -4.0153870    -0.8504980    -0.1174150
  H        4.0120030     1.4769520     0.5152690
  H        1.7375180     2.5038470     0.8013060
  H        2.0412640    -2.1246280    -0.7760920
  H        5.1157190    -1.1239590     0.5937180
  H        4.4318450    -2.1155640    -0.7023530
  H        5.1668890    -0.5502680    -1.0765200
  H       -1.2183070    -0.7290930     1.8393240
  H       -2.2288450     1.6771480    -1.5635320
  H       -3.3650020    -1.9773860     1.6048690
  H       -4.3932510     0.4394220    -1.8057380
  H       -4.9525670    -1.3919050    -0.2175730
units angstrom
no_reorient  #important for SAPT in psi4, default
symmetry c1  #important for SAPT in psi4, default
}

set PROPERTIES_ORIGIN ["COM"]
properties('MP2/aug-cc-pvtz', properties = ['dipole'])
--------------------------------------------------------------------------

    Molecular point group: c1
  Charge       = 0
  Multiplicity = 1
  Basis Set: AUG-CC-PVTZ
    Blend: AUG-CC-PVTZ
  Basis Set: (AUG-CC-PVTZ AUX)
    Blend: AUG-CC-PVTZ-JKFIT

    Orbital Energies [Eh]
    ---------------------

    Doubly Occupied:

       1A    -20.598771     2A    -15.563385     3A    -11.340845
       4A    -11.296047     5A    -11.277335     6A    -11.261475
       7A    -11.243243     8A    -11.241213     9A    -11.236385
      10A    -11.235898    11A    -11.232784    12A    -11.232307
      13A    -11.230886    14A    -11.226349    15A     -1.430934
      16A     -1.253531    17A     -1.148763    18A     -1.102658
      19A     -1.052620    20A     -1.021364    21A     -1.000521
      22A     -0.943019    23A     -0.878135    24A     -0.842730
      25A     -0.827128    26A     -0.802463    27A     -0.736178
      28A     -0.704861    29A     -0.680024    30A     -0.657175
      31A     -0.643163    32A     -0.623926    33A     -0.610402
      34A     -0.594099    35A     -0.590299    36A     -0.588020
      37A     -0.570817    38A     -0.563137    39A     -0.549779
      40A     -0.521571    41A     -0.517616    42A     -0.510012
      43A     -0.492383    44A     -0.473864    45A     -0.428317
      46A     -0.384514    47A     -0.341720    48A     -0.330599
      49A     -0.311282

  @DF-RHF Final Energy:  -590.32834033170025

   => Energetics <=

    Nuclear Repulsion Energy =            802.3944020130519448
    One-Electron Energy =               -2393.5563953237679016
    Two-Electron Energy =                1000.8336529790155964
    Total Energy =                       -590.3283403317002467
  Basis Set: (AUG-CC-PVTZ AUX)
    Blend: AUG-CC-PVTZ-RI
    Molecular point group: c1

    Geometry (in Angstrom), charge = 0, multiplicity = 1:

       Center              X                  Y                   Z               Mass
    ------------   -----------------  -----------------  -----------------  -----------------
         O           -0.445965054335     1.293917543648     0.296342651070    15.994914619570
         N            0.829726945665    -0.576117456352    -0.281778348930    14.003074004430
         C            3.251217945665    -0.446143456352    -0.163138348930    12.000000000000
         C            0.773746945665     0.678311543648     0.147205651070    12.000000000000
         C           -1.589646054335     0.507719543648     0.136791651070    12.000000000000
         C            3.145219945665     0.880478543648     0.286899651070    12.000000000000
         C            1.896680945665     1.460855543648     0.449462651070    12.000000000000
         C            2.057626945665    -1.116187456352    -0.427182348930    12.000000000000
         C            4.586738945665    -1.111879456352    -0.350496348930    12.000000000000
         C           -1.888469054335    -0.510630456352     1.041495651070    12.000000000000
         C           -2.465875054335     0.850269543648    -0.888818348930    12.000000000000
         C           -3.091360054335    -1.202105456352     0.902536651070    12.000000000000
         C           -3.627397954335     0.179657343648    -1.008752048930    12.000000000000
         C           -3.984184054335    -0.873056456352    -0.121911348930    12.000000000000
         H            4.043205945665     1.454393543648     0.510772651070     1.007825032230
         H            1.768720945665     2.481288543648     0.796809651070     1.007825032230
         H            2.072466945665    -2.147186456352    -0.780588348930     1.007825032230
         H            5.146921945665    -1.146517456352     0.589221651070     1.007825032230
         H            4.463047945665    -2.138122456352    -0.706849348930     1.007825032230
         H            5.198091945665    -0.572826456352    -1.081016348930     1.007825032230
         H           -1.187104054335    -0.751651456352     1.834827651070     1.007825032230
         H           -2.197642054335     1.654589543648    -1.568028348930     1.007825032230
         H           -3.333799054335    -1.999944456352     1.600372651070     1.007825032230
         H           -4.362048054335     0.416863543648    -1.810234348930     1.007825032230
         H           -4.921364054335    -1.414463456352    -0.222069348930     1.007825032230

  Basis Set: AUG-CC-PVTZ
    Blend: AUG-CC-PVTZ
  Basis Set: (AUG-CC-PVTZ AUX)
    Blend: AUG-CC-PVTZ-JKFIT
	 Reference Energy          =    -590.3283403317002467 [Eh]
	 Singles Energy            =      -0.0000000000000000 [Eh]
	 Same-Spin Energy          =      -0.6440668646874402 [Eh]
	 Opposite-Spin Energy      =      -1.9815459209936788 [Eh]
	 Correlation Energy        =      -2.6256127856811191 [Eh]
	 Total Energy              =    -592.9539531173813884 [Eh]

	 ================> DF-SCS-MP2 Energies <==================
	-----------------------------------------------------------
	 SCS Same-Spin Scale       =       0.3333333333333333 [-]
	 SCS Opposite-Spin Scale   =       1.2000000000000000 [-]
	 SCS Same-Spin Energy      =      -0.2146889548958134 [Eh]
	 SCS Opposite-Spin Energy  =      -2.3778551051924146 [Eh]
	 SCS Correlation Energy    =      -2.5925440600882279 [Eh]
	 SCS Total Energy          =    -592.9208843917884906 [Eh]
	-----------------------------------------------------------

  Dipole Moment: [D]
     X:     2.0235      Y:    -0.1831      Z:     0.1637     Total:     2.0384

*** Psi4 exiting successfully. Buy a developer a beer!
