                               Psi4 1.4a3.dev225

  ==> Input File <==

--------------------------------------------------------------------------
#psi4
#
memory 32 gb

molecule  {
0 1
  O       -0.4771680     1.3164760     0.3008390
  N        0.7985240    -0.5535590    -0.2772820
  C        3.2200150    -0.4235850    -0.1586420
  C        0.7425440     0.7008700     0.1517020
  C       -1.6208490     0.5302780     0.1412880
  C        3.1140170     0.9030370     0.2913960
  C        1.8654780     1.4834140     0.4539590
  C        2.0264240    -1.0936290    -0.4226860
  C        4.5377761    -1.0804679    -0.3435085
  C       -1.9196720    -0.4880720     1.0459920
  C       -2.4970780     0.8728280    -0.8843220
  C       -3.1225630    -1.1795470     0.9070330
  C       -3.7017300     0.1773150    -1.0087090
  C       -4.0153870    -0.8504980    -0.1174150
  H        4.0120030     1.4769520     0.5152690
  H        1.7375180     2.5038470     0.8013060
  H        2.0412640    -2.1246280    -0.7760920
  H        5.1157190    -1.1239590     0.5937180
  H        4.4318450    -2.1155640    -0.7023530
  H        5.1668890    -0.5502680    -1.0765200
  H       -1.2183070    -0.7290930     1.8393240
  H       -2.2288450     1.6771480    -1.5635320
  H       -3.3650020    -1.9773860     1.6048690
  H       -4.3932510     0.4394220    -1.8057380
  H       -4.9525670    -1.3919050    -0.2175730
units angstrom
no_reorient  #important for SAPT in psi4, default
symmetry c1  #important for SAPT in psi4, default
}

set PROPERTIES_ORIGIN ["COM"]
properties('MP2/aug-cc-pvtz', properties = ['dipole'])
--------------------------------------------------------------------------

    Molecular point group: c1
  Charge       = 0
  Multiplicity = 1
  Basis Set: AUG-CC-PVTZ
    Blend: AUG-CC-PVTZ
  Basis Set: (AUG-CC-PVTZ AUX)
    Blend: AUG-CC-PVTZ-JKFIT

    Orbital Energies [Eh]
    ---------------------

    Doubly Occupied:

       1A    -20.598678     2A    -15.563483     3A    -11.340864
       4A    -11.295712     5A    -11.277375     6A    -11.261514
       7A    -11.242340     8A    -11.241300     9A    -11.236781
      10A    -11.236681    11A    -11.233353    12A    -11.232128
      13A    -11.231387    14A    -11.230485    15A     -1.430828
      16A     -1.253673    17A     -1.145924    18A     -1.104268
      19A     -1.054046    20A     -1.015307    21A     -1.004116
      22A     -0.942360    23A     -0.877999    24A     -0.841832
      25A     -0.830607    26A     -0.800957    27A     -0.736917
      28A     -0.705072    29A     -0.679350    30A     -0.655582
      31A     -0.645391    32A     -0.626589    33A     -0.611322
      34A     -0.594956    35A     -0.591755    36A     -0.585530
      37A     -0.568681    38A     -0.564392    39A     -0.546786
      40A     -0.523257    41A     -0.513147    42A     -0.511617
      43A     -0.492776    44A     -0.477311    45A     -0.428395
      46A     -0.384412    47A     -0.335468    48A     -0.332224
      49A     -0.313438

  @DF-RHF Final Energy:  -590.33087215167984

   => Energetics <=

    Nuclear Repulsion Energy =            802.0845177891012554
    One-Electron Energy =               -2392.9340471927225735
    Two-Electron Energy =                1000.5186572519414767
    Total Energy =                       -590.3308721516798414
  Basis Set: (AUG-CC-PVTZ AUX)
    Blend: AUG-CC-PVTZ-RI
    Molecular point group: c1

    Geometry (in Angstrom), charge = 0, multiplicity = 1:

       Center              X                  Y                   Z               Mass
    ------------   -----------------  -----------------  -----------------  -----------------
         O           -0.442017291441     1.294958002756     0.296469845164    15.994914619570
         N            0.833674708559    -0.575076997244    -0.281651154836    14.003074004430
         C            3.255165708559    -0.445102997244    -0.163011154836    12.000000000000
         C            0.777694708559     0.679352002756     0.147332845164    12.000000000000
         C           -1.585698291441     0.508760002756     0.136918845164    12.000000000000
         C            3.149167708559     0.881519002756     0.287026845164    12.000000000000
         C            1.900628708559     1.461896002756     0.449589845164    12.000000000000
         C            2.061574708559    -1.115146997244    -0.427055154836    12.000000000000
         C            4.572926808559    -1.101985897244    -0.347877654836    12.000000000000
         C           -1.884521291441    -0.509589997244     1.041622845164    12.000000000000
         C           -2.461927291441     0.851310002756    -0.888691154836    12.000000000000
         C           -3.087412291441    -1.201064997244     0.902663845164    12.000000000000
         C           -3.666579291441     0.155797002756    -1.013078154836    12.000000000000
         C           -3.980236291441    -0.872015997244    -0.121784154836    12.000000000000
         H            4.047153708559     1.455434002756     0.510899845164     1.007825032230
         H            1.772668708559     2.482329002756     0.796936845164     1.007825032230
         H            2.076414708559    -2.146145997244    -0.780461154836     1.007825032230
         H            5.150869708559    -1.145476997244     0.589348845164     1.007825032230
         H            4.466995708559    -2.137081997244    -0.706722154836     1.007825032230
         H            5.202039708559    -0.571785997244    -1.080889154836     1.007825032230
         H           -1.183156291441    -0.750610997244     1.834954845164     1.007825032230
         H           -2.193694291441     1.655630002756    -1.567901154836     1.007825032230
         H           -3.329851291441    -1.998903997244     1.600499845164     1.007825032230
         H           -4.358100291441     0.417904002756    -1.810107154836     1.007825032230
         H           -4.917416291441    -1.413422997244    -0.221942154836     1.007825032230

  Basis Set: AUG-CC-PVTZ
    Blend: AUG-CC-PVTZ
  Basis Set: (AUG-CC-PVTZ AUX)
    Blend: AUG-CC-PVTZ-JKFIT
	 Reference Energy          =    -590.3308721516798414 [Eh]
	 Singles Energy            =      -0.0000000000000000 [Eh]
	 Same-Spin Energy          =      -0.6441835981567339 [Eh]
	 Opposite-Spin Energy      =      -1.9816664492910099 [Eh]
	 Correlation Energy        =      -2.6258500474477438 [Eh]
	 Total Energy              =    -592.9567221991276256 [Eh]

	 ================> DF-SCS-MP2 Energies <==================
	-----------------------------------------------------------
	 SCS Same-Spin Scale       =       0.3333333333333333 [-]
	 SCS Opposite-Spin Scale   =       1.2000000000000000 [-]
	 SCS Same-Spin Energy      =      -0.2147278660522446 [Eh]
	 SCS Opposite-Spin Energy  =      -2.3779997391492116 [Eh]
	 SCS Correlation Energy    =      -2.5927276052014561 [Eh]
	 SCS Total Energy          =    -592.9235997568813445 [Eh]
	-----------------------------------------------------------

  Dipole Moment: [D]
     X:     2.0134      Y:    -0.1819      Z:     0.1569     Total:     2.0277

*** Psi4 exiting successfully. Buy a developer a beer!
