                               Psi4 1.4a3.dev225

  ==> Input File <==

--------------------------------------------------------------------------
#psi4
#
memory 32 gb

molecule  {
0 1
  O       -0.4771680     1.3164760     0.3008390
  N        0.7985240    -0.5535590    -0.2772820
  C        3.2200150    -0.4235850    -0.1586420
  C        0.7425440     0.7008700     0.1517020
  C       -1.6208490     0.5302780     0.1412880
  C        3.1140170     0.9030370     0.2913960
  C        1.8654780     1.4834140     0.4539590
  C        2.0264240    -1.0936290    -0.4226860
  C        4.5555360    -1.0893210    -0.3460000
  C       -1.9196720    -0.4880720     1.0459920
  C       -2.4970780     0.8728280    -0.8843220
  C       -3.0637540    -1.1091364     0.8737472
  C       -3.7017300     0.1773150    -1.0087090
  C       -4.0153870    -0.8504980    -0.1174150
  H        4.0120030     1.4769520     0.5152690
  H        1.7375180     2.5038470     0.8013060
  H        2.0412640    -2.1246280    -0.7760920
  H        5.1157190    -1.1239590     0.5937180
  H        4.4318450    -2.1155640    -0.7023530
  H        5.1668890    -0.5502680    -1.0765200
  H       -1.2183070    -0.7290930     1.8393240
  H       -2.2288450     1.6771480    -1.5635320
  H       -3.3650020    -1.9773860     1.6048690
  H       -4.3932510     0.4394220    -1.8057380
  H       -4.9525670    -1.3919050    -0.2175730
units angstrom
no_reorient  #important for SAPT in psi4, default
symmetry c1  #important for SAPT in psi4, default
}

set PROPERTIES_ORIGIN ["COM"]
properties('MP2/aug-cc-pvtz', properties = ['dipole'])
--------------------------------------------------------------------------

    Molecular point group: c1
  Charge       = 0
  Multiplicity = 1
  Basis Set: AUG-CC-PVTZ
    Blend: AUG-CC-PVTZ
  Basis Set: (AUG-CC-PVTZ AUX)
    Blend: AUG-CC-PVTZ-JKFIT

    Orbital Energies [Eh]
    ---------------------

    Doubly Occupied:

       1A    -20.598894     2A    -15.564054     3A    -11.341254
       4A    -11.296903     5A    -11.277747     6A    -11.261834
       7A    -11.243639     8A    -11.241581     9A    -11.236621
      10A    -11.234411    11A    -11.233042    12A    -11.229533
      13A    -11.228926    14A    -11.223087    15A     -1.431261
      16A     -1.254055    17A     -1.155786    18A     -1.103054
      19A     -1.053378    20A     -1.024826    21A     -1.002591
      22A     -0.943255    23A     -0.879310    24A     -0.842827
      25A     -0.824802    26A     -0.803391    27A     -0.736135
      28A     -0.704994    29A     -0.683017    30A     -0.659598
      31A     -0.643299    32A     -0.620846    33A     -0.610639
      34A     -0.596536    35A     -0.591078    36A     -0.579559
      37A     -0.571992    38A     -0.563924    39A     -0.550276
      40A     -0.525007    41A     -0.520851    42A     -0.509521
      43A     -0.493731    44A     -0.465566    45A     -0.428851
      46A     -0.384974    47A     -0.344923    48A     -0.331078
      49A     -0.313092

  @DF-RHF Final Energy:  -590.31951621553014

   => Energetics <=

    Nuclear Repulsion Energy =            803.6867373036089930
    One-Electron Energy =               -2396.0934066921272461
    Two-Electron Energy =                1002.0871531729882236
    Total Energy =                       -590.3195162155301432
  Basis Set: (AUG-CC-PVTZ AUX)
    Blend: AUG-CC-PVTZ-RI
    Molecular point group: c1

    Geometry (in Angstrom), charge = 0, multiplicity = 1:

       Center              X                  Y                   Z               Mass
    ------------   -----------------  -----------------  -----------------  -----------------
         O           -0.446981666981     1.290966897395     0.298789480852    15.994914619570
         N            0.828710333019    -0.579068102605    -0.279331519148    14.003074004430
         C            3.250201333019    -0.449094102605    -0.160691519148    12.000000000000
         C            0.772730333019     0.675360897395     0.149652480852    12.000000000000
         C           -1.590662666981     0.504768897395     0.139238480852    12.000000000000
         C            3.144203333019     0.877527897395     0.289346480852    12.000000000000
         C            1.895664333019     1.457904897395     0.451909480852    12.000000000000
         C            2.056610333019    -1.119138102605    -0.424735519148    12.000000000000
         C            4.585722333019    -1.114830102605    -0.348049519148    12.000000000000
         C           -1.889485666981    -0.513581102605     1.043942480852    12.000000000000
         C           -2.466891666981     0.847318897395    -0.886371519148    12.000000000000
         C           -3.033567666981    -1.134645502605     0.871697680852    12.000000000000
         C           -3.671543666981     0.151805897395    -1.010758519148    12.000000000000
         C           -3.985200666981    -0.876007102605    -0.119464519148    12.000000000000
         H            4.042189333019     1.451442897395     0.513219480852     1.007825032230
         H            1.767704333019     2.478337897395     0.799256480852     1.007825032230
         H            2.071450333019    -2.150137102605    -0.778141519148     1.007825032230
         H            5.145905333019    -1.149468102605     0.591668480852     1.007825032230
         H            4.462031333019    -2.141073102605    -0.704402519148     1.007825032230
         H            5.197075333019    -0.575777102605    -1.078569519148     1.007825032230
         H           -1.188120666981    -0.754602102605     1.837274480852     1.007825032230
         H           -2.198658666981     1.651638897395    -1.565581519148     1.007825032230
         H           -3.334815666981    -2.002895102605     1.602819480852     1.007825032230
         H           -4.363064666981     0.413912897395    -1.807787519148     1.007825032230
         H           -4.922380666981    -1.417414102605    -0.219622519148     1.007825032230

  Basis Set: AUG-CC-PVTZ
    Blend: AUG-CC-PVTZ
  Basis Set: (AUG-CC-PVTZ AUX)
    Blend: AUG-CC-PVTZ-JKFIT
	 Reference Energy          =    -590.3195162155301432 [Eh]
	 Singles Energy            =      -0.0000000000000000 [Eh]
	 Same-Spin Energy          =      -0.6441123852990526 [Eh]
	 Opposite-Spin Energy      =      -1.9816449637199383 [Eh]
	 Correlation Energy        =      -2.6257573490189907 [Eh]
	 Total Energy              =    -592.9452735645490975 [Eh]

	 ================> DF-SCS-MP2 Energies <==================
	-----------------------------------------------------------
	 SCS Same-Spin Scale       =       0.3333333333333333 [-]
	 SCS Opposite-Spin Scale   =       1.2000000000000000 [-]
	 SCS Same-Spin Energy      =      -0.2147041284330175 [Eh]
	 SCS Opposite-Spin Energy  =      -2.3779739564639257 [Eh]
	 SCS Correlation Energy    =      -2.5926780848969431 [Eh]
	 SCS Total Energy          =    -592.9121943004271316 [Eh]
	-----------------------------------------------------------

  Dipole Moment: [D]
     X:     2.0406      Y:    -0.1290      Z:     0.1185     Total:     2.0481

*** Psi4 exiting successfully. Buy a developer a beer!
