                               Psi4 1.4a3.dev225

  ==> Input File <==

--------------------------------------------------------------------------
#psi4
#
memory 32 gb

molecule  {
0 1
  O       -0.4771680     1.3164760     0.3008390
  N        0.7985240    -0.5535590    -0.2772820
  C        3.2200150    -0.4235850    -0.1586420
  C        0.7425440     0.7008700     0.1517020
  C       -1.6208490     0.5302780     0.1412880
  C        3.1140170     0.9030370     0.2913960
  C        1.8654780     1.4834140     0.4539590
  C        2.0264240    -1.0936290    -0.4226860
  C        4.5555360    -1.0893210    -0.3460000
  C       -1.9196720    -0.4880720     1.0459920
  C       -2.4970780     0.8728280    -0.8843220
  C       -3.1225630    -1.1795470     0.9070330
  C       -3.7017300     0.1773150    -1.0087090
  C       -4.0266201    -0.8873073    -0.0854949
  H        4.0120030     1.4769520     0.5152690
  H        1.7375180     2.5038470     0.8013060
  H        2.0412640    -2.1246280    -0.7760920
  H        5.1157190    -1.1239590     0.5937180
  H        4.4318450    -2.1155640    -0.7023530
  H        5.1668890    -0.5502680    -1.0765200
  H       -1.2183070    -0.7290930     1.8393240
  H       -2.2288450     1.6771480    -1.5635320
  H       -3.3650020    -1.9773860     1.6048690
  H       -4.3932510     0.4394220    -1.8057380
  H       -4.9525670    -1.3919050    -0.2175730
units angstrom
no_reorient  #important for SAPT in psi4, default
symmetry c1  #important for SAPT in psi4, default
}

set PROPERTIES_ORIGIN ["COM"]
properties('MP2/aug-cc-pvtz', properties = ['dipole'])
--------------------------------------------------------------------------

    Molecular point group: c1
  Charge       = 0
  Multiplicity = 1
  Basis Set: AUG-CC-PVTZ
    Blend: AUG-CC-PVTZ
  Basis Set: (AUG-CC-PVTZ AUX)
    Blend: AUG-CC-PVTZ-JKFIT

    Orbital Energies [Eh]
    ---------------------

    Doubly Occupied:

       1A    -20.598819     2A    -15.563376     3A    -11.340846
       4A    -11.296275     5A    -11.277311     6A    -11.261458
       7A    -11.243232     8A    -11.242040     9A    -11.241209
      10A    -11.234403    11A    -11.232766    12A    -11.231844
      13A    -11.231549    14A    -11.230947    15A     -1.430981
      16A     -1.253498    17A     -1.143713    18A     -1.102641
      19A     -1.053038    20A     -1.015651    21A     -1.001814
      22A     -0.943217    23A     -0.878033    24A     -0.843711
      25A     -0.827782    26A     -0.801794    27A     -0.736556
      28A     -0.704730    29A     -0.682686    30A     -0.655280
      31A     -0.643493    32A     -0.626141    33A     -0.610776
      34A     -0.596058    35A     -0.590359    36A     -0.585391
      37A     -0.569513    38A     -0.563552    39A     -0.549776
      40A     -0.522816    41A     -0.519832    42A     -0.508349
      43A     -0.489935    44A     -0.475616    45A     -0.428102
      46A     -0.384450    47A     -0.337888    48A     -0.330614
      49A     -0.311740

  @DF-RHF Final Energy:  -590.32827779530089

   => Energetics <=

    Nuclear Repulsion Energy =            801.2367147918932915
    One-Electron Energy =               -2391.2387833452048653
    Two-Electron Energy =                 999.6737907580106821
    Total Energy =                       -590.3282777953008917
  Basis Set: (AUG-CC-PVTZ AUX)
    Blend: AUG-CC-PVTZ-RI
    Molecular point group: c1

    Geometry (in Angstrom), charge = 0, multiplicity = 1:

       Center              X                  Y                   Z               Mass
    ------------   -----------------  -----------------  -----------------  -----------------
         O           -0.442440459153     1.297918542892     0.294561830004    15.994914619570
         N            0.833251540847    -0.572116457108    -0.283559169996    14.003074004430
         C            3.254742540847    -0.442142457108    -0.164919169996    12.000000000000
         C            0.777271540847     0.682312542892     0.145424830004    12.000000000000
         C           -1.586121459153     0.511720542892     0.135010830004    12.000000000000
         C            3.148744540847     0.884479542892     0.285118830004    12.000000000000
         C            1.900205540847     1.464856542892     0.447681830004    12.000000000000
         C            2.061151540847    -1.112186457108    -0.428963169996    12.000000000000
         C            4.590263540847    -1.107878457108    -0.352277169996    12.000000000000
         C           -1.884944459153    -0.506629457108     1.039714830004    12.000000000000
         C           -2.462350459153     0.854270542892    -0.890599169996    12.000000000000
         C           -3.087835459153    -1.198104457108     0.900755830004    12.000000000000
         C           -3.667002459153     0.158757542892    -1.014986169996    12.000000000000
         C           -3.991892559153    -0.905864757108    -0.091772069996    12.000000000000
         H            4.046730540847     1.458394542892     0.508991830004     1.007825032230
         H            1.772245540847     2.485289542892     0.795028830004     1.007825032230
         H            2.075991540847    -2.143185457108    -0.782369169996     1.007825032230
         H            5.150446540847    -1.142516457108     0.587440830004     1.007825032230
         H            4.466572540847    -2.134121457108    -0.708630169996     1.007825032230
         H            5.201616540847    -0.568825457108    -1.082797169996     1.007825032230
         H           -1.183579459153    -0.747650457108     1.833046830004     1.007825032230
         H           -2.194117459153     1.658590542892    -1.569809169996     1.007825032230
         H           -3.330274459153    -1.995943457108     1.598591830004     1.007825032230
         H           -4.358523459153     0.420864542892    -1.812015169996     1.007825032230
         H           -4.917839459153    -1.410462457108    -0.223850169996     1.007825032230

  Basis Set: AUG-CC-PVTZ
    Blend: AUG-CC-PVTZ
  Basis Set: (AUG-CC-PVTZ AUX)
    Blend: AUG-CC-PVTZ-JKFIT
	 Reference Energy          =    -590.3282777953008917 [Eh]
	 Singles Energy            =      -0.0000000000000000 [Eh]
	 Same-Spin Energy          =      -0.6440005844079599 [Eh]
	 Opposite-Spin Energy      =      -1.9817826491227117 [Eh]
	 Correlation Energy        =      -2.6257832335306714 [Eh]
	 Total Energy              =    -592.9540610288315747 [Eh]

	 ================> DF-SCS-MP2 Energies <==================
	-----------------------------------------------------------
	 SCS Same-Spin Scale       =       0.3333333333333333 [-]
	 SCS Opposite-Spin Scale   =       1.2000000000000000 [-]
	 SCS Same-Spin Energy      =      -0.2146668614693200 [Eh]
	 SCS Opposite-Spin Energy  =      -2.3781391789472539 [Eh]
	 SCS Correlation Energy    =      -2.5928060404165740 [Eh]
	 SCS Total Energy          =    -592.9210838357174680 [Eh]
	-----------------------------------------------------------

  Dipole Moment: [D]
     X:     2.0117      Y:    -0.1777      Z:     0.1430     Total:     2.0246

*** Psi4 exiting successfully. Buy a developer a beer!
