                               Psi4 1.4a3.dev225

  ==> Input File <==

--------------------------------------------------------------------------
#psi4
#
memory 32 gb

molecule  {
0 1
  O       -0.4771680     1.3164760     0.3008390
  N        0.7985240    -0.5535590    -0.2772820
  C        3.2200150    -0.4235850    -0.1586420
  C        0.7425440     0.7008700     0.1517020
  C       -1.5330031     0.6349789     0.0908605
  C        3.1140170     0.9030370     0.2913960
  C        1.8654780     1.4834140     0.4539590
  C        2.0264240    -1.0936290    -0.4226860
  C        4.5555360    -1.0893210    -0.3460000
  C       -1.9196720    -0.4880720     1.0459920
  C       -2.4970780     0.8728280    -0.8843220
  C       -3.1225630    -1.1795470     0.9070330
  C       -3.7017300     0.1773150    -1.0087090
  C       -4.0153870    -0.8504980    -0.1174150
  H        4.0120030     1.4769520     0.5152690
  H        1.7375180     2.5038470     0.8013060
  H        2.0412640    -2.1246280    -0.7760920
  H        5.1157190    -1.1239590     0.5937180
  H        4.4318450    -2.1155640    -0.7023530
  H        5.1668890    -0.5502680    -1.0765200
  H       -1.2183070    -0.7290930     1.8393240
  H       -2.2288450     1.6771480    -1.5635320
  H       -3.3650020    -1.9773860     1.6048690
  H       -4.3932510     0.4394220    -1.8057380
  H       -4.9525670    -1.3919050    -0.2175730
units angstrom
no_reorient  #important for SAPT in psi4, default
symmetry c1  #important for SAPT in psi4, default
}

set PROPERTIES_ORIGIN ["COM"]
properties('MP2/aug-cc-pvtz', properties = ['dipole'])
--------------------------------------------------------------------------

    Molecular point group: c1
  Charge       = 0
  Multiplicity = 1
  Basis Set: AUG-CC-PVTZ
    Blend: AUG-CC-PVTZ
  Basis Set: (AUG-CC-PVTZ AUX)
    Blend: AUG-CC-PVTZ-JKFIT

    Orbital Energies [Eh]
    ---------------------

    Doubly Occupied:

       1A    -20.613681     2A    -15.571607     3A    -11.350824
       4A    -11.302070     5A    -11.283040     6A    -11.267195
       7A    -11.250089     8A    -11.249050     9A    -11.237029
      10A    -11.234971    11A    -11.231657    12A    -11.229414
      13A    -11.224165    14A    -11.223310    15A     -1.484339
      16A     -1.264332    17A     -1.128640    18A     -1.109006
      19A     -1.064333    20A     -1.008551    21A     -0.991753
      22A     -0.949073    23A     -0.889776    24A     -0.854098
      25A     -0.822537    26A     -0.800983    27A     -0.748888
      28A     -0.715451    29A     -0.675847    30A     -0.670456
      31A     -0.650931    32A     -0.635394    33A     -0.622557
      34A     -0.600033    35A     -0.592756    36A     -0.575180
      37A     -0.573135    38A     -0.566326    39A     -0.555043
      40A     -0.527393    41A     -0.519858    42A     -0.512750
      43A     -0.478150    44A     -0.451768    45A     -0.434496
      46A     -0.390123    47A     -0.334524    48A     -0.330932
      49A     -0.298881

  @DF-RHF Final Energy:  -590.30681941121020

   => Energetics <=

    Nuclear Repulsion Energy =            802.1223201281904949
    One-Electron Energy =               -2392.6654893488434936
    Two-Electron Energy =                1000.2363498094427996
    Total Energy =                       -590.3068194112101992
  Basis Set: (AUG-CC-PVTZ AUX)
    Blend: AUG-CC-PVTZ-RI
    Molecular point group: c1

    Geometry (in Angstrom), charge = 0, multiplicity = 1:

       Center              X                  Y                   Z               Mass
    ------------   -----------------  -----------------  -----------------  -----------------
         O           -0.448864286113     1.288743671952     0.299900869891    15.994914619570
         N            0.826827713887    -0.581291328048    -0.278220130109    14.003074004430
         C            3.248318713887    -0.451317328048    -0.159580130109    12.000000000000
         C            0.770847713887     0.673137671952     0.150763869891    12.000000000000
         C           -1.504699386113     0.607246571952     0.089922369891    12.000000000000
         C            3.142320713887     0.875304671952     0.290457869891    12.000000000000
         C            1.893781713887     1.455681671952     0.453020869891    12.000000000000
         C            2.054727713887    -1.121361328048    -0.423624130109    12.000000000000
         C            4.583839713887    -1.117053328048    -0.346938130109    12.000000000000
         C           -1.891368286113    -0.515804328048     1.045053869891    12.000000000000
         C           -2.468774286113     0.845095671952    -0.885260130109    12.000000000000
         C           -3.094259286113    -1.207279328048     0.906094869891    12.000000000000
         C           -3.673426286113     0.149582671952    -1.009647130109    12.000000000000
         C           -3.987083286113    -0.878230328048    -0.118353130109    12.000000000000
         H            4.040306713887     1.449219671952     0.514330869891     1.007825032230
         H            1.765821713887     2.476114671952     0.800367869891     1.007825032230
         H            2.069567713887    -2.152360328048    -0.777030130109     1.007825032230
         H            5.144022713887    -1.151691328048     0.592779869891     1.007825032230
         H            4.460148713887    -2.143296328048    -0.703291130109     1.007825032230
         H            5.195192713887    -0.578000328048    -1.077458130109     1.007825032230
         H           -1.190003286113    -0.756825328048     1.838385869891     1.007825032230
         H           -2.200541286113     1.649415671952    -1.564470130109     1.007825032230
         H           -3.336698286113    -2.005118328048     1.603930869891     1.007825032230
         H           -4.364947286113     0.411689671952    -1.806676130109     1.007825032230
         H           -4.924263286113    -1.419637328048    -0.218511130109     1.007825032230

  Basis Set: AUG-CC-PVTZ
    Blend: AUG-CC-PVTZ
  Basis Set: (AUG-CC-PVTZ AUX)
    Blend: AUG-CC-PVTZ-JKFIT
	 Reference Energy          =    -590.3068194112101992 [Eh]
	 Singles Energy            =      -0.0000000000000000 [Eh]
	 Same-Spin Energy          =      -0.6446739318712829 [Eh]
	 Opposite-Spin Energy      =      -1.9824990064719632 [Eh]
	 Correlation Energy        =      -2.6271729383432461 [Eh]
	 Total Energy              =    -592.9339923495534777 [Eh]

	 ================> DF-SCS-MP2 Energies <==================
	-----------------------------------------------------------
	 SCS Same-Spin Scale       =       0.3333333333333333 [-]
	 SCS Opposite-Spin Scale   =       1.2000000000000000 [-]
	 SCS Same-Spin Energy      =      -0.2148913106237609 [Eh]
	 SCS Opposite-Spin Energy  =      -2.3789988077663557 [Eh]
	 SCS Correlation Energy    =      -2.5938901183901169 [Eh]
	 SCS Total Energy          =    -592.9007095296003627 [Eh]
	-----------------------------------------------------------

  Dipole Moment: [D]
     X:     3.0149      Y:     0.0542      Z:     0.1605     Total:     3.0196

*** Psi4 exiting successfully. Buy a developer a beer!
