                               Psi4 1.4a3.dev225

  ==> Input File <==

--------------------------------------------------------------------------
#psi4
#
memory 32 gb

molecule  {
0 1
  O       -0.4771680     1.3164760     0.3008390
  N        0.7985240    -0.5535590    -0.2772820
  C        3.2200150    -0.4235850    -0.1586420
  C        0.7425440     0.7008700     0.1517020
  C       -1.6208490     0.5302780     0.1412880
  C        3.1140170     0.9030370     0.2913960
  C        1.8654780     1.4834140     0.4539590
  C        2.0264240    -1.0936290    -0.4226860
  C        4.5555360    -1.0893210    -0.3460000
  C       -1.9196720    -0.4880720     1.0459920
  C       -2.4970780     0.8728280    -0.8843220
  C       -3.1225630    -1.1795470     0.9070330
  C       -3.7017300     0.1773150    -1.0087090
  C       -4.0153870    -0.8504980    -0.1174150
  H        4.0120030     1.4769520     0.5152690
  H        1.7375180     2.5038470     0.8013060
  H        2.0412640    -2.1246280    -0.7760920
  H        5.0901297    -1.1223767     0.5507915
  H        4.4318450    -2.1155640    -0.7023530
  H        5.1668890    -0.5502680    -1.0765200
  H       -1.2183070    -0.7290930     1.8393240
  H       -2.2288450     1.6771480    -1.5635320
  H       -3.3650020    -1.9773860     1.6048690
  H       -4.3932510     0.4394220    -1.8057380
  H       -4.9525670    -1.3919050    -0.2175730
units angstrom
no_reorient  #important for SAPT in psi4, default
symmetry c1  #important for SAPT in psi4, default
}

set PROPERTIES_ORIGIN ["COM"]
properties('MP2/aug-cc-pvtz', properties = ['dipole'])
--------------------------------------------------------------------------

    Molecular point group: c1
  Charge       = 0
  Multiplicity = 1
  Basis Set: AUG-CC-PVTZ
    Blend: AUG-CC-PVTZ
  Basis Set: (AUG-CC-PVTZ AUX)
    Blend: AUG-CC-PVTZ-JKFIT

    Orbital Energies [Eh]
    ---------------------

    Doubly Occupied:

       1A    -20.598417     2A    -15.563232     3A    -11.340508
       4A    -11.295567     5A    -11.277010     6A    -11.261283
       7A    -11.242854     8A    -11.241017     9A    -11.236664
      10A    -11.236564    11A    -11.231993    12A    -11.231251
      13A    -11.230365    14A    -11.226645    15A     -1.430582
      16A     -1.253281    17A     -1.145783    18A     -1.102935
      19A     -1.053367    20A     -1.015183    21A     -1.004133
      22A     -0.946185    23A     -0.877561    24A     -0.842754
      25A     -0.830718    26A     -0.801013    27A     -0.736696
      28A     -0.704816    29A     -0.679073    30A     -0.655434
      31A     -0.643454    32A     -0.626359    33A     -0.611009
      34A     -0.596162    35A     -0.594556    36A     -0.587631
      37A     -0.570977    38A     -0.563574    39A     -0.551240
      40A     -0.520757    41A     -0.513721    42A     -0.511720
      43A     -0.492617    44A     -0.477750    45A     -0.428084
      46A     -0.384427    47A     -0.335360    48A     -0.332320
      49A     -0.313557

  @DF-RHF Final Energy:  -590.33055972190323

   => Energetics <=

    Nuclear Repulsion Energy =            801.9465594971621840
    One-Electron Energy =               -2392.6579192477752258
    Two-Electron Energy =                1000.3808000287099276
    Total Energy =                       -590.3305597219032279
  Basis Set: (AUG-CC-PVTZ AUX)
    Blend: AUG-CC-PVTZ-RI
    Molecular point group: c1

    Geometry (in Angstrom), charge = 0, multiplicity = 1:

       Center              X                  Y                   Z               Mass
    ------------   -----------------  -----------------  -----------------  -----------------
         O           -0.443029422139     1.295523381083     0.296865127177    15.994914619570
         N            0.832662577861    -0.574511618917    -0.281255872823    14.003074004430
         C            3.254153577861    -0.444537618917    -0.162615872823    12.000000000000
         C            0.776682577861     0.679917381083     0.147728127177    12.000000000000
         C           -1.586710422139     0.509325381083     0.137314127177    12.000000000000
         C            3.148155577861     0.882084381083     0.287422127177    12.000000000000
         C            1.899616577861     1.462461381083     0.449985127177    12.000000000000
         C            2.060562577861    -1.114581618917    -0.426659872823    12.000000000000
         C            4.589674577861    -1.110273618917    -0.349973872823    12.000000000000
         C           -1.885533422139    -0.509024618917     1.042018127177    12.000000000000
         C           -2.462939422139     0.851875381083    -0.888295872823    12.000000000000
         C           -3.088424422139    -1.200499618917     0.903059127177    12.000000000000
         C           -3.667591422139     0.156362381083    -1.012682872823    12.000000000000
         C           -3.981248422139    -0.871450618917    -0.121388872823    12.000000000000
         H            4.046141577861     1.455999381083     0.511295127177     1.007825032230
         H            1.771656577861     2.482894381083     0.797332127177     1.007825032230
         H            2.075402577861    -2.145580618917    -0.780065872823     1.007825032230
         H            5.124268277861    -1.143329318917     0.546817627177     1.007825032230
         H            4.465983577861    -2.136516618917    -0.706326872823     1.007825032230
         H            5.201027577861    -0.571220618917    -1.080493872823     1.007825032230
         H           -1.184168422139    -0.750045618917     1.835350127177     1.007825032230
         H           -2.194706422139     1.656195381083    -1.567505872823     1.007825032230
         H           -3.330863422139    -1.998338618917     1.600895127177     1.007825032230
         H           -4.359112422139     0.418469381083    -1.809711872823     1.007825032230
         H           -4.918428422139    -1.412857618917    -0.221546872823     1.007825032230

  Basis Set: AUG-CC-PVTZ
    Blend: AUG-CC-PVTZ
  Basis Set: (AUG-CC-PVTZ AUX)
    Blend: AUG-CC-PVTZ-JKFIT
	 Reference Energy          =    -590.3305597219032279 [Eh]
	 Singles Energy            =      -0.0000000000000000 [Eh]
	 Same-Spin Energy          =      -0.6440225727677296 [Eh]
	 Opposite-Spin Energy      =      -1.9812313331231488 [Eh]
	 Correlation Energy        =      -2.6252539058908786 [Eh]
	 Total Energy              =    -592.9558136277941003 [Eh]

	 ================> DF-SCS-MP2 Energies <==================
	-----------------------------------------------------------
	 SCS Same-Spin Scale       =       0.3333333333333333 [-]
	 SCS Opposite-Spin Scale   =       1.2000000000000000 [-]
	 SCS Same-Spin Energy      =      -0.2146741909225765 [Eh]
	 SCS Opposite-Spin Energy  =      -2.3774775997477784 [Eh]
	 SCS Correlation Energy    =      -2.5921517906703548 [Eh]
	 SCS Total Energy          =    -592.9227115125735281 [Eh]
	-----------------------------------------------------------

  Dipole Moment: [D]
     X:     2.0406      Y:    -0.1901      Z:     0.1682     Total:     2.0563

*** Psi4 exiting successfully. Buy a developer a beer!
