                               Psi4 1.4a3.dev225

  ==> Input File <==

--------------------------------------------------------------------------
#psi4
#
memory 32 gb

molecule  {
0 1
  O       -0.4771680     1.3164760     0.3008390
  N        0.7985240    -0.5535590    -0.2772820
  C        3.2200150    -0.4235850    -0.1586420
  C        0.7425440     0.7008700     0.1517020
  C       -1.6208490     0.5302780     0.1412880
  C        3.1140170     0.9030370     0.2913960
  C        1.8654780     1.4834140     0.4539590
  C        2.0264240    -1.0936290    -0.4226860
  C        4.5555360    -1.0893210    -0.3460000
  C       -1.9196720    -0.4880720     1.0459920
  C       -2.4970780     0.8728280    -0.8843220
  C       -3.1225630    -1.1795470     0.9070330
  C       -3.7189816     0.1673547    -1.0104903
  C       -4.0153870    -0.8504980    -0.1174150
  H        4.0120030     1.4769520     0.5152690
  H        1.7375180     2.5038470     0.8013060
  H        2.0412640    -2.1246280    -0.7760920
  H        5.1157190    -1.1239590     0.5937180
  H        4.4318450    -2.1155640    -0.7023530
  H        5.1668890    -0.5502680    -1.0765200
  H       -1.2183070    -0.7290930     1.8393240
  H       -2.2288450     1.6771480    -1.5635320
  H       -3.3650020    -1.9773860     1.6048690
  H       -4.3932510     0.4394220    -1.8057380
  H       -4.9525670    -1.3919050    -0.2175730
units angstrom
no_reorient  #important for SAPT in psi4, default
symmetry c1  #important for SAPT in psi4, default
}

set PROPERTIES_ORIGIN ["COM"]
properties('MP2/aug-cc-pvtz', properties = ['dipole'])
--------------------------------------------------------------------------

    Molecular point group: c1
  Charge       = 0
  Multiplicity = 1
  Basis Set: AUG-CC-PVTZ
    Blend: AUG-CC-PVTZ
  Basis Set: (AUG-CC-PVTZ AUX)
    Blend: AUG-CC-PVTZ-JKFIT

    Orbital Energies [Eh]
    ---------------------

    Doubly Occupied:

       1A    -20.598494     2A    -15.563404     3A    -11.340672
       4A    -11.295500     5A    -11.277285     6A    -11.261411
       7A    -11.243201     8A    -11.241136     9A    -11.236935
      10A    -11.236802    11A    -11.233101    12A    -11.232747
      13A    -11.232564    14A    -11.229704    15A     -1.430647
      16A     -1.253445    17A     -1.144929    18A     -1.102606
      19A     -1.053200    20A     -1.013335    21A     -1.004775
      22A     -0.942834    23A     -0.877496    24A     -0.842124
      25A     -0.831728    26A     -0.800260    27A     -0.737111
      28A     -0.704681    29A     -0.678828    30A     -0.654921
      31A     -0.643307    32A     -0.627710    33A     -0.611355
      34A     -0.595487    35A     -0.592545    36A     -0.585461
      37A     -0.569008    38A     -0.563366    39A     -0.549480
      40A     -0.521062    41A     -0.514922    42A     -0.509016
      43A     -0.492879    44A     -0.478414    45A     -0.428170
      46A     -0.384436    47A     -0.334339    48A     -0.332032
      49A     -0.314379

  @DF-RHF Final Energy:  -590.33104641739465

   => Energetics <=

    Nuclear Repulsion Energy =            801.4572905020689859
    One-Electron Energy =               -2391.6901939542976834
    Two-Electron Energy =                 999.9018570348339381
    Total Energy =                       -590.3310464173946457
  Basis Set: (AUG-CC-PVTZ AUX)
    Blend: AUG-CC-PVTZ-RI
    Molecular point group: c1

    Geometry (in Angstrom), charge = 0, multiplicity = 1:

       Center              X                  Y                   Z               Mass
    ------------   -----------------  -----------------  -----------------  -----------------
         O           -0.442050247277     1.296177777139     0.296746873877    15.994914619570
         N            0.833641752723    -0.573857222861    -0.281374126123    14.003074004430
         C            3.255132752723    -0.443883222861    -0.162734126123    12.000000000000
         C            0.777661752723     0.680571777139     0.147609873877    12.000000000000
         C           -1.585731247277     0.509979777139     0.137195873877    12.000000000000
         C            3.149134752723     0.882738777139     0.287303873877    12.000000000000
         C            1.900595752723     1.463115777139     0.449866873877    12.000000000000
         C            2.061541752723    -1.113927222861    -0.426778126123    12.000000000000
         C            4.590653752723    -1.109619222861    -0.350092126123    12.000000000000
         C           -1.884554247277    -0.508370222861     1.041899873877    12.000000000000
         C           -2.461960247277     0.852529777139    -0.888414126123    12.000000000000
         C           -3.087445247277    -1.199845222861     0.902940873877    12.000000000000
         C           -3.683863847277     0.147056477139    -1.014582426123    12.000000000000
         C           -3.980269247277    -0.870796222861    -0.121507126123    12.000000000000
         H            4.047120752723     1.456653777139     0.511176873877     1.007825032230
         H            1.772635752723     2.483548777139     0.797213873877     1.007825032230
         H            2.076381752723    -2.144926222861    -0.780184126123     1.007825032230
         H            5.150836752723    -1.144257222861     0.589625873877     1.007825032230
         H            4.466962752723    -2.135862222861    -0.706445126123     1.007825032230
         H            5.202006752723    -0.570566222861    -1.080612126123     1.007825032230
         H           -1.183189247277    -0.749391222861     1.835231873877     1.007825032230
         H           -2.193727247277     1.656849777139    -1.567624126123     1.007825032230
         H           -3.329884247277    -1.997684222861     1.600776873877     1.007825032230
         H           -4.358133247277     0.419123777139    -1.809830126123     1.007825032230
         H           -4.917449247277    -1.412203222861    -0.221665126123     1.007825032230

  Basis Set: AUG-CC-PVTZ
    Blend: AUG-CC-PVTZ
  Basis Set: (AUG-CC-PVTZ AUX)
    Blend: AUG-CC-PVTZ-JKFIT
	 Reference Energy          =    -590.3310464173946457 [Eh]
	 Singles Energy            =      -0.0000000000000000 [Eh]
	 Same-Spin Energy          =      -0.6439510512419804 [Eh]
	 Opposite-Spin Energy      =      -1.9815404956663953 [Eh]
	 Correlation Energy        =      -2.6254915469083757 [Eh]
	 Total Energy              =    -592.9565379643030383 [Eh]

	 ================> DF-SCS-MP2 Energies <==================
	-----------------------------------------------------------
	 SCS Same-Spin Scale       =       0.3333333333333333 [-]
	 SCS Opposite-Spin Scale   =       1.2000000000000000 [-]
	 SCS Same-Spin Energy      =      -0.2146503504139934 [Eh]
	 SCS Opposite-Spin Energy  =      -2.3778485947996741 [Eh]
	 SCS Correlation Energy    =      -2.5924989452136677 [Eh]
	 SCS Total Energy          =    -592.9235453626083654 [Eh]
	-----------------------------------------------------------

  Dipole Moment: [D]
     X:     2.0142      Y:    -0.1844      Z:     0.1540     Total:     2.0285

*** Psi4 exiting successfully. Buy a developer a beer!
