                               Psi4 1.4a3.dev225

  ==> Input File <==

--------------------------------------------------------------------------
#psi4
#
memory 32 gb

molecule  {
0 1
  O       -0.4771680     1.3164760     0.3008390
  N        0.7985240    -0.5535590    -0.2772820
  C        3.2200150    -0.4235850    -0.1586420
  C        0.7425440     0.7008700     0.1517020
  C       -1.6208490     0.5302780     0.1412880
  C        3.1140170     0.9030370     0.2913960
  C        1.8654780     1.4834140     0.4539590
  C        2.0264240    -1.0936290    -0.4226860
  C        4.5555360    -1.0893210    -0.3460000
  C       -1.9196720    -0.4880720     1.0459920
  C       -2.4970780     0.8728280    -0.8843220
  C       -3.1225630    -1.1795470     0.9070330
  C       -3.7017300     0.1773150    -1.0087090
  C       -4.0792432    -0.8269639    -0.1906852
  H        4.0120030     1.4769520     0.5152690
  H        1.7375180     2.5038470     0.8013060
  H        2.0412640    -2.1246280    -0.7760920
  H        5.1157190    -1.1239590     0.5937180
  H        4.4318450    -2.1155640    -0.7023530
  H        5.1668890    -0.5502680    -1.0765200
  H       -1.2183070    -0.7290930     1.8393240
  H       -2.2288450     1.6771480    -1.5635320
  H       -3.3650020    -1.9773860     1.6048690
  H       -4.3932510     0.4394220    -1.8057380
  H       -4.9525670    -1.3919050    -0.2175730
units angstrom
no_reorient  #important for SAPT in psi4, default
symmetry c1  #important for SAPT in psi4, default
}

set PROPERTIES_ORIGIN ["COM"]
properties('MP2/aug-cc-pvtz', properties = ['dipole'])
--------------------------------------------------------------------------

    Molecular point group: c1
  Charge       = 0
  Multiplicity = 1
  Basis Set: AUG-CC-PVTZ
    Blend: AUG-CC-PVTZ
  Basis Set: (AUG-CC-PVTZ AUX)
    Blend: AUG-CC-PVTZ-JKFIT

    Orbital Energies [Eh]
    ---------------------

    Doubly Occupied:

       1A    -20.599294     2A    -15.563905     3A    -11.341112
       4A    -11.297463     5A    -11.277586     6A    -11.261696
       7A    -11.246123     8A    -11.243536     9A    -11.241483
      10A    -11.232954    11A    -11.232802    12A    -11.232416
      13A    -11.230936    14A    -11.230085    15A     -1.431408
      16A     -1.253863    17A     -1.142062    18A     -1.102926
      19A     -1.053148    20A     -1.017685    21A     -0.999817
      22A     -0.943027    23A     -0.878867    24A     -0.840369
      25A     -0.831009    26A     -0.801826    27A     -0.736105
      28A     -0.705218    29A     -0.686937    30A     -0.653780
      31A     -0.643916    32A     -0.626133    33A     -0.611436
      34A     -0.596921    35A     -0.590526    36A     -0.583016
      37A     -0.571269    38A     -0.563932    39A     -0.550697
      40A     -0.526400    41A     -0.520993    42A     -0.505609
      43A     -0.487593    44A     -0.471150    45A     -0.428591
      46A     -0.384796    47A     -0.341450    48A     -0.325854
      49A     -0.313255

  @DF-RHF Final Energy:  -590.32023118000461

   => Energetics <=

    Nuclear Repulsion Energy =            800.6762336680691305
    One-Electron Energy =               -2390.0869745322215749
    Two-Electron Energy =                 999.0905096841479462
    Total Energy =                       -590.3202311800046118
  Basis Set: (AUG-CC-PVTZ AUX)
    Blend: AUG-CC-PVTZ-RI
    Molecular point group: c1

    Geometry (in Angstrom), charge = 0, multiplicity = 1:

       Center              X                  Y                   Z               Mass
    ------------   -----------------  -----------------  -----------------  -----------------
         O           -0.439028619223     1.294006154195     0.301381885566    15.994914619570
         N            0.836663380777    -0.576028845805    -0.276739114434    14.003074004430
         C            3.258154380777    -0.446054845805    -0.158099114434    12.000000000000
         C            0.780683380777     0.678400154195     0.152244885566    12.000000000000
         C           -1.582709619223     0.507808154195     0.141830885566    12.000000000000
         C            3.152156380777     0.880567154195     0.291938885566    12.000000000000
         C            1.903617380777     1.460944154195     0.454501885566    12.000000000000
         C            2.064563380777    -1.116098845805    -0.422143114434    12.000000000000
         C            4.593675380777    -1.111790845805    -0.345457114434    12.000000000000
         C           -1.881532619223    -0.510541845805     1.046534885566    12.000000000000
         C           -2.458938619223     0.850358154195    -0.883779114434    12.000000000000
         C           -3.084423619223    -1.202016845805     0.907575885566    12.000000000000
         C           -3.663590619223     0.154845154195    -1.008166114434    12.000000000000
         C           -4.041103819223    -0.849433745805    -0.190142314434    12.000000000000
         H            4.050142380777     1.454482154195     0.515811885566     1.007825032230
         H            1.775657380777     2.481377154195     0.801848885566     1.007825032230
         H            2.079403380777    -2.147097845805    -0.775549114434     1.007825032230
         H            5.153858380777    -1.146428845805     0.594260885566     1.007825032230
         H            4.469984380777    -2.138033845805    -0.701810114434     1.007825032230
         H            5.205028380777    -0.572737845805    -1.075977114434     1.007825032230
         H           -1.180167619223    -0.751562845805     1.839866885566     1.007825032230
         H           -2.190705619223     1.654678154195    -1.562989114434     1.007825032230
         H           -3.326862619223    -1.999855845805     1.605411885566     1.007825032230
         H           -4.355111619223     0.416952154195    -1.805195114434     1.007825032230
         H           -4.914427619223    -1.414374845805    -0.217030114434     1.007825032230

  Basis Set: AUG-CC-PVTZ
    Blend: AUG-CC-PVTZ
  Basis Set: (AUG-CC-PVTZ AUX)
    Blend: AUG-CC-PVTZ-JKFIT
	 Reference Energy          =    -590.3202311800046118 [Eh]
	 Singles Energy            =      -0.0000000000000000 [Eh]
	 Same-Spin Energy          =      -0.6436496349285340 [Eh]
	 Opposite-Spin Energy      =      -1.9821103132900011 [Eh]
	 Correlation Energy        =      -2.6257599482185352 [Eh]
	 Total Energy              =    -592.9459911282231133 [Eh]

	 ================> DF-SCS-MP2 Energies <==================
	-----------------------------------------------------------
	 SCS Same-Spin Scale       =       0.3333333333333333 [-]
	 SCS Opposite-Spin Scale   =       1.2000000000000000 [-]
	 SCS Same-Spin Energy      =      -0.2145498783095113 [Eh]
	 SCS Opposite-Spin Energy  =      -2.3785323759480010 [Eh]
	 SCS Correlation Energy    =      -2.5930822542575123 [Eh]
	 SCS Total Energy          =    -592.9133134342621361 [Eh]
	-----------------------------------------------------------

  Dipole Moment: [D]
     X:     2.0368      Y:    -0.2040      Z:     0.1770     Total:     2.0546

*** Psi4 exiting successfully. Buy a developer a beer!
