                               Psi4 1.4a3.dev225

  ==> Input File <==

--------------------------------------------------------------------------
#psi4
#
memory 32 gb

molecule  {
0 1
  O       -0.4771680     1.3164760     0.3008390
  N        0.7985240    -0.5535590    -0.2772820
  C        3.2200150    -0.4235850    -0.1586420
  C        0.7425440     0.7008700     0.1517020
  C       -1.6208490     0.5302780     0.1412880
  C        3.1140170     0.9030370     0.2913960
  C        1.8654780     1.4834140     0.4539590
  C        1.9809220    -1.0736157    -0.4172978
  C        4.5555360    -1.0893210    -0.3460000
  C       -1.9196720    -0.4880720     1.0459920
  C       -2.4970780     0.8728280    -0.8843220
  C       -3.1225630    -1.1795470     0.9070330
  C       -3.7017300     0.1773150    -1.0087090
  C       -4.0153870    -0.8504980    -0.1174150
  H        4.0120030     1.4769520     0.5152690
  H        1.7375180     2.5038470     0.8013060
  H        2.0412640    -2.1246280    -0.7760920
  H        5.1157190    -1.1239590     0.5937180
  H        4.4318450    -2.1155640    -0.7023530
  H        5.1668890    -0.5502680    -1.0765200
  H       -1.2183070    -0.7290930     1.8393240
  H       -2.2288450     1.6771480    -1.5635320
  H       -3.3650020    -1.9773860     1.6048690
  H       -4.3932510     0.4394220    -1.8057380
  H       -4.9525670    -1.3919050    -0.2175730
units angstrom
no_reorient  #important for SAPT in psi4, default
symmetry c1  #important for SAPT in psi4, default
}

set PROPERTIES_ORIGIN ["COM"]
properties('MP2/aug-cc-pvtz', properties = ['dipole'])
--------------------------------------------------------------------------

    Molecular point group: c1
  Charge       = 0
  Multiplicity = 1
  Basis Set: AUG-CC-PVTZ
    Blend: AUG-CC-PVTZ
  Basis Set: (AUG-CC-PVTZ AUX)
    Blend: AUG-CC-PVTZ-JKFIT

    Orbital Energies [Eh]
    ---------------------

    Doubly Occupied:

       1A    -20.598644     2A    -15.562633     3A    -11.341110
       4A    -11.296101     5A    -11.279132     6A    -11.259408
       7A    -11.244382     8A    -11.239094     9A    -11.237277
      10A    -11.237170    11A    -11.233218    12A    -11.232627
      13A    -11.231787    14A    -11.230916    15A     -1.431245
      16A     -1.268177    17A     -1.146546    18A     -1.102884
      19A     -1.051348    20A     -1.015787    21A     -1.003534
      22A     -0.943375    23A     -0.873641    24A     -0.843991
      25A     -0.831576    26A     -0.803339    27A     -0.737298
      28A     -0.706425    29A     -0.679860    30A     -0.656159
      31A     -0.642434    32A     -0.624774    33A     -0.608528
      34A     -0.593733    35A     -0.592917    36A     -0.586394
      37A     -0.570541    38A     -0.563686    39A     -0.551762
      40A     -0.522246    41A     -0.516713    42A     -0.512022
      43A     -0.493413    44A     -0.479286    45A     -0.424906
      46A     -0.389667    47A     -0.335896    48A     -0.330756
      49A     -0.310145

  @DF-RHF Final Energy:  -590.32929885853389

   => Energetics <=

    Nuclear Repulsion Energy =            802.3953061668595410
    One-Electron Energy =               -2393.5122022107530029
    Two-Electron Energy =                1000.7875971853596866
    Total Energy =                       -590.3292988585338890
  Basis Set: (AUG-CC-PVTZ AUX)
    Blend: AUG-CC-PVTZ-RI
    Molecular point group: c1

    Geometry (in Angstrom), charge = 0, multiplicity = 1:

       Center              X                  Y                   Z               Mass
    ------------   -----------------  -----------------  -----------------  -----------------
         O           -0.440218621189     1.294234426684     0.296282036451    15.994914619570
         N            0.835473378811    -0.575800573316    -0.281838963549    14.003074004430
         C            3.256964378811    -0.445826573316    -0.163198963549    12.000000000000
         C            0.779493378811     0.678628426684     0.147145036451    12.000000000000
         C           -1.583899621189     0.508036426684     0.136731036451    12.000000000000
         C            3.150966378811     0.880795426684     0.286839036451    12.000000000000
         C            1.902427378811     1.461172426684     0.449402036451    12.000000000000
         C            2.017871378811    -1.095857273316    -0.421854763549    12.000000000000
         C            4.592485378811    -1.111562573316    -0.350556963549    12.000000000000
         C           -1.882722621189    -0.510313573316     1.041435036451    12.000000000000
         C           -2.460128621189     0.850586426684    -0.888878963549    12.000000000000
         C           -3.085613621189    -1.201788573316     0.902476036451    12.000000000000
         C           -3.664780621189     0.155073426684    -1.013265963549    12.000000000000
         C           -3.978437621189    -0.872739573316    -0.121971963549    12.000000000000
         H            4.048952378811     1.454710426684     0.510712036451     1.007825032230
         H            1.774467378811     2.481605426684     0.796749036451     1.007825032230
         H            2.078213378811    -2.146869573316    -0.780648963549     1.007825032230
         H            5.152668378811    -1.146200573316     0.589161036451     1.007825032230
         H            4.468794378811    -2.137805573316    -0.706909963549     1.007825032230
         H            5.203838378811    -0.572509573316    -1.081076963549     1.007825032230
         H           -1.181357621189    -0.751334573316     1.834767036451     1.007825032230
         H           -2.191895621189     1.654906426684    -1.568088963549     1.007825032230
         H           -3.328052621189    -1.999627573316     1.600312036451     1.007825032230
         H           -4.356301621189     0.417180426684    -1.810294963549     1.007825032230
         H           -4.915617621189    -1.414146573316    -0.222129963549     1.007825032230

  Basis Set: AUG-CC-PVTZ
    Blend: AUG-CC-PVTZ
  Basis Set: (AUG-CC-PVTZ AUX)
    Blend: AUG-CC-PVTZ-JKFIT
	 Reference Energy          =    -590.3292988585338890 [Eh]
	 Singles Energy            =      -0.0000000000000000 [Eh]
	 Same-Spin Energy          =      -0.6440145168744806 [Eh]
	 Opposite-Spin Energy      =      -1.9808606649082561 [Eh]
	 Correlation Energy        =      -2.6248751817827367 [Eh]
	 Total Energy              =    -592.9541740403166159 [Eh]

	 ================> DF-SCS-MP2 Energies <==================
	-----------------------------------------------------------
	 SCS Same-Spin Scale       =       0.3333333333333333 [-]
	 SCS Opposite-Spin Scale   =       1.2000000000000000 [-]
	 SCS Same-Spin Energy      =      -0.2146715056248269 [Eh]
	 SCS Opposite-Spin Energy  =      -2.3770327978899073 [Eh]
	 SCS Correlation Energy    =      -2.5917043035147342 [Eh]
	 SCS Total Energy          =    -592.9210031620485779 [Eh]
	-----------------------------------------------------------

  Dipole Moment: [D]
     X:     1.9474      Y:    -0.1868      Z:     0.1513     Total:     1.9622

*** Psi4 exiting successfully. Buy a developer a beer!
