                               Psi4 1.4a3.dev225

  ==> Input File <==

--------------------------------------------------------------------------
#psi4
#
memory 32 gb

molecule  {
0 1
  O       -0.4771680     1.3164760     0.3008390
  N        0.7985240    -0.5535590    -0.2772820
  C        3.2200150    -0.4235850    -0.1586420
  C        0.8362874     0.5933138     0.1175016
  C       -1.6208490     0.5302780     0.1412880
  C        3.1140170     0.9030370     0.2913960
  C        1.8654780     1.4834140     0.4539590
  C        2.0264240    -1.0936290    -0.4226860
  C        4.5555360    -1.0893210    -0.3460000
  C       -1.9196720    -0.4880720     1.0459920
  C       -2.4970780     0.8728280    -0.8843220
  C       -3.1225630    -1.1795470     0.9070330
  C       -3.7017300     0.1773150    -1.0087090
  C       -4.0153870    -0.8504980    -0.1174150
  H        4.0120030     1.4769520     0.5152690
  H        1.7375180     2.5038470     0.8013060
  H        2.0412640    -2.1246280    -0.7760920
  H        5.1157190    -1.1239590     0.5937180
  H        4.4318450    -2.1155640    -0.7023530
  H        5.1668890    -0.5502680    -1.0765200
  H       -1.2183070    -0.7290930     1.8393240
  H       -2.2288450     1.6771480    -1.5635320
  H       -3.3650020    -1.9773860     1.6048690
  H       -4.3932510     0.4394220    -1.8057380
  H       -4.9525670    -1.3919050    -0.2175730
units angstrom
no_reorient  #important for SAPT in psi4, default
symmetry c1  #important for SAPT in psi4, default
}

set PROPERTIES_ORIGIN ["COM"]
properties('MP2/aug-cc-pvtz', properties = ['dipole'])
--------------------------------------------------------------------------

    Molecular point group: c1
  Charge       = 0
  Multiplicity = 1
  Basis Set: AUG-CC-PVTZ
    Blend: AUG-CC-PVTZ
  Basis Set: (AUG-CC-PVTZ AUX)
    Blend: AUG-CC-PVTZ-JKFIT

    Orbital Energies [Eh]
    ---------------------

    Doubly Occupied:

       1A    -20.571757     2A    -15.569410     3A    -11.336270
       4A    -11.285904     5A    -11.282561     6A    -11.268107
       7A    -11.253982     8A    -11.252608     9A    -11.239496
      10A    -11.230288    11A    -11.229945    12A    -11.223207
      13A    -11.222948    14A    -11.221766    15A     -1.384884
      16A     -1.299058    17A     -1.135392    18A     -1.122201
      19A     -1.056350    20A     -1.007587    21A     -0.991940
      22A     -0.952710    23A     -0.884959    24A     -0.837300
      25A     -0.824099    26A     -0.796787    27A     -0.721147
      28A     -0.712166    29A     -0.675099    30A     -0.649915
      31A     -0.640725    32A     -0.624622    33A     -0.604602
      34A     -0.595935    35A     -0.589956    36A     -0.580811
      37A     -0.569548    38A     -0.564245    39A     -0.555869
      40A     -0.529018    41A     -0.511297    42A     -0.502531
      43A     -0.480776    44A     -0.466005    45A     -0.444820
      46A     -0.401152    47A     -0.339194    48A     -0.328371
      49A     -0.311103

  @DF-RHF Final Energy:  -590.30664365259463

   => Energetics <=

    Nuclear Repulsion Energy =            802.3053379560204803
    One-Electron Energy =               -2393.4631162941909679
    Two-Electron Energy =                1000.8511346855757438
    Total Energy =                       -590.3066436525946301
  Basis Set: (AUG-CC-PVTZ AUX)
    Blend: AUG-CC-PVTZ-RI
    Molecular point group: c1

    Geometry (in Angstrom), charge = 0, multiplicity = 1:

       Center              X                  Y                   Z               Mass
    ------------   -----------------  -----------------  -----------------  -----------------
         O           -0.449246652906     1.302505446712     0.298848779312    15.994914619570
         N            0.826445347094    -0.567529553288    -0.279272220688    14.003074004430
         C            3.247936347094    -0.437555553288    -0.160632220688    12.000000000000
         C            0.864208747094     0.579343246712     0.115511379312    12.000000000000
         C           -1.592927652906     0.516307446712     0.139297779312    12.000000000000
         C            3.141938347094     0.889066446712     0.289405779312    12.000000000000
         C            1.893399347094     1.469443446712     0.451968779312    12.000000000000
         C            2.054345347094    -1.107599553288    -0.424676220688    12.000000000000
         C            4.583457347094    -1.103291553288    -0.347990220688    12.000000000000
         C           -1.891750652906    -0.502042553288     1.044001779312    12.000000000000
         C           -2.469156652906     0.858857446712    -0.886312220688    12.000000000000
         C           -3.094641652906    -1.193517553288     0.905042779312    12.000000000000
         C           -3.673808652906     0.163344446712    -1.010699220688    12.000000000000
         C           -3.987465652906    -0.864468553288    -0.119405220688    12.000000000000
         H            4.039924347094     1.462981446712     0.513278779312     1.007825032230
         H            1.765439347094     2.489876446712     0.799315779312     1.007825032230
         H            2.069185347094    -2.138598553288    -0.778082220688     1.007825032230
         H            5.143640347094    -1.137929553288     0.591727779312     1.007825032230
         H            4.459766347094    -2.129534553288    -0.704343220688     1.007825032230
         H            5.194810347094    -0.564238553288    -1.078510220688     1.007825032230
         H           -1.190385652906    -0.743063553288     1.837333779312     1.007825032230
         H           -2.200923652906     1.663177446712    -1.565522220688     1.007825032230
         H           -3.337080652906    -1.991356553288     1.602878779312     1.007825032230
         H           -4.365329652906     0.425451446712    -1.807728220688     1.007825032230
         H           -4.924645652906    -1.405875553288    -0.219563220688     1.007825032230

  Basis Set: AUG-CC-PVTZ
    Blend: AUG-CC-PVTZ
  Basis Set: (AUG-CC-PVTZ AUX)
    Blend: AUG-CC-PVTZ-JKFIT
	 Reference Energy          =    -590.3066436525946301 [Eh]
	 Singles Energy            =      -0.0000000000000000 [Eh]
	 Same-Spin Energy          =      -0.6439452222677345 [Eh]
	 Opposite-Spin Energy      =      -1.9825306074385696 [Eh]
	 Correlation Energy        =      -2.6264758297063042 [Eh]
	 Total Energy              =    -592.9331194823009810 [Eh]

	 ================> DF-SCS-MP2 Energies <==================
	-----------------------------------------------------------
	 SCS Same-Spin Scale       =       0.3333333333333333 [-]
	 SCS Opposite-Spin Scale   =       1.2000000000000000 [-]
	 SCS Same-Spin Energy      =      -0.2146484074225782 [Eh]
	 SCS Opposite-Spin Energy  =      -2.3790367289262835 [Eh]
	 SCS Correlation Energy    =      -2.5936851363488618 [Eh]
	 SCS Total Energy          =    -592.9003287889435114 [Eh]
	-----------------------------------------------------------

  Dipole Moment: [D]
     X:     3.2929      Y:    -0.4534      Z:     0.0478     Total:     3.3243

*** Psi4 exiting successfully. Buy a developer a beer!
