                               Psi4 1.4a3.dev225

  ==> Input File <==

--------------------------------------------------------------------------
#psi4
#
memory 32 gb

molecule  {
0 1
  O       -0.4771680     1.3164760     0.3008390
  N        0.7985240    -0.5535590    -0.2772820
  C        3.2100899    -0.4312179    -0.2096227
  C        0.7425440     0.7008700     0.1517020
  C       -1.6208490     0.5302780     0.1412880
  C        3.1140170     0.9030370     0.2913960
  C        1.8654780     1.4834140     0.4539590
  C        2.0264240    -1.0936290    -0.4226860
  C        4.5555360    -1.0893210    -0.3460000
  C       -1.9196720    -0.4880720     1.0459920
  C       -2.4970780     0.8728280    -0.8843220
  C       -3.1225630    -1.1795470     0.9070330
  C       -3.7017300     0.1773150    -1.0087090
  C       -4.0153870    -0.8504980    -0.1174150
  H        4.0120030     1.4769520     0.5152690
  H        1.7375180     2.5038470     0.8013060
  H        2.0412640    -2.1246280    -0.7760920
  H        5.1157190    -1.1239590     0.5937180
  H        4.4318450    -2.1155640    -0.7023530
  H        5.1668890    -0.5502680    -1.0765200
  H       -1.2183070    -0.7290930     1.8393240
  H       -2.2288450     1.6771480    -1.5635320
  H       -3.3650020    -1.9773860     1.6048690
  H       -4.3932510     0.4394220    -1.8057380
  H       -4.9525670    -1.3919050    -0.2175730
units angstrom
no_reorient  #important for SAPT in psi4, default
symmetry c1  #important for SAPT in psi4, default
}

set PROPERTIES_ORIGIN ["COM"]
properties('MP2/aug-cc-pvtz', properties = ['dipole'])
--------------------------------------------------------------------------

    Molecular point group: c1
  Charge       = 0
  Multiplicity = 1
  Basis Set: AUG-CC-PVTZ
    Blend: AUG-CC-PVTZ
  Basis Set: (AUG-CC-PVTZ AUX)
    Blend: AUG-CC-PVTZ-JKFIT

    Orbital Energies [Eh]
    ---------------------

    Doubly Occupied:

       1A    -20.599288     2A    -15.562083     3A    -11.341717
       4A    -11.295814     5A    -11.273471     6A    -11.264576
       7A    -11.242793     8A    -11.242068     9A    -11.236782
      10A    -11.236679    11A    -11.232597    12A    -11.232179
      13A    -11.231484    14A    -11.230525    15A     -1.431280
      16A     -1.253307    17A     -1.145986    18A     -1.100163
      19A     -1.054661    20A     -1.015326    21A     -1.004063
      22A     -0.943356    23A     -0.878212    24A     -0.841135
      25A     -0.830151    26A     -0.801801    27A     -0.736859
      28A     -0.705038    29A     -0.679053    30A     -0.655705
      31A     -0.642758    32A     -0.626381    33A     -0.611420
      34A     -0.595331    35A     -0.592016    36A     -0.586082
      37A     -0.569580    38A     -0.565760    39A     -0.550202
      40A     -0.516140    41A     -0.513398    42A     -0.510788
      43A     -0.492848    44A     -0.477824    45A     -0.428935
      46A     -0.382532    47A     -0.335671    48A     -0.333207
      49A     -0.315101

  @DF-RHF Final Energy:  -590.33039594920388

   => Energetics <=

    Nuclear Repulsion Energy =            801.7205129793413789
    One-Electron Energy =               -2392.2135660611174899
    Two-Electron Energy =                1000.1626571325721216
    Total Energy =                       -590.3303959492038757
  Basis Set: (AUG-CC-PVTZ AUX)
    Blend: AUG-CC-PVTZ-RI
    Molecular point group: c1

    Geometry (in Angstrom), charge = 0, multiplicity = 1:

       Center              X                  Y                   Z               Mass
    ------------   -----------------  -----------------  -----------------  -----------------
         O           -0.442525263861     1.296026879221     0.299936736836    15.994914619570
         N            0.833166736139    -0.574008120779    -0.278184263164    14.003074004430
         C            3.244732636139    -0.451667020779    -0.210524963164    12.000000000000
         C            0.777186736139     0.680420879221     0.150799736836    12.000000000000
         C           -1.586206263861     0.509828879221     0.140385736836    12.000000000000
         C            3.148659736139     0.882587879221     0.290493736836    12.000000000000
         C            1.900120736139     1.462964879221     0.453056736836    12.000000000000
         C            2.061066736139    -1.114078120779    -0.423588263164    12.000000000000
         C            4.590178736139    -1.109770120779    -0.346902263164    12.000000000000
         C           -1.885029263861    -0.508521120779     1.045089736836    12.000000000000
         C           -2.462435263861     0.852378879221    -0.885224263164    12.000000000000
         C           -3.087920263861    -1.199996120779     0.906130736836    12.000000000000
         C           -3.667087263861     0.156865879221    -1.009611263164    12.000000000000
         C           -3.980744263861    -0.870947120779    -0.118317263164    12.000000000000
         H            4.046645736139     1.456502879221     0.514366736836     1.007825032230
         H            1.772160736139     2.483397879221     0.800403736836     1.007825032230
         H            2.075906736139    -2.145077120779    -0.776994263164     1.007825032230
         H            5.150361736139    -1.144408120779     0.592815736836     1.007825032230
         H            4.466487736139    -2.136013120779    -0.703255263164     1.007825032230
         H            5.201531736139    -0.570717120779    -1.077422263164     1.007825032230
         H           -1.183664263861    -0.749542120779     1.838421736836     1.007825032230
         H           -2.194202263861     1.656698879221    -1.564434263164     1.007825032230
         H           -3.330359263861    -1.997835120779     1.603966736836     1.007825032230
         H           -4.358608263861     0.418972879221    -1.806640263164     1.007825032230
         H           -4.917924263861    -1.412354120779    -0.218475263164     1.007825032230

  Basis Set: AUG-CC-PVTZ
    Blend: AUG-CC-PVTZ
  Basis Set: (AUG-CC-PVTZ AUX)
    Blend: AUG-CC-PVTZ-JKFIT
	 Reference Energy          =    -590.3303959492038757 [Eh]
	 Singles Energy            =      -0.0000000000000000 [Eh]
	 Same-Spin Energy          =      -0.6437493772558660 [Eh]
	 Opposite-Spin Energy      =      -1.9813853742821308 [Eh]
	 Correlation Energy        =      -2.6251347515379968 [Eh]
	 Total Energy              =    -592.9555307007418605 [Eh]

	 ================> DF-SCS-MP2 Energies <==================
	-----------------------------------------------------------
	 SCS Same-Spin Scale       =       0.3333333333333333 [-]
	 SCS Opposite-Spin Scale   =       1.2000000000000000 [-]
	 SCS Same-Spin Energy      =      -0.2145831257519553 [Eh]
	 SCS Opposite-Spin Energy  =      -2.3776624491385570 [Eh]
	 SCS Correlation Energy    =      -2.5922455748905122 [Eh]
	 SCS Total Energy          =    -592.9226415240943879 [Eh]
	-----------------------------------------------------------

  Dipole Moment: [D]
     X:     2.0023      Y:    -0.1514      Z:     0.1834     Total:     2.0164

*** Psi4 exiting successfully. Buy a developer a beer!
