                               Psi4 1.4a3.dev225

  ==> Input File <==

--------------------------------------------------------------------------
#psi4
#
memory 32 gb

molecule  {
0 1
  O       -0.4771680     1.3164760     0.3008390
  N        0.7985240    -0.5535590    -0.2772820
  C        3.2200150    -0.4235850    -0.1586420
  C        0.7425440     0.7008700     0.1517020
  C       -1.6208490     0.5302780     0.1412880
  C        3.1140170     0.9030370     0.2913960
  C        1.8654780     1.4834140     0.4539590
  C        2.0264240    -1.0936290    -0.4226860
  C        4.5555360    -1.0893210    -0.3460000
  C       -1.9196720    -0.4880720     1.0459920
  C       -2.5235432     0.9256963    -0.9618248
  C       -3.1225630    -1.1795470     0.9070330
  C       -3.7017300     0.1773150    -1.0087090
  C       -4.0153870    -0.8504980    -0.1174150
  H        4.0120030     1.4769520     0.5152690
  H        1.7375180     2.5038470     0.8013060
  H        2.0412640    -2.1246280    -0.7760920
  H        5.1157190    -1.1239590     0.5937180
  H        4.4318450    -2.1155640    -0.7023530
  H        5.1668890    -0.5502680    -1.0765200
  H       -1.2183070    -0.7290930     1.8393240
  H       -2.2288450     1.6771480    -1.5635320
  H       -3.3650020    -1.9773860     1.6048690
  H       -4.3932510     0.4394220    -1.8057380
  H       -4.9525670    -1.3919050    -0.2175730
units angstrom
no_reorient  #important for SAPT in psi4, default
symmetry c1  #important for SAPT in psi4, default
}

set PROPERTIES_ORIGIN ["COM"]
properties('MP2/aug-cc-pvtz', properties = ['dipole'])
--------------------------------------------------------------------------

    Molecular point group: c1
  Charge       = 0
  Multiplicity = 1
  Basis Set: AUG-CC-PVTZ
    Blend: AUG-CC-PVTZ
  Basis Set: (AUG-CC-PVTZ AUX)
    Blend: AUG-CC-PVTZ-JKFIT

    Orbital Energies [Eh]
    ---------------------

    Doubly Occupied:

       1A    -20.598981     2A    -15.563266     3A    -11.340774
       4A    -11.305348     5A    -11.277281     6A    -11.261450
       7A    -11.243237     8A    -11.241224     9A    -11.238965
      10A    -11.238142    11A    -11.234767    12A    -11.232785
      13A    -11.231225    14A    -11.230105    15A     -1.430711
      16A     -1.253285    17A     -1.138794    18A     -1.102631
      19A     -1.052368    20A     -1.017547    21A     -0.997459
      22A     -0.942644    23A     -0.878230    24A     -0.840135
      25A     -0.835002    26A     -0.798485    27A     -0.732893
      28A     -0.705646    29A     -0.688816    30A     -0.653425
      31A     -0.644245    32A     -0.628530    33A     -0.611019
      34A     -0.595700    35A     -0.592532    36A     -0.587878
      37A     -0.570408    38A     -0.562577    39A     -0.549664
      40A     -0.521281    41A     -0.520398    42A     -0.509947
      43A     -0.488160    44A     -0.471027    45A     -0.427956
      46A     -0.384457    47A     -0.338318    48A     -0.327722
      49A     -0.309669

  @DF-RHF Final Energy:  -590.31753151604289

   => Energetics <=

    Nuclear Repulsion Energy =            799.8958147950174862
    One-Electron Energy =               -2388.5324745937869011
    Two-Electron Energy =                 998.3191282827265240
    Total Energy =                       -590.3175315160428909
  Basis Set: (AUG-CC-PVTZ AUX)
    Blend: AUG-CC-PVTZ-RI
    Molecular point group: c1

    Geometry (in Angstrom), charge = 0, multiplicity = 1:

       Center              X                  Y                   Z               Mass
    ------------   -----------------  -----------------  -----------------  -----------------
         O           -0.441452879801     1.292104259496     0.301656307896    15.994914619570
         N            0.834239120199    -0.577930740504    -0.276464692104    14.003074004430
         C            3.255730120199    -0.447956740504    -0.157824692104    12.000000000000
         C            0.778259120199     0.676498259496     0.152519307896    12.000000000000
         C           -1.585133879801     0.505906259496     0.142105307896    12.000000000000
         C            3.149732120199     0.878665259496     0.292213307896    12.000000000000
         C            1.901193120199     1.459042259496     0.454776307896    12.000000000000
         C            2.062139120199    -1.118000740504    -0.421868692104    12.000000000000
         C            4.591251120199    -1.113692740504    -0.345182692104    12.000000000000
         C           -1.883956879801    -0.512443740504     1.046809307896    12.000000000000
         C           -2.487828079801     0.901324559496    -0.961007492104    12.000000000000
         C           -3.086847879801    -1.203918740504     0.907850307896    12.000000000000
         C           -3.666014879801     0.152943259496    -1.007891692104    12.000000000000
         C           -3.979671879801    -0.874869740504    -0.116597692104    12.000000000000
         H            4.047718120199     1.452580259496     0.516086307896     1.007825032230
         H            1.773233120199     2.479475259496     0.802123307896     1.007825032230
         H            2.076979120199    -2.148999740504    -0.775274692104     1.007825032230
         H            5.151434120199    -1.148330740504     0.594535307896     1.007825032230
         H            4.467560120199    -2.139935740504    -0.701535692104     1.007825032230
         H            5.202604120199    -0.574639740504    -1.075702692104     1.007825032230
         H           -1.182591879801    -0.753464740504     1.840141307896     1.007825032230
         H           -2.193129879801     1.652776259496    -1.562714692104     1.007825032230
         H           -3.329286879801    -2.001757740504     1.605686307896     1.007825032230
         H           -4.357535879801     0.415050259496    -1.804920692104     1.007825032230
         H           -4.916851879801    -1.416276740504    -0.216755692104     1.007825032230

  Basis Set: AUG-CC-PVTZ
    Blend: AUG-CC-PVTZ
  Basis Set: (AUG-CC-PVTZ AUX)
    Blend: AUG-CC-PVTZ-JKFIT
	 Reference Energy          =    -590.3175315160428909 [Eh]
	 Singles Energy            =      -0.0000000000000000 [Eh]
	 Same-Spin Energy          =      -0.6441812842348859 [Eh]
	 Opposite-Spin Energy      =      -1.9827437139390487 [Eh]
	 Correlation Energy        =      -2.6269249981739344 [Eh]
	 Total Energy              =    -592.9444565142168813 [Eh]

	 ================> DF-SCS-MP2 Energies <==================
	-----------------------------------------------------------
	 SCS Same-Spin Scale       =       0.3333333333333333 [-]
	 SCS Opposite-Spin Scale   =       1.2000000000000000 [-]
	 SCS Same-Spin Energy      =      -0.2147270947449619 [Eh]
	 SCS Opposite-Spin Energy  =      -2.3792924567268585 [Eh]
	 SCS Correlation Energy    =      -2.5940195514718205 [Eh]
	 SCS Total Energy          =    -592.9115510675146652 [Eh]
	-----------------------------------------------------------

  Dipole Moment: [D]
     X:     2.0577      Y:    -0.1655      Z:     0.1761     Total:     2.0719

*** Psi4 exiting successfully. Buy a developer a beer!
