                               Psi4 1.4a3.dev225

  ==> Input File <==

--------------------------------------------------------------------------
#psi4
#
memory 32 gb

molecule  {
0 1
  O       -0.4771680     1.3164760     0.3008390
  N        0.7985240    -0.5535590    -0.2772820
  C        3.2200150    -0.4235850    -0.1586420
  C        0.7425440     0.7008700     0.1517020
  C       -1.6208490     0.5302780     0.1412880
  C        3.1140170     0.9030370     0.2913960
  C        1.8654780     1.4834140     0.4539590
  C        2.0264240    -1.0936290    -0.4226860
  C        4.5555360    -1.0893210    -0.3460000
  C       -1.9196720    -0.4880720     1.0459920
  C       -2.4970780     0.8728280    -0.8843220
  C       -3.1225630    -1.1795470     0.9070330
  C       -3.7017300     0.1773150    -1.0087090
  C       -4.0108938    -0.8357743    -0.1301830
  H        4.0120030     1.4769520     0.5152690
  H        1.7375180     2.5038470     0.8013060
  H        2.0412640    -2.1246280    -0.7760920
  H        5.1157190    -1.1239590     0.5937180
  H        4.4318450    -2.1155640    -0.7023530
  H        5.1668890    -0.5502680    -1.0765200
  H       -1.2183070    -0.7290930     1.8393240
  H       -2.2288450     1.6771480    -1.5635320
  H       -3.3650020    -1.9773860     1.6048690
  H       -4.3932510     0.4394220    -1.8057380
  H       -4.9525670    -1.3919050    -0.2175730
units angstrom
no_reorient  #important for SAPT in psi4, default
symmetry c1  #important for SAPT in psi4, default
}

set PROPERTIES_ORIGIN ["COM"]
properties('MP2/aug-cc-pvtz', properties = ['dipole'])
--------------------------------------------------------------------------

    Molecular point group: c1
  Charge       = 0
  Multiplicity = 1
  Basis Set: AUG-CC-PVTZ
    Blend: AUG-CC-PVTZ
  Basis Set: (AUG-CC-PVTZ AUX)
    Blend: AUG-CC-PVTZ-JKFIT

    Orbital Energies [Eh]
    ---------------------

    Doubly Occupied:

       1A    -20.598486     2A    -15.563410     3A    -11.340676
       4A    -11.295433     5A    -11.277296     6A    -11.261419
       7A    -11.243207     8A    -11.241140     9A    -11.237643
      10A    -11.234379    11A    -11.232755    12A    -11.232286
      13A    -11.231094    14A    -11.230102    15A     -1.430637
      16A     -1.253460    17A     -1.146900    18A     -1.102614
      19A     -1.053104    20A     -1.015967    21A     -1.003842
      22A     -0.942790    23A     -0.877583    24A     -0.841443
      25A     -0.831823    26A     -0.800419    27A     -0.736918
      28A     -0.704716    29A     -0.677888    30A     -0.655687
      31A     -0.643136    32A     -0.626596    33A     -0.611194
      34A     -0.594618    35A     -0.592849    36A     -0.586273
      37A     -0.569787    38A     -0.563180    39A     -0.549492
      40A     -0.521056    41A     -0.514261    42A     -0.508951
      43A     -0.493600    44A     -0.477928    45A     -0.428260
      46A     -0.384461    47A     -0.336400    48A     -0.331578
      49A     -0.314116

  @DF-RHF Final Energy:  -590.33118877902359

   => Energetics <=

    Nuclear Repulsion Energy =            801.9181216283201366
    One-Electron Energy =               -2392.6129138458327361
    Two-Electron Energy =                1000.3636034384891218
    Total Energy =                       -590.3311887790235915
  Basis Set: (AUG-CC-PVTZ AUX)
    Blend: AUG-CC-PVTZ-RI
    Molecular point group: c1

    Geometry (in Angstrom), charge = 0, multiplicity = 1:

       Center              X                  Y                   Z               Mass
    ------------   -----------------  -----------------  -----------------  -----------------
         O           -0.443460080162     1.294577380035     0.297459201007    15.994914619570
         N            0.832231919838    -0.575457619965    -0.280661798993    14.003074004430
         C            3.253722919838    -0.445483619965    -0.162021798993    12.000000000000
         C            0.776251919838     0.678971380035     0.148322201007    12.000000000000
         C           -1.587141080162     0.508379380035     0.137908201007    12.000000000000
         C            3.147724919838     0.881138380035     0.288016201007    12.000000000000
         C            1.899185919838     1.461515380035     0.450579201007    12.000000000000
         C            2.060131919838    -1.115527619965    -0.426065798993    12.000000000000
         C            4.589243919838    -1.111219619965    -0.349379798993    12.000000000000
         C           -1.885964080162    -0.509970619965     1.042612201007    12.000000000000
         C           -2.463370080162     0.850929380035    -0.887701798993    12.000000000000
         C           -3.088855080162    -1.201445619965     0.903653201007    12.000000000000
         C           -3.668022080162     0.155416380035    -1.012088798993    12.000000000000
         C           -3.977185880162    -0.857672919965    -0.133562798993    12.000000000000
         H            4.045710919838     1.455053380035     0.511889201007     1.007825032230
         H            1.771225919838     2.481948380035     0.797926201007     1.007825032230
         H            2.074971919838    -2.146526619965    -0.779471798993     1.007825032230
         H            5.149426919838    -1.145857619965     0.590338201007     1.007825032230
         H            4.465552919838    -2.137462619965    -0.705732798993     1.007825032230
         H            5.200596919838    -0.572166619965    -1.079899798993     1.007825032230
         H           -1.184599080162    -0.750991619965     1.835944201007     1.007825032230
         H           -2.195137080162     1.655249380035    -1.566911798993     1.007825032230
         H           -3.331294080162    -1.999284619965     1.601489201007     1.007825032230
         H           -4.359543080162     0.417523380035    -1.809117798993     1.007825032230
         H           -4.918859080162    -1.413803619965    -0.220952798993     1.007825032230

  Basis Set: AUG-CC-PVTZ
    Blend: AUG-CC-PVTZ
  Basis Set: (AUG-CC-PVTZ AUX)
    Blend: AUG-CC-PVTZ-JKFIT
	 Reference Energy          =    -590.3311887790235915 [Eh]
	 Singles Energy            =      -0.0000000000000000 [Eh]
	 Same-Spin Energy          =      -0.6439762652671597 [Eh]
	 Opposite-Spin Energy      =      -1.9814358824680889 [Eh]
	 Correlation Energy        =      -2.6254121477352488 [Eh]
	 Total Energy              =    -592.9566009267588242 [Eh]

	 ================> DF-SCS-MP2 Energies <==================
	-----------------------------------------------------------
	 SCS Same-Spin Scale       =       0.3333333333333333 [-]
	 SCS Opposite-Spin Scale   =       1.2000000000000000 [-]
	 SCS Same-Spin Energy      =      -0.2146587550890532 [Eh]
	 SCS Opposite-Spin Energy  =      -2.3777230589617067 [Eh]
	 SCS Correlation Energy    =      -2.5923818140507597 [Eh]
	 SCS Total Energy          =    -592.9235705930743734 [Eh]
	-----------------------------------------------------------

  Dipole Moment: [D]
     X:     2.0197      Y:    -0.1860      Z:     0.1620     Total:     2.0347

*** Psi4 exiting successfully. Buy a developer a beer!
