                               Psi4 1.4a3.dev225

  ==> Input File <==

--------------------------------------------------------------------------
#psi4
#
memory 32 gb

molecule  {
0 1
  O       -0.4771680     1.3164760     0.3008390
  N        0.7985240    -0.5535590    -0.2772820
  C        3.2200150    -0.4235850    -0.1586420
  C        0.7425440     0.7008700     0.1517020
  C       -1.5904505     0.5648172     0.1257026
  C        3.1140170     0.9030370     0.2913960
  C        1.8654780     1.4834140     0.4539590
  C        2.0264240    -1.0936290    -0.4226860
  C        4.5555360    -1.0893210    -0.3460000
  C       -1.9196720    -0.4880720     1.0459920
  C       -2.4970780     0.8728280    -0.8843220
  C       -3.1225630    -1.1795470     0.9070330
  C       -3.7017300     0.1773150    -1.0087090
  C       -4.0153870    -0.8504980    -0.1174150
  H        4.0120030     1.4769520     0.5152690
  H        1.7375180     2.5038470     0.8013060
  H        2.0412640    -2.1246280    -0.7760920
  H        5.1157190    -1.1239590     0.5937180
  H        4.4318450    -2.1155640    -0.7023530
  H        5.1668890    -0.5502680    -1.0765200
  H       -1.2183070    -0.7290930     1.8393240
  H       -2.2288450     1.6771480    -1.5635320
  H       -3.3650020    -1.9773860     1.6048690
  H       -4.3932510     0.4394220    -1.8057380
  H       -4.9525670    -1.3919050    -0.2175730
units angstrom
no_reorient  #important for SAPT in psi4, default
symmetry c1  #important for SAPT in psi4, default
}

set PROPERTIES_ORIGIN ["COM"]
properties('MP2/aug-cc-pvtz', properties = ['dipole'])
--------------------------------------------------------------------------

    Molecular point group: c1
  Charge       = 0
  Multiplicity = 1
  Basis Set: AUG-CC-PVTZ
    Blend: AUG-CC-PVTZ
  Basis Set: (AUG-CC-PVTZ AUX)
    Blend: AUG-CC-PVTZ-JKFIT

    Orbital Energies [Eh]
    ---------------------

    Doubly Occupied:

       1A    -20.603717     2A    -15.566045     3A    -11.344027
       4A    -11.297453     5A    -11.279166     6A    -11.263316
       7A    -11.245431     8A    -11.243709     9A    -11.234974
      10A    -11.234648    11A    -11.234139    12A    -11.233275
      13A    -11.228597    14A    -11.228429    15A     -1.447212
      16A     -1.257039    17A     -1.139586    18A     -1.104693
      19A     -1.056524    20A     -1.011617    21A     -1.000192
      22A     -0.945194    23A     -0.881472    24A     -0.845548
      25A     -0.827591    26A     -0.800841    27A     -0.741243
      28A     -0.707855    29A     -0.678225    30A     -0.659719
      31A     -0.645738    32A     -0.627868    33A     -0.614492
      34A     -0.597918    35A     -0.591138    36A     -0.582147
      37A     -0.570373    38A     -0.566665    39A     -0.551438
      40A     -0.523202    41A     -0.515702    42A     -0.512159
      43A     -0.487304    44A     -0.471528    45A     -0.430358
      46A     -0.386298    47A     -0.333829    48A     -0.331507
      49A     -0.310211

  @DF-RHF Final Energy:  -590.32900544264851

   => Energetics <=

    Nuclear Repulsion Energy =            801.8221888416977663
    One-Electron Energy =               -2392.3196848212951409
    Two-Electron Energy =                1000.1684905369487524
    Total Energy =                       -590.3290054426485085
  Basis Set: (AUG-CC-PVTZ AUX)
    Blend: AUG-CC-PVTZ-RI
    Molecular point group: c1

    Geometry (in Angstrom), charge = 0, multiplicity = 1:

       Center              X                  Y                   Z               Mass
    ------------   -----------------  -----------------  -----------------  -----------------
         O           -0.445139660745     1.293292634094     0.297641868273    15.994914619570
         N            0.830552339255    -0.576742365906    -0.280479131727    14.003074004430
         C            3.252043339255    -0.446768365906    -0.161839131727    12.000000000000
         C            0.774572339255     0.677686634094     0.148504868273    12.000000000000
         C           -1.558422160745     0.541633834094     0.122505468273    12.000000000000
         C            3.146045339255     0.879853634094     0.288198868273    12.000000000000
         C            1.897506339255     1.460230634094     0.450761868273    12.000000000000
         C            2.058452339255    -1.116812365906    -0.425883131727    12.000000000000
         C            4.587564339255    -1.112504365906    -0.349197131727    12.000000000000
         C           -1.887643660745    -0.511255365906     1.042794868273    12.000000000000
         C           -2.465049660745     0.849644634094    -0.887519131727    12.000000000000
         C           -3.090534660745    -1.202730365906     0.903835868273    12.000000000000
         C           -3.669701660745     0.154131634094    -1.011906131727    12.000000000000
         C           -3.983358660745    -0.873681365906    -0.120612131727    12.000000000000
         H            4.044031339255     1.453768634094     0.512071868273     1.007825032230
         H            1.769546339255     2.480663634094     0.798108868273     1.007825032230
         H            2.073292339255    -2.147811365906    -0.779289131727     1.007825032230
         H            5.147747339255    -1.147142365906     0.590520868273     1.007825032230
         H            4.463873339255    -2.138747365906    -0.705550131727     1.007825032230
         H            5.198917339255    -0.573451365906    -1.079717131727     1.007825032230
         H           -1.186278660745    -0.752276365906     1.836126868273     1.007825032230
         H           -2.196816660745     1.653964634094    -1.566729131727     1.007825032230
         H           -3.332973660745    -2.000569365906     1.601671868273     1.007825032230
         H           -4.361222660745     0.416238634094    -1.808935131727     1.007825032230
         H           -4.920538660745    -1.415088365906    -0.220770131727     1.007825032230

  Basis Set: AUG-CC-PVTZ
    Blend: AUG-CC-PVTZ
  Basis Set: (AUG-CC-PVTZ AUX)
    Blend: AUG-CC-PVTZ-JKFIT
	 Reference Energy          =    -590.3290054426485085 [Eh]
	 Singles Energy            =      -0.0000000000000000 [Eh]
	 Same-Spin Energy          =      -0.6441066762120901 [Eh]
	 Opposite-Spin Energy      =      -1.9814912225541215 [Eh]
	 Correlation Energy        =      -2.6255978987662116 [Eh]
	 Total Energy              =    -592.9546033414146677 [Eh]

	 ================> DF-SCS-MP2 Energies <==================
	-----------------------------------------------------------
	 SCS Same-Spin Scale       =       0.3333333333333333 [-]
	 SCS Opposite-Spin Scale   =       1.2000000000000000 [-]
	 SCS Same-Spin Energy      =      -0.2147022254040300 [Eh]
	 SCS Opposite-Spin Energy  =      -2.3777894670649458 [Eh]
	 SCS Correlation Energy    =      -2.5924916924689758 [Eh]
	 SCS Total Energy          =    -592.9214971351175336 [Eh]
	-----------------------------------------------------------

  Dipole Moment: [D]
     X:     2.3395      Y:    -0.1082      Z:     0.1574     Total:     2.3473

*** Psi4 exiting successfully. Buy a developer a beer!
