                               Psi4 1.4a3.dev225

  ==> Input File <==

--------------------------------------------------------------------------
#psi4
#
memory 32 gb

molecule  {
0 1
  O       -0.4771680     1.3164760     0.3008390
  N        0.7985240    -0.5535590    -0.2772820
  C        3.2200150    -0.4235850    -0.1586420
  C        0.7425440     0.7008700     0.1517020
  C       -1.6208490     0.5302780     0.1412880
  C        3.1140170     0.9030370     0.2913960
  C        1.8654780     1.4834140     0.4539590
  C        2.0264240    -1.0936290    -0.4226860
  C        4.5555360    -1.0893210    -0.3460000
  C       -1.9196720    -0.4880720     1.0459920
  C       -2.4970780     0.8728280    -0.8843220
  C       -3.1225630    -1.1795470     0.9070330
  C       -3.8742463     0.0777117    -1.0265223
  C       -4.0153870    -0.8504980    -0.1174150
  H        4.0120030     1.4769520     0.5152690
  H        1.7375180     2.5038470     0.8013060
  H        2.0412640    -2.1246280    -0.7760920
  H        5.1157190    -1.1239590     0.5937180
  H        4.4318450    -2.1155640    -0.7023530
  H        5.1668890    -0.5502680    -1.0765200
  H       -1.2183070    -0.7290930     1.8393240
  H       -2.2288450     1.6771480    -1.5635320
  H       -3.3650020    -1.9773860     1.6048690
  H       -4.3932510     0.4394220    -1.8057380
  H       -4.9525670    -1.3919050    -0.2175730
units angstrom
no_reorient  #important for SAPT in psi4, default
symmetry c1  #important for SAPT in psi4, default
}

set PROPERTIES_ORIGIN ["COM"]
properties('MP2/aug-cc-pvtz', properties = ['dipole'])
--------------------------------------------------------------------------

    Molecular point group: c1
  Charge       = 0
  Multiplicity = 1
  Basis Set: AUG-CC-PVTZ
    Blend: AUG-CC-PVTZ
  Basis Set: (AUG-CC-PVTZ AUX)
    Blend: AUG-CC-PVTZ-JKFIT

    Orbital Energies [Eh]
    ---------------------

    Doubly Occupied:

       1A    -20.597661     2A    -15.563425     3A    -11.340191
       4A    -11.293828     5A    -11.277156     6A    -11.261238
       7A    -11.243657     8A    -11.243070     9A    -11.240905
      10A    -11.238501    11A    -11.238278    12A    -11.237012
      13A    -11.232648    14A    -11.224455    15A     -1.429787
      16A     -1.253226    17A     -1.140481    18A     -1.102459
      19A     -1.055386    20A     -1.020163    21A     -0.995081
      22A     -0.941691    23A     -0.876096    24A     -0.848587
      25A     -0.833526    26A     -0.797044    27A     -0.740831
      28A     -0.704568    29A     -0.675836    30A     -0.661544
      31A     -0.643913    32A     -0.636686    33A     -0.613560
      34A     -0.600123    35A     -0.593927    36A     -0.583118
      37A     -0.564332    38A     -0.560856    39A     -0.548468
      40A     -0.527626    41A     -0.520591    42A     -0.494377
      43A     -0.482857    44A     -0.467002    45A     -0.427693
      46A     -0.384307    47A     -0.346902    48A     -0.319425
      49A     -0.314904

  @DF-RHF Final Energy:  -590.29058552295908

   => Energetics <=

    Nuclear Repulsion Energy =            799.3062171649487482
    One-Electron Energy =               -2387.3156123359826779
    Two-Electron Energy =                 997.7188096480748527
    Total Energy =                       -590.2905855229590770
  Basis Set: (AUG-CC-PVTZ AUX)
    Blend: AUG-CC-PVTZ-RI
    Molecular point group: c1

    Geometry (in Angstrom), charge = 0, multiplicity = 1:

       Center              X                  Y                   Z               Mass
    ------------   -----------------  -----------------  -----------------  -----------------
         O           -0.431983597777     1.301989817230     0.297786315069    15.994914619570
         N            0.843708402223    -0.568045182770    -0.280334684931    14.003074004430
         C            3.265199402223    -0.438071182770    -0.161694684931    12.000000000000
         C            0.787728402223     0.686383817230     0.148649315069    12.000000000000
         C           -1.575664597777     0.515791817230     0.138235315069    12.000000000000
         C            3.159201402223     0.888550817230     0.288343315069    12.000000000000
         C            1.910662402223     1.468927817230     0.450906315069    12.000000000000
         C            2.071608402223    -1.108115182770    -0.425738684931    12.000000000000
         C            4.600720402223    -1.103807182770    -0.349052684931    12.000000000000
         C           -1.874487597777    -0.502558182770     1.042939315069    12.000000000000
         C           -2.451893597777     0.858341817230    -0.887374684931    12.000000000000
         C           -3.077378597777    -1.194033182770     0.903980315069    12.000000000000
         C           -3.829061897777     0.063225517230    -1.029574984931    12.000000000000
         C           -3.970202597777    -0.864984182770    -0.120467684931    12.000000000000
         H            4.057187402223     1.462465817230     0.512216315069     1.007825032230
         H            1.782702402223     2.489360817230     0.798253315069     1.007825032230
         H            2.086448402223    -2.139114182770    -0.779144684931     1.007825032230
         H            5.160903402223    -1.138445182770     0.590665315069     1.007825032230
         H            4.477029402223    -2.130050182770    -0.705405684931     1.007825032230
         H            5.212073402223    -0.564754182770    -1.079572684931     1.007825032230
         H           -1.173122597777    -0.743579182770     1.836271315069     1.007825032230
         H           -2.183660597777     1.662661817230    -1.566584684931     1.007825032230
         H           -3.319817597777    -1.991872182770     1.601816315069     1.007825032230
         H           -4.348066597777     0.424935817230    -1.808790684931     1.007825032230
         H           -4.907382597777    -1.406391182770    -0.220625684931     1.007825032230

  Basis Set: AUG-CC-PVTZ
    Blend: AUG-CC-PVTZ
  Basis Set: (AUG-CC-PVTZ AUX)
    Blend: AUG-CC-PVTZ-JKFIT
	 Reference Energy          =    -590.2905855229590770 [Eh]
	 Singles Energy            =      -0.0000000000000000 [Eh]
	 Same-Spin Energy          =      -0.6433464390136622 [Eh]
	 Opposite-Spin Energy      =      -1.9839888400434613 [Eh]
	 Correlation Energy        =      -2.6273352790571236 [Eh]
	 Total Energy              =    -592.9179208020161695 [Eh]

	 ================> DF-SCS-MP2 Energies <==================
	-----------------------------------------------------------
	 SCS Same-Spin Scale       =       0.3333333333333333 [-]
	 SCS Opposite-Spin Scale   =       1.2000000000000000 [-]
	 SCS Same-Spin Energy      =      -0.2144488130045540 [Eh]
	 SCS Opposite-Spin Energy  =      -2.3807866080521536 [Eh]
	 SCS Correlation Energy    =      -2.5952354210567075 [Eh]
	 SCS Total Energy          =    -592.8858209440157907 [Eh]
	-----------------------------------------------------------

  Dipole Moment: [D]
     X:     1.9797      Y:    -0.2043      Z:     0.1457     Total:     1.9955

*** Psi4 exiting successfully. Buy a developer a beer!
