                               Psi4 1.4a3.dev225

  ==> Input File <==

--------------------------------------------------------------------------
#psi4
#
memory 32 gb

molecule  {
0 1
  O       -0.4771680     1.3164760     0.3008390
  N        0.7985240    -0.5535590    -0.2772820
  C        3.2200150    -0.4235850    -0.1586420
  C        0.7425440     0.7008700     0.1517020
  C       -1.6208490     0.5302780     0.1412880
  C        3.1140170     0.9030370     0.2913960
  C        1.8654780     1.4834140     0.4539590
  C        2.0264240    -1.0936290    -0.4226860
  C        4.5555360    -1.0893210    -0.3460000
  C       -1.9196720    -0.4880720     1.0459920
  C       -2.4970780     0.8728280    -0.8843220
  C       -3.1225630    -1.1795470     0.9070330
  C       -3.7017300     0.1773150    -1.0087090
  C       -4.0153870    -0.8504980    -0.1174150
  H        4.0120030     1.4769520     0.5152690
  H        1.7375180     2.5038470     0.8013060
  H        2.0412640    -2.1246280    -0.7760920
  H        5.1157190    -1.1239590     0.5937180
  H        4.4295824    -2.1343361    -0.7088714
  H        5.1668890    -0.5502680    -1.0765200
  H       -1.2183070    -0.7290930     1.8393240
  H       -2.2288450     1.6771480    -1.5635320
  H       -3.3650020    -1.9773860     1.6048690
  H       -4.3932510     0.4394220    -1.8057380
  H       -4.9525670    -1.3919050    -0.2175730
units angstrom
no_reorient  #important for SAPT in psi4, default
symmetry c1  #important for SAPT in psi4, default
}

set PROPERTIES_ORIGIN ["COM"]
properties('MP2/aug-cc-pvtz', properties = ['dipole'])
--------------------------------------------------------------------------

    Molecular point group: c1
  Charge       = 0
  Multiplicity = 1
  Basis Set: AUG-CC-PVTZ
    Blend: AUG-CC-PVTZ
  Basis Set: (AUG-CC-PVTZ AUX)
    Blend: AUG-CC-PVTZ-JKFIT

    Orbital Energies [Eh]
    ---------------------

    Doubly Occupied:

       1A    -20.598616     2A    -15.563441     3A    -11.340786
       4A    -11.295679     5A    -11.277346     6A    -11.261582
       7A    -11.243388     8A    -11.241236     9A    -11.236754
      10A    -11.236654    11A    -11.235156    12A    -11.232096
      13A    -11.231356    14A    -11.230457    15A     -1.430772
      16A     -1.253523    17A     -1.145885    18A     -1.102587
      19A     -1.052853    20A     -1.015267    21A     -1.003624
      22A     -0.941816    23A     -0.877730    24A     -0.841839
      25A     -0.830556    26A     -0.800880    27A     -0.736827
      28A     -0.704726    29A     -0.679098    30A     -0.655518
      31A     -0.642795    32A     -0.626421    33A     -0.611119
      34A     -0.594514    35A     -0.592197    36A     -0.586241
      37A     -0.569768    38A     -0.563435    39A     -0.547144
      40A     -0.520333    41A     -0.513574    42A     -0.511649
      43A     -0.492714    44A     -0.477617    45A     -0.428260
      46A     -0.384550    47A     -0.335454    48A     -0.332393
      49A     -0.313631

  @DF-RHF Final Energy:  -590.33101959634132

   => Energetics <=

    Nuclear Repulsion Energy =            801.6337990948092056
    One-Electron Energy =               -2392.0459301149603561
    Two-Electron Energy =                1000.0811114238099435
    Total Energy =                       -590.3310195963413207
  Basis Set: (AUG-CC-PVTZ AUX)
    Blend: AUG-CC-PVTZ-RI
    Molecular point group: c1

    Geometry (in Angstrom), charge = 0, multiplicity = 1:

       Center              X                  Y                   Z               Mass
    ------------   -----------------  -----------------  -----------------  -----------------
         O           -0.443156441352     1.295634215443     0.296666876751    15.994914619570
         N            0.832535558648    -0.574400784557    -0.281454123249    14.003074004430
         C            3.254026558648    -0.444426784557    -0.162814123249    12.000000000000
         C            0.776555558648     0.680028215443     0.147529876751    12.000000000000
         C           -1.586837441352     0.509436215443     0.137115876751    12.000000000000
         C            3.148028558648     0.882195215443     0.287223876751    12.000000000000
         C            1.899489558648     1.462572215443     0.449786876751    12.000000000000
         C            2.060435558648    -1.114470784557    -0.426858123249    12.000000000000
         C            4.589547558648    -1.110162784557    -0.350172123249    12.000000000000
         C           -1.885660441352    -0.508913784557     1.041819876751    12.000000000000
         C           -2.463066441352     0.851986215443    -0.888494123249    12.000000000000
         C           -3.088551441352    -1.200388784557     0.902860876751    12.000000000000
         C           -3.667718441352     0.156473215443    -1.012881123249    12.000000000000
         C           -3.981375441352    -0.871339784557    -0.121587123249    12.000000000000
         H            4.046014558648     1.456110215443     0.511096876751     1.007825032230
         H            1.771529558648     2.483005215443     0.797133876751     1.007825032230
         H            2.075275558648    -2.145469784557    -0.780264123249     1.007825032230
         H            5.149730558648    -1.144800784557     0.589545876751     1.007825032230
         H            4.463593958648    -2.155177884557    -0.713043523249     1.007825032230
         H            5.200900558648    -0.571109784557    -1.080692123249     1.007825032230
         H           -1.184295441352    -0.749934784557     1.835151876751     1.007825032230
         H           -2.194833441352     1.656306215443    -1.567704123249     1.007825032230
         H           -3.330990441352    -1.998227784557     1.600696876751     1.007825032230
         H           -4.359239441352     0.418580215443    -1.809910123249     1.007825032230
         H           -4.918555441352    -1.412746784557    -0.221745123249     1.007825032230

  Basis Set: AUG-CC-PVTZ
    Blend: AUG-CC-PVTZ
  Basis Set: (AUG-CC-PVTZ AUX)
    Blend: AUG-CC-PVTZ-JKFIT
	 Reference Energy          =    -590.3310195963413207 [Eh]
	 Singles Energy            =      -0.0000000000000000 [Eh]
	 Same-Spin Energy          =      -0.6440064712431965 [Eh]
	 Opposite-Spin Energy      =      -1.9816269818308714 [Eh]
	 Correlation Energy        =      -2.6256334530740677 [Eh]
	 Total Energy              =    -592.9566530494154222 [Eh]

	 ================> DF-SCS-MP2 Energies <==================
	-----------------------------------------------------------
	 SCS Same-Spin Scale       =       0.3333333333333333 [-]
	 SCS Opposite-Spin Scale   =       1.2000000000000000 [-]
	 SCS Same-Spin Energy      =      -0.2146688237477322 [Eh]
	 SCS Opposite-Spin Energy  =      -2.3779523781970457 [Eh]
	 SCS Correlation Energy    =      -2.5926212019447781 [Eh]
	 SCS Total Energy          =    -592.9236407982861010 [Eh]
	-----------------------------------------------------------

  Dipole Moment: [D]
     X:     2.0117      Y:    -0.1739      Z:     0.1596     Total:     2.0255

*** Psi4 exiting successfully. Buy a developer a beer!
