                               Psi4 1.4a3.dev225

  ==> Input File <==

--------------------------------------------------------------------------
#psi4
#
memory 32 gb

molecule  {
0 1
  O       -0.4771680     1.3164760     0.3008390
  N        0.7985240    -0.5535590    -0.2772820
  C        3.2200150    -0.4235850    -0.1586420
  C        0.7425440     0.7008700     0.1517020
  C       -1.6208490     0.5302780     0.1412880
  C        3.1140170     0.9030370     0.2913960
  C        1.8654780     1.4834140     0.4539590
  C        2.0264240    -1.0936290    -0.4226860
  C        4.6443357    -1.1335863    -0.3584576
  C       -1.9196720    -0.4880720     1.0459920
  C       -2.4970780     0.8728280    -0.8843220
  C       -3.1225630    -1.1795470     0.9070330
  C       -3.7017300     0.1773150    -1.0087090
  C       -4.0153870    -0.8504980    -0.1174150
  H        4.0120030     1.4769520     0.5152690
  H        1.7375180     2.5038470     0.8013060
  H        2.0412640    -2.1246280    -0.7760920
  H        5.1157190    -1.1239590     0.5937180
  H        4.4318450    -2.1155640    -0.7023530
  H        5.1668890    -0.5502680    -1.0765200
  H       -1.2183070    -0.7290930     1.8393240
  H       -2.2288450     1.6771480    -1.5635320
  H       -3.3650020    -1.9773860     1.6048690
  H       -4.3932510     0.4394220    -1.8057380
  H       -4.9525670    -1.3919050    -0.2175730
units angstrom
no_reorient  #important for SAPT in psi4, default
symmetry c1  #important for SAPT in psi4, default
}

set PROPERTIES_ORIGIN ["COM"]
properties('MP2/aug-cc-pvtz', properties = ['dipole'])
--------------------------------------------------------------------------

    Molecular point group: c1
  Charge       = 0
  Multiplicity = 1
  Basis Set: AUG-CC-PVTZ
    Blend: AUG-CC-PVTZ
  Basis Set: (AUG-CC-PVTZ AUX)
    Blend: AUG-CC-PVTZ-JKFIT

    Orbital Energies [Eh]
    ---------------------

    Doubly Occupied:

       1A    -20.598120     2A    -15.563013     3A    -11.340106
       4A    -11.295403     5A    -11.277032     6A    -11.261088
       7A    -11.246653     8A    -11.240498     9A    -11.236536
      10A    -11.236436    11A    -11.231840    12A    -11.231560
      13A    -11.231102    14A    -11.230236    15A     -1.430298
      16A     -1.252603    17A     -1.145607    18A     -1.096390
      19A     -1.048361    20A     -1.015001    21A     -1.002177
      22A     -0.946115    23A     -0.876277    24A     -0.843202
      25A     -0.830630    26A     -0.800362    27A     -0.736334
      28A     -0.703238    29A     -0.678458    30A     -0.655136
      31A     -0.635219    32A     -0.625970    33A     -0.609887
      34A     -0.598448    35A     -0.594831    36A     -0.588251
      37A     -0.573118    38A     -0.566614    39A     -0.558594
      40A     -0.515117    41A     -0.512048    42A     -0.501919
      43A     -0.491612    44A     -0.478418    45A     -0.426585
      46A     -0.384531    47A     -0.335277    48A     -0.332726
      49A     -0.313969

  @DF-RHF Final Energy:  -590.32439668218126

   => Energetics <=

    Nuclear Repulsion Energy =            799.9521176163586915
    One-Electron Energy =               -2388.7071400885606636
    Two-Electron Energy =                 998.4306257900207129
    Total Energy =                       -590.3243966821812592
  Basis Set: (AUG-CC-PVTZ AUX)
    Blend: AUG-CC-PVTZ-RI
    Molecular point group: c1

    Geometry (in Angstrom), charge = 0, multiplicity = 1:

       Center              X                  Y                   Z               Mass
    ------------   -----------------  -----------------  -----------------  -----------------
         O           -0.448926126121     1.298401955662     0.297439076097    15.994914619570
         N            0.826765873879    -0.571633044338    -0.280681923903    14.003074004430
         C            3.248256873879    -0.441659044338    -0.162041923903    12.000000000000
         C            0.770785873879     0.682795955662     0.148302076097    12.000000000000
         C           -1.592607126121     0.512203955662     0.137888076097    12.000000000000
         C            3.142258873879     0.884962955662     0.287996076097    12.000000000000
         C            1.893719873879     1.465339955662     0.450559076097    12.000000000000
         C            2.054665873879    -1.111703044338    -0.426085923903    12.000000000000
         C            4.672577573879    -1.151660344338    -0.361857523903    12.000000000000
         C           -1.891430126121    -0.506146044338     1.042592076097    12.000000000000
         C           -2.468836126121     0.854753955662    -0.887721923903    12.000000000000
         C           -3.094321126121    -1.197621044338     0.903633076097    12.000000000000
         C           -3.673488126121     0.159240955662    -1.012108923903    12.000000000000
         C           -3.987145126121    -0.868572044338    -0.120814923903    12.000000000000
         H            4.040244873879     1.458877955662     0.511869076097     1.007825032230
         H            1.765759873879     2.485772955662     0.797906076097     1.007825032230
         H            2.069505873879    -2.142702044338    -0.779491923903     1.007825032230
         H            5.143960873879    -1.142033044338     0.590318076097     1.007825032230
         H            4.460086873879    -2.133638044338    -0.705752923903     1.007825032230
         H            5.195130873879    -0.568342044338    -1.079919923903     1.007825032230
         H           -1.190065126121    -0.747167044338     1.835924076097     1.007825032230
         H           -2.200603126121     1.659073955662    -1.566931923903     1.007825032230
         H           -3.336760126121    -1.995460044338     1.601469076097     1.007825032230
         H           -4.365009126121     0.421347955662    -1.809137923903     1.007825032230
         H           -4.924325126121    -1.409979044338    -0.220972923903     1.007825032230

  Basis Set: AUG-CC-PVTZ
    Blend: AUG-CC-PVTZ
  Basis Set: (AUG-CC-PVTZ AUX)
    Blend: AUG-CC-PVTZ-JKFIT
	 Reference Energy          =    -590.3243966821812592 [Eh]
	 Singles Energy            =      -0.0000000000000000 [Eh]
	 Same-Spin Energy          =      -0.6435470111618626 [Eh]
	 Opposite-Spin Energy      =      -1.9813648876010825 [Eh]
	 Correlation Energy        =      -2.6249118987629450 [Eh]
	 Total Energy              =    -592.9493085809441482 [Eh]

	 ================> DF-SCS-MP2 Energies <==================
	-----------------------------------------------------------
	 SCS Same-Spin Scale       =       0.3333333333333333 [-]
	 SCS Opposite-Spin Scale   =       1.2000000000000000 [-]
	 SCS Same-Spin Energy      =      -0.2145156703872875 [Eh]
	 SCS Opposite-Spin Energy  =      -2.3776378651212990 [Eh]
	 SCS Correlation Energy    =      -2.5921535355085865 [Eh]
	 SCS Total Energy          =    -592.9165502176898599 [Eh]
	-----------------------------------------------------------

  Dipole Moment: [D]
     X:     2.0202      Y:    -0.1876      Z:     0.1550     Total:     2.0348

*** Psi4 exiting successfully. Buy a developer a beer!
