                               Psi4 1.4a3.dev225

  ==> Input File <==

--------------------------------------------------------------------------
#psi4
#
memory 32 gb

molecule  {
0 1
  O       -0.4771680     1.3164760     0.3008390
  N        0.7985240    -0.5535590    -0.2772820
  C        3.2200150    -0.4235850    -0.1586420
  C        0.7425440     0.7008700     0.1517020
  C       -1.6208490     0.5302780     0.1412880
  C        3.1140170     0.9030370     0.2913960
  C        1.8654780     1.4834140     0.4539590
  C        2.0264240    -1.0936290    -0.4226860
  C        4.5555360    -1.0893210    -0.3460000
  C       -1.9196720    -0.4880720     1.0459920
  C       -2.4970780     0.8728280    -0.8843220
  C       -3.1225630    -1.1795470     0.9070330
  C       -3.7017300     0.1773150    -1.0087090
  C       -4.0153870    -0.8504980    -0.1174150
  H        4.0120030     1.4769520     0.5152690
  H        1.7375180     2.5038470     0.8013060
  H        2.0412640    -2.1246280    -0.7760920
  H        5.1157190    -1.1239590     0.5937180
  H        4.4318450    -2.1155640    -0.7023530
  H        5.1668890    -0.5502680    -1.0765200
  H       -1.2183070    -0.7290930     1.8393240
  H       -2.2288450     1.6771480    -1.5635320
  H       -3.3650020    -1.9773860     1.6048690
  H       -4.3296494     0.4153151    -1.7324325
  H       -4.9525670    -1.3919050    -0.2175730
units angstrom
no_reorient  #important for SAPT in psi4, default
symmetry c1  #important for SAPT in psi4, default
}

set PROPERTIES_ORIGIN ["COM"]
properties('MP2/aug-cc-pvtz', properties = ['dipole'])
--------------------------------------------------------------------------

    Molecular point group: c1
  Charge       = 0
  Multiplicity = 1
  Basis Set: AUG-CC-PVTZ
    Blend: AUG-CC-PVTZ
  Basis Set: (AUG-CC-PVTZ AUX)
    Blend: AUG-CC-PVTZ-JKFIT

    Orbital Energies [Eh]
    ---------------------

    Doubly Occupied:

       1A    -20.598216     2A    -15.563226     3A    -11.340532
       4A    -11.295060     5A    -11.277165     6A    -11.261296
       7A    -11.243074     8A    -11.241003     9A    -11.236089
      10A    -11.232663    11A    -11.231812    12A    -11.230684
      13A    -11.229815    14A    -11.224396    15A     -1.430408
      16A     -1.253297    17A     -1.146153    18A     -1.102485
      19A     -1.053025    20A     -1.018127    21A     -1.004089
      22A     -0.942736    23A     -0.877473    24A     -0.845576
      25A     -0.832631    26A     -0.802610    27A     -0.741558
      28A     -0.704821    29A     -0.678890    30A     -0.655307
      31A     -0.643933    32A     -0.633618    33A     -0.611754
      34A     -0.597372    35A     -0.593014    36A     -0.587488
      37A     -0.569375    38A     -0.563206    39A     -0.549421
      40A     -0.521118    41A     -0.516454    42A     -0.511205
      43A     -0.492863    44A     -0.478599    45A     -0.428045
      46A     -0.384317    47A     -0.335071    48A     -0.331979
      49A     -0.313294

  @DF-RHF Final Energy:  -590.32569068469820

   => Energetics <=

    Nuclear Repulsion Energy =            802.2807024883749136
    One-Electron Energy =               -2393.3000987474601970
    Two-Electron Energy =                1000.6937055743869678
    Total Energy =                       -590.3256906846982019
  Basis Set: (AUG-CC-PVTZ AUX)
    Blend: AUG-CC-PVTZ-RI
    Molecular point group: c1

    Geometry (in Angstrom), charge = 0, multiplicity = 1:

       Center              X                  Y                   Z               Mass
    ------------   -----------------  -----------------  -----------------  -----------------
         O           -0.443515086976     1.295663264648     0.296232217370    15.994914619570
         N            0.832176913024    -0.574371735352    -0.281888782630    14.003074004430
         C            3.253667913024    -0.444397735352    -0.163248782630    12.000000000000
         C            0.776196913024     0.680057264648     0.147095217370    12.000000000000
         C           -1.587196086976     0.509465264648     0.136681217370    12.000000000000
         C            3.147669913024     0.882224264648     0.286789217370    12.000000000000
         C            1.899130913024     1.462601264648     0.449352217370    12.000000000000
         C            2.060076913024    -1.114441735352    -0.427292782630    12.000000000000
         C            4.589188913024    -1.110133735352    -0.350606782630    12.000000000000
         C           -1.886019086976    -0.508884735352     1.041385217370    12.000000000000
         C           -2.463425086976     0.852015264648    -0.888928782630    12.000000000000
         C           -3.088910086976    -1.200359735352     0.902426217370    12.000000000000
         C           -3.668077086976     0.156502264648    -1.013315782630    12.000000000000
         C           -3.981734086976    -0.871310735352    -0.122021782630    12.000000000000
         H            4.045655913024     1.456139264648     0.510662217370     1.007825032230
         H            1.771170913024     2.483034264648     0.796699217370     1.007825032230
         H            2.074916913024    -2.145440735352    -0.780698782630     1.007825032230
         H            5.149371913024    -1.144771735352     0.589111217370     1.007825032230
         H            4.465497913024    -2.136376735352    -0.706959782630     1.007825032230
         H            5.200541913024    -0.571080735352    -1.081126782630     1.007825032230
         H           -1.184654086976    -0.749905735352     1.834717217370     1.007825032230
         H           -2.195192086976     1.656335264648    -1.568138782630     1.007825032230
         H           -3.331349086976    -1.998198735352     1.600262217370     1.007825032230
         H           -4.295996486976     0.394502364648    -1.737039282630     1.007825032230
         H           -4.918914086976    -1.412717735352    -0.222179782630     1.007825032230

  Basis Set: AUG-CC-PVTZ
    Blend: AUG-CC-PVTZ
  Basis Set: (AUG-CC-PVTZ AUX)
    Blend: AUG-CC-PVTZ-JKFIT
	 Reference Energy          =    -590.3256906846982019 [Eh]
	 Singles Energy            =      -0.0000000000000000 [Eh]
	 Same-Spin Energy          =      -0.6438711807221247 [Eh]
	 Opposite-Spin Energy      =      -1.9810062620743016 [Eh]
	 Correlation Energy        =      -2.6248774427964263 [Eh]
	 Total Energy              =    -592.9505681274946483 [Eh]

	 ================> DF-SCS-MP2 Energies <==================
	-----------------------------------------------------------
	 SCS Same-Spin Scale       =       0.3333333333333333 [-]
	 SCS Opposite-Spin Scale   =       1.2000000000000000 [-]
	 SCS Same-Spin Energy      =      -0.2146237269073749 [Eh]
	 SCS Opposite-Spin Energy  =      -2.3772075144891618 [Eh]
	 SCS Correlation Energy    =      -2.5918312413965365 [Eh]
	 SCS Total Energy          =    -592.9175219260947642 [Eh]
	-----------------------------------------------------------

  Dipole Moment: [D]
     X:     1.9894      Y:    -0.1761      Z:     0.1356     Total:     2.0018

*** Psi4 exiting successfully. Buy a developer a beer!
