                               Psi4 1.4a3.dev225

  ==> Input File <==

--------------------------------------------------------------------------
#psi4
#
memory 32 gb

molecule  {
0 1
  O       -0.4771680     1.3164760     0.3008390
  N        0.7985240    -0.5535590    -0.2772820
  C        3.2200150    -0.4235850    -0.1586420
  C        0.7425440     0.7008700     0.1517020
  C       -1.6208490     0.5302780     0.1412880
  C        3.1140170     0.9030370     0.2913960
  C        1.8654780     1.4834140     0.4539590
  C        2.0264240    -1.0936290    -0.4226860
  C        4.5555360    -1.0893210    -0.3460000
  C       -1.9196720    -0.4880720     1.0459920
  C       -2.5095844     0.8997022    -0.9230212
  C       -3.1225630    -1.1795470     0.9070330
  C       -3.7017300     0.1773150    -1.0087090
  C       -4.0153870    -0.8504980    -0.1174150
  H        4.0120030     1.4769520     0.5152690
  H        1.7375180     2.5038470     0.8013060
  H        2.0412640    -2.1246280    -0.7760920
  H        5.1157190    -1.1239590     0.5937180
  H        4.4318450    -2.1155640    -0.7023530
  H        5.1668890    -0.5502680    -1.0765200
  H       -1.2183070    -0.7290930     1.8393240
  H       -2.2288450     1.6771480    -1.5635320
  H       -3.3650020    -1.9773860     1.6048690
  H       -4.3932510     0.4394220    -1.8057380
  H       -4.9525670    -1.3919050    -0.2175730
units angstrom
no_reorient  #important for SAPT in psi4, default
symmetry c1  #important for SAPT in psi4, default
}

set PROPERTIES_ORIGIN ["COM"]
properties('MP2/aug-cc-pvtz', properties = ['dipole'])
--------------------------------------------------------------------------

    Molecular point group: c1
  Charge       = 0
  Multiplicity = 1
  Basis Set: AUG-CC-PVTZ
    Blend: AUG-CC-PVTZ
  Basis Set: (AUG-CC-PVTZ AUX)
    Blend: AUG-CC-PVTZ-JKFIT

    Orbital Energies [Eh]
    ---------------------

    Doubly Occupied:

       1A    -20.598755     2A    -15.563324     3A    -11.340737
       4A    -11.300681     5A    -11.277285     6A    -11.261436
       7A    -11.243222     8A    -11.241187     9A    -11.237774
      10A    -11.237230    11A    -11.232988    12A    -11.232769
      13A    -11.231628    14A    -11.230214    15A     -1.430715
      16A     -1.253366    17A     -1.142034    18A     -1.102622
      19A     -1.052648    20A     -1.016315    21A     -1.000414
      22A     -0.942746    23A     -0.877908    24A     -0.840938
      25A     -0.832411    26A     -0.799851    27A     -0.734853
      28A     -0.705043    29A     -0.683470    30A     -0.654144
      31A     -0.643721    32A     -0.627522    33A     -0.610972
      34A     -0.593685    35A     -0.592731    36A     -0.588307
      37A     -0.570348    38A     -0.563053    39A     -0.549611
      40A     -0.521056    41A     -0.516638    42A     -0.511438
      43A     -0.490620    44A     -0.475038    45A     -0.428094
      46A     -0.384451    47A     -0.336706    48A     -0.329728
      49A     -0.311829

  @DF-RHF Final Energy:  -590.32765152465549

   => Energetics <=

    Nuclear Repulsion Energy =            800.7973678178203727
    One-Electron Energy =               -2390.3615271399139601
    Two-Electron Energy =                 999.2365077974379801
    Total Energy =                       -590.3276515246554936
  Basis Set: (AUG-CC-PVTZ AUX)
    Blend: AUG-CC-PVTZ-RI
    Molecular point group: c1

    Geometry (in Angstrom), charge = 0, multiplicity = 1:

       Center              X                  Y                   Z               Mass
    ------------   -----------------  -----------------  -----------------  -----------------
         O           -0.442357904234     1.293789597463     0.299140460826    15.994914619570
         N            0.833334095766    -0.576245402537    -0.278980539174    14.003074004430
         C            3.254825095766    -0.446271402537    -0.160340539174    12.000000000000
         C            0.777354095766     0.678183597463     0.150003460826    12.000000000000
         C           -1.586038904234     0.507591597463     0.139589460826    12.000000000000
         C            3.148827095766     0.880350597463     0.289697460826    12.000000000000
         C            1.900288095766     1.460727597463     0.452260460826    12.000000000000
         C            2.061234095766    -1.116315402537    -0.424384539174    12.000000000000
         C            4.590346095766    -1.112007402537    -0.347698539174    12.000000000000
         C           -1.884861904234    -0.510758402537     1.044293460826    12.000000000000
         C           -2.474774304234     0.877015797463    -0.924719739174    12.000000000000
         C           -3.087752904234    -1.202233402537     0.905334460826    12.000000000000
         C           -3.666919904234     0.154628597463    -1.010407539174    12.000000000000
         C           -3.980576904234    -0.873184402537    -0.119113539174    12.000000000000
         H            4.046813095766     1.454265597463     0.513570460826     1.007825032230
         H            1.772328095766     2.481160597463     0.799607460826     1.007825032230
         H            2.076074095766    -2.147314402537    -0.777790539174     1.007825032230
         H            5.150529095766    -1.146645402537     0.592019460826     1.007825032230
         H            4.466655095766    -2.138250402537    -0.704051539174     1.007825032230
         H            5.201699095766    -0.572954402537    -1.078218539174     1.007825032230
         H           -1.183496904234    -0.751779402537     1.837625460826     1.007825032230
         H           -2.194034904234     1.654461597463    -1.565230539174     1.007825032230
         H           -3.330191904234    -2.000072402537     1.603170460826     1.007825032230
         H           -4.358440904234     0.416735597463    -1.807436539174     1.007825032230
         H           -4.917756904234    -1.414591402537    -0.219271539174     1.007825032230

  Basis Set: AUG-CC-PVTZ
    Blend: AUG-CC-PVTZ
  Basis Set: (AUG-CC-PVTZ AUX)
    Blend: AUG-CC-PVTZ-JKFIT
	 Reference Energy          =    -590.3276515246554936 [Eh]
	 Singles Energy            =      -0.0000000000000000 [Eh]
	 Same-Spin Energy          =      -0.6440652133370175 [Eh]
	 Opposite-Spin Energy      =      -1.9819392939872877 [Eh]
	 Correlation Energy        =      -2.6260045073243052 [Eh]
	 Total Energy              =    -592.9536560319797900 [Eh]

	 ================> DF-SCS-MP2 Energies <==================
	-----------------------------------------------------------
	 SCS Same-Spin Scale       =       0.3333333333333333 [-]
	 SCS Opposite-Spin Scale   =       1.2000000000000000 [-]
	 SCS Same-Spin Energy      =      -0.2146884044456725 [Eh]
	 SCS Opposite-Spin Energy  =      -2.3783271527847454 [Eh]
	 SCS Correlation Energy    =      -2.5930155572304177 [Eh]
	 SCS Total Energy          =    -592.9206670818858811 [Eh]
	-----------------------------------------------------------

  Dipole Moment: [D]
     X:     2.0397      Y:    -0.1720      Z:     0.1650     Total:     2.0536

*** Psi4 exiting successfully. Buy a developer a beer!
