                               Psi4 1.4a3.dev225

  ==> Input File <==

--------------------------------------------------------------------------
#psi4
#
memory 32 gb

molecule  {
0 1
  O       -0.4771680     1.3164760     0.3008390
  N        0.7985240    -0.5535590    -0.2772820
  C        3.2200150    -0.4235850    -0.1586420
  C        0.7425440     0.7008700     0.1517020
  C       -1.6208490     0.5302780     0.1412880
  C        3.1140170     0.9030370     0.2913960
  C        1.8654780     1.4834140     0.4539590
  C        2.0264240    -1.0936290    -0.4226860
  C        4.5555360    -1.0893210    -0.3460000
  C       -1.9196720    -0.4880720     1.0459920
  C       -2.4970780     0.8728280    -0.8843220
  C       -3.1225630    -1.1795470     0.9070330
  C       -3.7017300     0.1773150    -1.0087090
  C       -4.0198802    -0.8652217    -0.1046470
  H        4.0120030     1.4769520     0.5152690
  H        1.7375180     2.5038470     0.8013060
  H        2.0412640    -2.1246280    -0.7760920
  H        5.1157190    -1.1239590     0.5937180
  H        4.4318450    -2.1155640    -0.7023530
  H        5.1668890    -0.5502680    -1.0765200
  H       -1.2183070    -0.7290930     1.8393240
  H       -2.2288450     1.6771480    -1.5635320
  H       -3.3650020    -1.9773860     1.6048690
  H       -4.3932510     0.4394220    -1.8057380
  H       -4.9525670    -1.3919050    -0.2175730
units angstrom
no_reorient  #important for SAPT in psi4, default
symmetry c1  #important for SAPT in psi4, default
}

set PROPERTIES_ORIGIN ["COM"]
properties('MP2/aug-cc-pvtz', properties = ['dipole'])
--------------------------------------------------------------------------

    Molecular point group: c1
  Charge       = 0
  Multiplicity = 1
  Basis Set: AUG-CC-PVTZ
    Blend: AUG-CC-PVTZ
  Basis Set: (AUG-CC-PVTZ AUX)
    Blend: AUG-CC-PVTZ-JKFIT

    Orbital Energies [Eh]
    ---------------------

    Doubly Occupied:

       1A    -20.598665     2A    -15.563385     3A    -11.340767
       4A    -11.295891     5A    -11.277301     6A    -11.261438
       7A    -11.243218     8A    -11.241176     9A    -11.238915
      10A    -11.235745    11A    -11.232759    12A    -11.231860
      13A    -11.231548    14A    -11.230693    15A     -1.430824
      16A     -1.253477    17A     -1.144932    18A     -1.102626
      19A     -1.052991    20A     -1.015077    21A     -1.003252
      22A     -0.943026    23A     -0.877796    24A     -0.842782
      25A     -0.829465    26A     -0.801263    27A     -0.736704
      28A     -0.704726    29A     -0.680525    30A     -0.655354
      31A     -0.643349    32A     -0.626335    33A     -0.610931
      34A     -0.595236    35A     -0.591326    36A     -0.585921
      37A     -0.569564    38A     -0.563457    39A     -0.549653
      40A     -0.521323    41A     -0.516355    42A     -0.510665
      43A     -0.491656    44A     -0.476985    45A     -0.428160
      46A     -0.384450    47A     -0.335859    48A     -0.332013
      49A     -0.312923

  @DF-RHF Final Energy:  -590.33093957226833

   => Energetics <=

    Nuclear Repulsion Energy =            801.5220162597329363
    One-Electron Energy =               -2391.8172327380366369
    Two-Electron Energy =                 999.9642769060353658
    Total Energy =                       -590.3309395722683348
  Basis Set: (AUG-CC-PVTZ AUX)
    Blend: AUG-CC-PVTZ-RI
    Molecular point group: c1

    Geometry (in Angstrom), charge = 0, multiplicity = 1:

       Center              X                  Y                   Z               Mass
    ------------   -----------------  -----------------  -----------------  -----------------
         O           -0.442877443291     1.296486614101     0.295803564139    15.994914619570
         N            0.832814556709    -0.573548385899    -0.282317435861    14.003074004430
         C            3.254305556709    -0.443574385899    -0.163677435861    12.000000000000
         C            0.776834556709     0.680880614101     0.146666564139    12.000000000000
         C           -1.586558443291     0.510288614101     0.136252564139    12.000000000000
         C            3.148307556709     0.883047614101     0.286360564139    12.000000000000
         C            1.899768556709     1.463424614101     0.448923564139    12.000000000000
         C            2.060714556709    -1.113618385899    -0.427721435861    12.000000000000
         C            4.589826556709    -1.109310385899    -0.351035435861    12.000000000000
         C           -1.885381443291    -0.508061385899     1.040956564139    12.000000000000
         C           -2.462787443291     0.852838614101    -0.889357435861    12.000000000000
         C           -3.088272443291    -1.199536385899     0.901997564139    12.000000000000
         C           -3.667439443291     0.157325614101    -1.013744435861    12.000000000000
         C           -3.985589643291    -0.885211085899    -0.109682435861    12.000000000000
         H            4.046293556709     1.456962614101     0.510233564139     1.007825032230
         H            1.771808556709     2.483857614101     0.796270564139     1.007825032230
         H            2.075554556709    -2.144617385899    -0.781127435861     1.007825032230
         H            5.150009556709    -1.143948385899     0.588682564139     1.007825032230
         H            4.466135556709    -2.135553385899    -0.707388435861     1.007825032230
         H            5.201179556709    -0.570257385899    -1.081555435861     1.007825032230
         H           -1.184016443291    -0.749082385899     1.834288564139     1.007825032230
         H           -2.194554443291     1.657158614101    -1.568567435861     1.007825032230
         H           -3.330711443291    -1.997375385899     1.599833564139     1.007825032230
         H           -4.358960443291     0.419432614101    -1.810773435861     1.007825032230
         H           -4.918276443291    -1.411894385899    -0.222608435861     1.007825032230

  Basis Set: AUG-CC-PVTZ
    Blend: AUG-CC-PVTZ
  Basis Set: (AUG-CC-PVTZ AUX)
    Blend: AUG-CC-PVTZ-JKFIT
	 Reference Energy          =    -590.3309395722683348 [Eh]
	 Singles Energy            =      -0.0000000000000000 [Eh]
	 Same-Spin Energy          =      -0.6440097334984595 [Eh]
	 Opposite-Spin Energy      =      -1.9815713490414961 [Eh]
	 Correlation Energy        =      -2.6255810825399557 [Eh]
	 Total Energy              =    -592.9565206548082870 [Eh]

	 ================> DF-SCS-MP2 Energies <==================
	-----------------------------------------------------------
	 SCS Same-Spin Scale       =       0.3333333333333333 [-]
	 SCS Opposite-Spin Scale   =       1.2000000000000000 [-]
	 SCS Same-Spin Energy      =      -0.2146699111661531 [Eh]
	 SCS Opposite-Spin Energy  =      -2.3778856188497954 [Eh]
	 SCS Correlation Energy    =      -2.5925555300159484 [Eh]
	 SCS Total Energy          =    -592.9234951022842779 [Eh]
	-----------------------------------------------------------

  Dipole Moment: [D]
     X:     2.0143      Y:    -0.1814      Z:     0.1508     Total:     2.0281

*** Psi4 exiting successfully. Buy a developer a beer!
